/*--------------------------------*- C++ -*----------------------------------*\
  =========                 |
  \\      /  F ield         | OpenFOAM: The Open Source CFD Toolbox
   \\    /   O peration     | Website:  https://openfoam.org
    \\  /    A nd           | Version:  9
     \\/     M anipulation  |
\*---------------------------------------------------------------------------*/
FoamFile
{
    format      ascii;
    class       surfaceScalarField;
    location    "0.75";
    object      phi;
}
// * * * * * * * * * * * * * * * * * * * * * * * * * * * * * * * * * * * * * //

dimensions      [0 3 -1 0 0 0 0];

internalField   nonuniform List<scalar> 
2427
(
1.18752e-07
1.38949e-06
1.41722e-07
1.42412e-06
1.67975e-07
1.46337e-06
1.97904e-07
1.50751e-06
2.31897e-07
1.55664e-06
2.70307e-07
1.61065e-06
3.1341e-07
1.66915e-06
3.61361e-07
1.73142e-06
4.14157e-07
1.79635e-06
4.71593e-07
1.86249e-06
5.33244e-07
1.928e-06
5.98451e-07
1.99077e-06
6.66339e-07
2.04849e-06
7.35852e-07
2.09878e-06
8.05805e-07
2.13936e-06
8.74957e-07
2.16818e-06
9.42087e-07
2.18355e-06
2.18425e-06
1.51591e-10
9.94355e-08
2.51223e-10
2.76465e-07
1.34643e-10
4.32232e-07
-2.46377e-10
5.67713e-07
-8.70476e-10
6.84195e-07
-1.66753e-09
7.832e-07
-2.53827e-09
8.66415e-07
-3.36626e-09
9.35616e-07
-4.02581e-09
9.92599e-07
-4.38824e-09
1.03912e-06
-4.32642e-09
1.07687e-06
-3.71787e-09
1.10739e-06
-2.4468e-09
1.13211e-06
-4.05144e-10
1.15231e-06
2.5091e-09
1.16909e-06
6.38866e-09
1.18346e-06
1.13239e-08
1.19625e-06
1.74019e-08
1.20822e-06
2.47114e-08
1.21999e-06
3.33462e-08
1.23214e-06
4.34111e-08
1.24518e-06
5.50275e-08
1.25957e-06
6.83397e-08
1.27577e-06
8.3522e-08
1.29422e-06
1.00781e-07
1.31533e-06
1.20364e-07
1.33955e-06
1.42564e-07
1.36729e-06
1.67715e-07
1.39897e-06
1.96183e-07
1.4349e-06
2.28356e-07
1.47533e-06
2.6462e-07
1.52037e-06
3.05331e-07
1.56994e-06
3.50781e-07
1.6237e-06
4.0115e-07
1.68105e-06
4.56473e-07
1.74103e-06
5.166e-07
1.80236e-06
5.81164e-07
1.86344e-06
6.49576e-07
1.92236e-06
7.21027e-07
1.97703e-06
7.94517e-07
2.02529e-06
8.68901e-07
2.06498e-06
9.42956e-07
2.09412e-06
1.01545e-06
2.11105e-06
2.11448e-06
3.57113e-11
9.93998e-08
-1.45433e-10
2.76646e-07
-6.31458e-10
4.32718e-07
-1.4034e-09
5.68485e-07
-2.37981e-09
6.85171e-07
-3.44597e-09
7.84266e-07
-4.47012e-09
8.67439e-07
-5.31415e-09
9.3646e-07
-5.83994e-09
9.93125e-07
-5.9136e-09
1.0392e-06
-5.408e-09
1.07636e-06
-4.20438e-09
1.10619e-06
-2.19277e-09
1.1301e-06
7.28074e-10
1.14938e-06
4.64915e-09
1.16517e-06
9.65887e-09
1.17845e-06
1.5839e-08
1.19007e-06
2.32695e-08
1.20079e-06
3.20327e-08
1.21123e-06
4.22162e-08
1.22196e-06
5.39191e-08
1.23348e-06
6.72565e-08
1.24624e-06
8.23661e-08
1.26067e-06
9.9414e-08
1.27717e-06
1.186e-07
1.29614e-06
1.4016e-07
1.31799e-06
1.64364e-07
1.34309e-06
1.91542e-07
1.37179e-06
2.22044e-07
1.4044e-06
2.56247e-07
1.44113e-06
2.94529e-07
1.48209e-06
3.37246e-07
1.52722e-06
3.84698e-07
1.57625e-06
4.3709e-07
1.62866e-06
4.94493e-07
1.68363e-06
5.56807e-07
1.74005e-06
6.23733e-07
1.79651e-06
6.94754e-07
1.85134e-06
7.69138e-07
1.90265e-06
8.45957e-07
1.94847e-06
9.24126e-07
1.98681e-06
1.00246e-06
2.01579e-06
1.07973e-06
2.03378e-06
2.03945e-06
-1.18028e-10
9.95178e-08
-6.69132e-10
2.77197e-07
-1.65187e-09
4.33701e-07
-2.96086e-09
5.69794e-07
-4.44407e-09
6.86654e-07
-5.93161e-09
7.85754e-07
-7.25204e-09
8.6876e-07
-8.24108e-09
9.37449e-07
-8.74583e-09
9.93629e-07
-8.62638e-09
1.03908e-06
-7.75619e-09
1.07549e-06
-6.02159e-09
1.10445e-06
-3.32076e-09
1.1274e-06
4.37733e-10
1.14563e-06
5.33535e-09
1.16027e-06
1.14492e-08
1.17234e-06
1.88512e-08
1.18267e-06
2.7612e-08
1.19203e-06
3.78047e-08
1.20103e-06
4.9509e-08
1.21025e-06
6.28152e-08
1.22017e-06
7.783e-08
1.23122e-06
9.46815e-08
1.24381e-06
1.13524e-07
1.25833e-06
1.34545e-07
1.27512e-06
1.57964e-07
1.29457e-06
1.84049e-07
1.317e-06
2.13105e-07
1.34274e-06
2.45466e-07
1.37204e-06
2.81491e-07
1.4051e-06
3.21549e-07
1.44203e-06
3.6599e-07
1.48278e-06
4.15117e-07
1.52712e-06
4.69153e-07
1.57462e-06
5.28204e-07
1.62458e-06
5.92217e-07
1.67604e-06
6.60959e-07
1.72777e-06
7.3399e-07
1.77831e-06
8.10662e-07
1.82598e-06
8.90131e-07
1.869e-06
9.71385e-07
1.90555e-06
1.05329e-06
1.93388e-06
1.13466e-06
1.95241e-06
1.95981e-06
-3.11793e-10
9.98296e-08
-1.33796e-09
2.78223e-07
-2.96181e-09
4.35325e-07
-4.97457e-09
5.71806e-07
-7.13819e-09
6.88818e-07
-9.21631e-09
7.87832e-07
-1.09899e-08
8.70533e-07
-1.22639e-08
9.38723e-07
-1.28681e-08
9.94234e-07
-1.26562e-08
1.03887e-06
-1.15032e-08
1.07434e-06
-9.30241e-09
1.10225e-06
-5.96262e-09
1.12406e-06
-1.40523e-09
1.14107e-06
4.43984e-09
1.15443e-06
1.16348e-08
1.16514e-06
2.02387e-08
1.17407e-06
3.03102e-08
1.18195e-06
4.19113e-08
1.18943e-06
5.51107e-08
1.19705e-06
6.99882e-08
1.20529e-06
8.66397e-08
1.21457e-06
1.05182e-07
1.22527e-06
1.25756e-07
1.23775e-06
1.48535e-07
1.25235e-06
1.73726e-07
1.26938e-06
2.01579e-07
1.28915e-06
2.32378e-07
1.31194e-06
2.66438e-07
1.33798e-06
3.041e-07
1.36744e-06
3.45714e-07
1.40042e-06
3.91622e-07
1.43687e-06
4.42126e-07
1.47662e-06
4.97462e-07
1.51928e-06
5.5776e-07
1.56428e-06
6.23016e-07
1.61078e-06
6.93056e-07
1.65773e-06
7.67518e-07
1.70384e-06
8.4584e-07
1.74766e-06
9.2727e-07
1.78757e-06
1.01088e-06
1.82194e-06
1.09562e-06
1.84915e-06
1.18033e-06
1.86769e-06
1.87627e-06
-5.53258e-10
1.00383e-07
-2.17252e-09
2.79842e-07
-4.60183e-09
4.37754e-07
-7.50634e-09
5.74711e-07
-1.0544e-08
6.91856e-07
-1.33991e-08
7.90687e-07
-1.57962e-08
8.7293e-07
-1.75044e-08
9.40431e-07
-1.83342e-08
9.95063e-07
-1.81329e-08
1.03867e-06
-1.67784e-08
1.07299e-06
-1.41735e-08
1.09965e-06
-1.02405e-08
1.12013e-06
-4.9162e-09
1.13574e-06
1.85257e-09
1.14766e-06
1.01105e-08
1.15688e-06
1.99022e-08
1.16428e-06
3.12714e-08
1.17058e-06
4.42657e-08
1.17644e-06
5.89407e-08
1.18238e-06
7.53639e-08
1.18887e-06
9.36182e-08
1.19632e-06
1.13807e-07
1.20508e-06
1.36058e-07
1.2155e-06
1.60529e-07
1.22787e-06
1.8741e-07
1.24249e-06
2.16931e-07
1.25963e-06
2.49353e-07
1.27952e-06
2.84971e-07
1.30236e-06
3.24103e-07
1.32831e-06
3.67081e-07
1.35744e-06
4.1423e-07
1.38972e-06
4.65848e-07
1.425e-06
5.22176e-07
1.46296e-06
5.83365e-07
1.50309e-06
6.49449e-07
1.5447e-06
7.2031e-07
1.58687e-06
7.95658e-07
1.62849e-06
8.7502e-07
1.66829e-06
9.57735e-07
1.70486e-06
1.04297e-06
1.7367e-06
1.12976e-06
1.76236e-06
1.21702e-06
1.78043e-06
1.78966e-06
-8.49814e-10
1.01233e-07
-3.19908e-09
2.82192e-07
-6.62223e-09
4.41178e-07
-1.06314e-08
5.7872e-07
-1.47597e-08
6.95984e-07
-1.85967e-08
7.94524e-07
-2.18014e-08
8.76135e-07
-2.41017e-08
9.42731e-07
-2.52873e-08
9.96249e-07
-2.51997e-08
1.03858e-06
-2.37221e-08
1.07151e-06
-2.077e-08
1.0967e-06
-1.6283e-08
1.11564e-06
-1.02176e-08
1.12968e-06
-2.54145e-09
1.13998e-06
6.77171e-09
1.14757e-06
1.77463e-08
1.1533e-06
3.04078e-08
1.15792e-06
4.4788e-08
1.16206e-06
6.09271e-08
1.16624e-06
7.88778e-08
1.17092e-06
9.87087e-08
1.17648e-06
1.20509e-07
1.18328e-06
1.4439e-07
1.19162e-06
1.70495e-07
1.20177e-06
1.98994e-07
1.21399e-06
2.30094e-07
1.22853e-06
2.64037e-07
1.24557e-06
3.01092e-07
1.26531e-06
3.41553e-07
1.28785e-06
3.85728e-07
1.31326e-06
4.33926e-07
1.34152e-06
4.86433e-07
1.37249e-06
5.43488e-07
1.4059e-06
6.05258e-07
1.44132e-06
6.71805e-07
1.47815e-06
7.43062e-07
1.51561e-06
8.18804e-07
1.55275e-06
8.98641e-07
1.58846e-06
9.82004e-07
1.62149e-06
1.06816e-06
1.65055e-06
1.15623e-06
1.67429e-06
1.24522e-06
1.69144e-06
1.70081e-06
-1.21146e-09
1.02444e-07
-4.45096e-09
2.85431e-07
-9.08584e-09
4.45812e-07
-1.44425e-08
5.84077e-07
-1.99041e-08
7.01445e-07
-2.49484e-08
7.99568e-07
-2.91585e-08
8.80345e-07
-3.22164e-08
9.45789e-07
-3.38898e-08
9.97922e-07
-3.40162e-08
1.0387e-06
-3.24877e-08
1.06998e-06
-2.92368e-08
1.09344e-06
-2.42249e-08
1.11063e-06
-1.74327e-08
1.12289e-06
-8.85254e-09
1.1314e-06
1.51825e-09
1.1372e-06
1.36794e-08
1.14114e-06
2.7638e-08
1.14396e-06
4.34061e-08
1.14629e-06
6.10063e-08
1.14864e-06
8.04749e-08
1.15145e-06
1.01865e-07
1.15509e-06
1.25249e-07
1.1599e-06
1.50724e-07
1.16614e-06
1.78413e-07
1.17408e-06
2.08469e-07
1.18394e-06
2.41077e-07
1.19592e-06
2.76453e-07
1.2102e-06
3.14843e-07
1.22692e-06
3.56513e-07
1.24618e-06
4.01749e-07
1.26803e-06
4.50836e-07
1.29244e-06
5.04044e-07
1.31929e-06
5.61607e-07
1.34834e-06
6.23699e-07
1.37923e-06
6.90404e-07
1.41145e-06
7.61693e-07
1.44432e-06
8.37401e-07
1.47704e-06
9.17212e-07
1.50865e-06
1.00064e-06
1.53806e-06
1.08706e-06
1.56413e-06
1.17568e-06
1.58567e-06
1.2656e-06
1.60152e-06
1.61057e-06
-1.65104e-09
1.04095e-07
-5.97051e-09
2.89751e-07
-1.20714e-08
4.51913e-07
-1.90541e-08
5.9106e-07
-2.61217e-08
7.08513e-07
-3.26211e-08
8.06068e-07
-3.8048e-08
8.85772e-07
-4.20344e-08
9.49775e-07
-4.43264e-08
1.00021e-06
-4.47608e-08
1.03914e-06
-4.32434e-08
1.06846e-06
-3.97292e-08
1.08993e-06
-3.42075e-08
1.10511e-06
-2.66888e-08
1.11537e-06
-1.71951e-08
1.12191e-06
-5.75268e-09
1.12576e-06
7.61443e-09
1.12777e-06
2.2887e-08
1.12869e-06
4.00559e-08
1.12912e-06
5.91245e-08
1.12957e-06
8.0111e-08
1.13046e-06
1.03051e-07
1.13215e-06
1.28002e-07
1.13495e-06
1.55043e-07
1.1391e-06
1.84278e-07
1.14485e-06
2.15842e-07
1.15237e-06
2.49898e-07
1.16186e-06
2.86636e-07
1.17346e-06
3.26277e-07
1.18728e-06
3.69062e-07
1.20339e-06
4.15248e-07
1.22184e-06
4.65096e-07
1.24259e-06
5.18858e-07
1.26552e-06
5.76757e-07
1.29044e-06
6.38965e-07
1.31702e-06
7.05581e-07
1.34483e-06
7.76607e-07
1.3733e-06
8.51925e-07
1.40172e-06
9.31284e-07
1.42929e-06
1.01429e-06
1.45506e-06
1.10038e-06
1.47803e-06
1.18889e-06
1.49717e-06
1.27899e-06
1.51141e-06
1.51977e-06
-2.18522e-09
1.0628e-07
-7.81191e-09
2.95377e-07
-1.56784e-08
4.5978e-07
-2.46088e-08
5.9999e-07
-3.35904e-08
7.17495e-07
-4.18163e-08
8.14294e-07
-4.86842e-08
8.9264e-07
-5.37727e-08
9.54864e-07
-5.68086e-08
1.00325e-06
-5.76334e-08
1.03996e-06
-5.61734e-08
1.067e-06
-5.24139e-08
1.08617e-06
-4.6379e-08
1.09907e-06
-3.81154e-08
1.1071e-06
-2.76803e-08
1.11148e-06
-1.51331e-08
1.11321e-06
-5.28261e-10
1.11317e-06
1.60879e-08
1.11208e-06
3.46829e-08
1.11053e-06
5.52383e-08
1.10901e-06
7.77531e-08
1.10795e-06
1.02245e-07
1.10766e-06
1.28755e-07
1.10844e-06
1.57343e-07
1.11051e-06
1.88097e-07
1.11409e-06
2.21131e-07
1.11934e-06
2.56587e-07
1.12641e-06
2.94632e-07
1.13541e-06
3.35459e-07
1.14645e-06
3.79284e-07
1.15957e-06
4.26336e-07
1.17479e-06
4.76851e-07
1.19207e-06
5.31058e-07
1.21132e-06
5.89164e-07
1.23233e-06
6.51336e-07
1.25485e-06
7.17678e-07
1.27849e-06
7.88214e-07
1.30276e-06
8.62864e-07
1.32707e-06
9.41431e-07
1.35072e-06
1.02359e-06
1.3729e-06
1.10887e-06
1.39275e-06
1.19668e-06
1.40935e-06
1.28631e-06
1.42178e-06
1.42914e-06
-2.83587e-09
1.09116e-07
-1.00453e-08
3.02587e-07
-2.0034e-08
4.69768e-07
-3.12861e-08
6.11242e-07
-4.25296e-08
7.28738e-07
-5.2779e-08
8.24543e-07
-6.13227e-08
9.01184e-07
-6.76851e-08
9.61226e-07
-7.15788e-08
1.00714e-06
-7.28583e-08
1.04124e-06
-7.14802e-08
1.06562e-06
-6.74694e-08
1.08216e-06
-6.08937e-08
1.0925e-06
-5.18435e-08
1.09805e-06
-4.04179e-08
1.10005e-06
-2.67144e-08
1.09951e-06
-1.08218e-08
1.09728e-06
7.18422e-09
1.09407e-06
2.72439e-08
1.09047e-06
4.93165e-08
1.08694e-06
7.33807e-08
1.08388e-06
9.94363e-08
1.08161e-06
1.27505e-07
1.08037e-06
1.57632e-07
1.08039e-06
1.89888e-07
1.08184e-06
2.24365e-07
1.08486e-06
2.61186e-07
1.08959e-06
3.00496e-07
1.0961e-06
3.42462e-07
1.10448e-06
3.87273e-07
1.11476e-06
4.35131e-07
1.12693e-06
4.86247e-07
1.14096e-06
5.40824e-07
1.15674e-06
5.99052e-07
1.1741e-06
6.61084e-07
1.19282e-06
7.27027e-07
1.21254e-06
7.96915e-07
1.23287e-06
8.70698e-07
1.25329e-06
9.48222e-07
1.2732e-06
1.02922e-06
1.29191e-06
1.1133e-06
1.30867e-06
1.19995e-06
1.3227e-06
1.28854e-06
1.33319e-06
1.33932e-06
-3.63205e-09
1.12748e-07
-1.27627e-08
3.11717e-07
-2.5302e-08
4.82308e-07
-3.93134e-08
6.25253e-07
-5.32129e-08
7.42638e-07
-6.58083e-08
8.37138e-07
-7.62697e-08
9.11645e-07
-8.40694e-08
9.69026e-07
-8.89152e-08
1.01199e-06
-9.06872e-08
1.04302e-06
-8.93851e-08
1.06432e-06
-8.50857e-08
1.07786e-06
-7.79109e-08
1.08532e-06
-6.8004e-08
1.08815e-06
-5.55128e-08
1.08756e-06
-4.05784e-08
1.08457e-06
-2.33278e-08
1.08003e-06
-3.86968e-09
1.07461e-06
1.77085e-08
1.06889e-06
4.13417e-08
1.06331e-06
6.69878e-08
1.05824e-06
9.46279e-08
1.05397e-06
1.24267e-07
1.05073e-06
1.55934e-07
1.04872e-06
1.89681e-07
1.04809e-06
2.25586e-07
1.04896e-06
2.63749e-07
1.05142e-06
3.04293e-07
1.05556e-06
3.47365e-07
1.06141e-06
3.93126e-07
1.069e-06
4.41754e-07
1.0783e-06
4.93429e-07
1.08928e-06
5.48334e-07
1.10183e-06
6.06635e-07
1.1158e-06
6.68472e-07
1.13098e-06
7.33945e-07
1.14707e-06
8.03094e-07
1.16373e-06
8.75886e-07
1.1805e-06
9.52201e-07
1.19688e-06
1.03182e-06
1.21229e-06
1.11441e-06
1.22608e-06
1.19954e-06
1.23757e-06
1.28667e-06
1.24607e-06
1.25085e-06
-4.613e-09
1.17361e-07
-1.60859e-08
3.2319e-07
-3.1696e-08
4.97918e-07
-4.89815e-08
6.42539e-07
-6.59829e-08
7.59639e-07
-8.12716e-08
8.52427e-07
-9.38928e-08
9.24266e-07
-1.03275e-07
9.78409e-07
-1.09137e-07
1.01785e-06
-1.11401e-07
1.04528e-06
-1.10129e-07
1.06305e-06
-1.05463e-07
1.07319e-06
-9.75927e-08
1.07745e-06
-8.67243e-08
1.07728e-06
-7.30618e-08
1.0739e-06
-5.67954e-08
1.0683e-06
-3.80942e-08
1.06132e-06
-1.7102e-08
1.05362e-06
6.06432e-09
1.04572e-06
3.13144e-08
1.03806e-06
5.85859e-08
1.03097e-06
8.7842e-08
1.02471e-06
1.19071e-07
1.0195e-06
1.52287e-07
1.01551e-06
1.87526e-07
1.01285e-06
2.2485e-07
1.01163e-06
2.64341e-07
1.01193e-06
3.06104e-07
1.0138e-06
3.50261e-07
1.01725e-06
3.96952e-07
1.02231e-06
4.46329e-07
1.02893e-06
4.98548e-07
1.03706e-06
5.53765e-07
1.04662e-06
6.12125e-07
1.05744e-06
6.73752e-07
1.06935e-06
7.38733e-07
1.08209e-06
8.07109e-07
1.09535e-06
8.78858e-07
1.10875e-06
9.53883e-07
1.12186e-06
1.032e-06
1.13417e-06
1.11293e-06
1.14514e-06
1.19631e-06
1.1542e-06
1.28165e-06
1.16072e-06
1.1641e-06
-5.83253e-09
1.23194e-07
-2.01791e-08
3.37537e-07
-3.94976e-08
5.17236e-07
-6.06658e-08
6.63707e-07
-8.12723e-08
7.80246e-07
-9.96216e-08
8.70776e-07
-1.14634e-07
9.39279e-07
-1.25712e-07
9.89487e-07
-1.32608e-07
1.02475e-06
-1.35312e-07
1.04798e-06
-1.33969e-07
1.06171e-06
-1.28808e-07
1.06803e-06
-1.20099e-07
1.06874e-06
-1.08123e-07
1.0653e-06
-9.31478e-08
1.05892e-06
-7.54183e-08
1.05057e-06
-5.51486e-08
1.04105e-06
-3.252e-08
1.03099e-06
-7.67944e-09
1.02088e-06
1.92589e-08
1.01112e-06
4.82118e-08
1.00201e-06
7.91255e-08
9.93796e-07
1.11974e-07
9.86653e-07
1.46756e-07
9.80723e-07
1.83497e-07
9.76109e-07
2.22241e-07
9.7289e-07
2.63056e-07
9.71118e-07
3.0603e-07
9.70824e-07
3.51265e-07
9.72018e-07
3.9888e-07
9.74691e-07
4.49003e-07
9.78805e-07
5.01768e-07
9.843e-07
5.57306e-07
9.91078e-07
6.1574e-07
9.99009e-07
6.77175e-07
1.00792e-06
7.41687e-07
1.01758e-06
8.09309e-07
1.02773e-06
8.80024e-07
1.03804e-06
9.5375e-07
1.04813e-06
1.03033e-06
1.05759e-06
1.10953e-06
1.06594e-06
1.19103e-06
1.0727e-06
1.27441e-06
1.07734e-06
1.07933e-06
-7.36599e-09
1.3056e-07
-2.52667e-08
3.55438e-07
-4.90829e-08
5.41052e-07
-7.48552e-08
6.8948e-07
-9.96296e-08
8.0502e-07
-1.21417e-07
8.92564e-07
-1.39026e-07
9.56887e-07
-1.51859e-07
1.00232e-06
-1.5974e-07
1.03263e-06
-1.62762e-07
1.05101e-06
-1.61178e-07
1.06012e-06
-1.55327e-07
1.06218e-06
-1.4558e-07
1.05899e-06
-1.323e-07
1.05202e-06
-1.15829e-07
1.04245e-06
-9.64707e-08
1.03122e-06
-7.44862e-08
1.01907e-06
-5.00948e-08
1.0066e-06
-2.34734e-08
9.94261e-07
5.24012e-09
9.82407e-07
3.59441e-08
9.71309e-07
6.85697e-08
9.61171e-07
1.03078e-07
9.52145e-07
1.39456e-07
9.44344e-07
1.77716e-07
9.37849e-07
2.17893e-07
9.32713e-07
2.6004e-07
9.28971e-07
3.0423e-07
9.26634e-07
3.50548e-07
9.25699e-07
3.99096e-07
9.26143e-07
4.49979e-07
9.27922e-07
5.0331e-07
9.30969e-07
5.59199e-07
9.35189e-07
6.17748e-07
9.4046e-07
6.79042e-07
9.46622e-07
7.43142e-07
9.5348e-07
8.10073e-07
9.60796e-07
8.79817e-07
9.68292e-07
9.523e-07
9.75647e-07
1.02739e-06
9.82501e-07
1.10487e-06
9.88461e-07
1.18447e-06
9.93105e-07
1.26582e-06
9.9599e-07
9.96664e-07
-9.3212e-09
1.39881e-07
-3.16609e-08
3.77777e-07
-6.09605e-08
5.70352e-07
-9.21916e-08
7.20711e-07
-1.21754e-07
8.34583e-07
-1.4735e-07
9.1816e-07
-1.67703e-07
9.7724e-07
-1.8227e-07
1.01689e-06
-1.90993e-07
1.04135e-06
-1.94112e-07
1.05412e-06
-1.92028e-07
1.05804e-06
-1.85215e-07
1.05537e-06
-1.74158e-07
1.04794e-06
-1.5932e-07
1.03719e-06
-1.41121e-07
1.02425e-06
-1.19925e-07
1.01002e-06
-9.60444e-08
9.9519e-07
-6.97345e-08
9.80289e-07
-4.12006e-08
9.65727e-07
-1.06019e-08
9.51808e-07
2.19436e-08
9.38763e-07
5.63544e-08
9.2676e-07
9.2581e-08
9.15919e-07
1.30602e-07
9.06324e-07
1.7042e-07
8.98031e-07
2.12059e-07
8.91074e-07
2.55564e-07
8.85466e-07
3.00994e-07
8.81204e-07
3.48421e-07
8.78272e-07
3.97929e-07
8.76635e-07
4.49608e-07
8.76244e-07
5.03549e-07
8.77027e-07
5.59843e-07
8.78895e-07
6.18573e-07
8.8173e-07
6.79805e-07
8.8539e-07
7.43586e-07
8.89699e-07
8.0993e-07
8.94452e-07
8.78813e-07
8.99408e-07
9.50167e-07
9.04293e-07
1.02387e-06
9.08801e-07
1.09973e-06
9.126e-07
1.1775e-06
9.15332e-07
1.25687e-06
9.16624e-07
9.1609e-07
-1.18567e-08
1.51738e-07
-3.98044e-08
4.05725e-07
-7.58279e-08
6.06375e-07
-1.13526e-07
7.58409e-07
-1.48541e-07
8.69598e-07
-1.78272e-07
9.4789e-07
-2.01421e-07
1.00039e-06
-2.17573e-07
1.03304e-06
-2.26863e-07
1.05064e-06
-2.29733e-07
1.05699e-06
-2.26773e-07
1.05508e-06
-2.18621e-07
1.04722e-06
-2.05897e-07
1.03521e-06
-1.89171e-07
1.02046e-06
-1.68946e-07
1.00402e-06
-1.45651e-07
9.86726e-07
-1.19644e-07
9.69183e-07
-9.12163e-08
9.51861e-07
-6.05977e-08
9.35108e-07
-2.79655e-08
9.19176e-07
6.54946e-09
9.04249e-07
4.28559e-08
8.90453e-07
8.08969e-08
8.77878e-07
1.20644e-07
8.66576e-07
1.62095e-07
8.56581e-07
2.05265e-07
8.47903e-07
2.50192e-07
8.40539e-07
2.96924e-07
8.34472e-07
3.45522e-07
8.29674e-07
3.96057e-07
8.26101e-07
4.48602e-07
8.23698e-07
5.03234e-07
8.22395e-07
5.60025e-07
8.22104e-07
6.1904e-07
8.22716e-07
6.80329e-07
8.24101e-07
7.43923e-07
8.26105e-07
8.09827e-07
8.28549e-07
8.7801e-07
8.31225e-07
9.48404e-07
8.33899e-07
1.02089e-06
8.36314e-07
1.0953e-06
8.38188e-07
1.17141e-06
8.39221e-07
1.24894e-06
8.39099e-07
8.37496e-07
-1.52127e-08
1.6695e-07
-5.03394e-08
4.40852e-07
-9.46552e-08
6.50691e-07
-1.39992e-07
8.03745e-07
-1.81132e-07
9.10738e-07
-2.15223e-07
9.81981e-07
-2.41056e-07
1.02622e-06
-2.5846e-07
1.05044e-06
-2.67853e-07
1.06003e-06
-2.69954e-07
1.05909e-06
-2.65589e-07
1.05071e-06
-2.55588e-07
1.03722e-06
-2.40722e-07
1.02035e-06
-2.21676e-07
1.00141e-06
-1.99036e-07
9.81385e-07
-1.73295e-07
9.60984e-07
-1.44852e-07
9.4074e-07
-1.14029e-07
9.21039e-07
-8.10774e-08
9.02156e-07
-4.61868e-08
8.84286e-07
-9.4974e-09
8.67559e-07
2.88934e-08
8.52063e-07
6.89241e-08
8.37847e-07
1.10562e-07
8.24938e-07
1.53801e-07
8.13342e-07
1.98652e-07
8.03052e-07
2.45144e-07
7.94046e-07
2.9332e-07
7.86297e-07
3.43231e-07
7.79763e-07
3.94934e-07
7.74397e-07
4.48493e-07
7.7014e-07
5.03968e-07
7.66921e-07
5.61416e-07
7.64655e-07
6.20887e-07
7.63244e-07
6.82417e-07
7.62571e-07
7.46023e-07
7.62499e-07
8.11699e-07
7.62873e-07
8.79409e-07
7.63515e-07
9.49081e-07
7.64227e-07
1.0206e-06
7.64792e-07
1.09382e-06
7.64973e-07
1.16852e-06
7.64519e-07
1.24445e-06
7.63167e-07
7.60645e-07
-1.97659e-08
1.86716e-07
-6.42176e-08
4.85303e-07
-1.18809e-07
7.05283e-07
-1.7311e-07
8.58046e-07
-2.2098e-07
9.58608e-07
-2.59451e-07
1.02045e-06
-2.87589e-07
1.05436e-06
-3.05627e-07
1.06848e-06
-3.14395e-07
1.0688e-06
-3.14965e-07
1.05966e-06
-3.0845e-07
1.0442e-06
-2.95897e-07
1.02466e-06
-2.7824e-07
1.00269e-06
-2.56279e-07
9.79452e-07
-2.30681e-07
9.55788e-07
-2.01994e-07
9.32297e-07
-1.70655e-07
9.09401e-07
-1.37007e-07
8.87391e-07
-1.01318e-07
8.66466e-07
-6.37849e-08
8.46753e-07
-2.45542e-08
8.28328e-07
1.62742e-08
8.11234e-07
5.8636e-08
7.95485e-07
1.02497e-07
7.81077e-07
1.47846e-07
7.67993e-07
1.94693e-07
7.56205e-07
2.43059e-07
7.4568e-07
2.92981e-07
7.36375e-07
3.44502e-07
7.28243e-07
3.97669e-07
7.2123e-07
4.52534e-07
7.15276e-07
5.09144e-07
7.1031e-07
5.67545e-07
7.06254e-07
6.27773e-07
7.03017e-07
6.8985e-07
7.00494e-07
7.53783e-07
6.98566e-07
8.19556e-07
6.971e-07
8.87128e-07
6.95943e-07
9.56425e-07
6.9493e-07
1.02734e-06
6.93877e-07
1.09973e-06
6.92587e-07
1.17339e-06
6.90853e-07
1.2481e-06
6.88455e-07
6.85166e-07
-2.61295e-08
2.12846e-07
-8.28836e-08
5.42058e-07
-1.50237e-07
7.72637e-07
-2.14908e-07
9.22717e-07
-2.6989e-07
1.01359e-06
-3.1238e-07
1.06294e-06
-3.42007e-07
1.08399e-06
-3.59635e-07
1.08611e-06
-3.66649e-07
1.07582e-06
-3.64562e-07
1.05758e-06
-3.54818e-07
1.03445e-06
-3.387e-07
1.00855e-06
-3.17303e-07
9.81295e-07
-2.91538e-07
9.53687e-07
-2.62145e-07
9.26395e-07
-2.29715e-07
8.99867e-07
-1.94714e-07
8.74399e-07
-1.57502e-07
8.50179e-07
-1.18353e-07
8.27318e-07
-7.74736e-08
8.05873e-07
-3.50099e-08
7.85865e-07
8.93528e-09
7.67289e-07
5.42959e-08
7.50124e-07
1.01035e-07
7.34338e-07
1.49138e-07
7.1989e-07
1.98609e-07
7.06735e-07
2.49465e-07
6.94824e-07
3.01733e-07
6.84106e-07
3.5545e-07
6.74526e-07
4.10653e-07
6.66027e-07
4.67381e-07
6.58547e-07
5.25674e-07
6.52018e-07
5.85564e-07
6.46365e-07
6.47075e-07
6.41506e-07
7.10221e-07
6.37348e-07
7.74999e-07
6.33788e-07
8.41387e-07
6.30711e-07
9.0934e-07
6.2799e-07
9.78786e-07
6.25484e-07
1.04962e-06
6.23042e-07
1.12171e-06
6.205e-07
1.19487e-06
6.17687e-07
1.26891e-06
6.14423e-07
6.10518e-07
-3.53423e-08
2.48188e-07
-1.0858e-07
6.15295e-07
-1.91729e-07
8.55785e-07
-2.68053e-07
9.99042e-07
-3.29999e-07
1.07553e-06
-3.75449e-07
1.10839e-06
-4.05024e-07
1.11356e-06
-4.20502e-07
1.10159e-06
-4.23986e-07
1.0793e-06
-4.1751e-07
1.0511e-06
-4.02876e-07
1.01982e-06
-3.81607e-07
9.87276e-07
-3.54953e-07
9.54641e-07
-3.23921e-07
9.22655e-07
-2.8931e-07
8.91784e-07
-2.51747e-07
8.62304e-07
-2.11718e-07
8.3437e-07
-1.69596e-07
8.08057e-07
-1.25661e-07
7.83383e-07
-8.01223e-08
7.60335e-07
-3.31325e-08
7.38875e-07
1.52023e-08
7.18954e-07
6.48112e-08
7.00516e-07
1.15652e-07
6.83498e-07
1.67703e-07
6.67839e-07
2.20961e-07
6.53476e-07
2.75436e-07
6.40349e-07
3.31145e-07
6.28396e-07
3.88114e-07
6.17557e-07
4.46372e-07
6.07769e-07
5.05949e-07
5.9897e-07
5.66872e-07
5.91095e-07
6.29164e-07
5.84072e-07
6.92843e-07
5.77827e-07
7.57913e-07
5.72278e-07
8.24366e-07
5.67335e-07
8.92177e-07
5.629e-07
9.61302e-07
5.58865e-07
1.03167e-06
5.55114e-07
1.10319e-06
5.51522e-07
1.17574e-06
5.47953e-07
1.24916e-06
5.44269e-07
1.32326e-06
5.4032e-07
5.35953e-07
-4.92316e-08
2.9742e-07
-1.44854e-07
7.10917e-07
-2.47253e-07
9.58184e-07
-3.35886e-07
1.08768e-06
-4.03507e-07
1.14316e-06
-4.49568e-07
1.15445e-06
-4.76274e-07
1.14027e-06
-4.86644e-07
1.11196e-06
-4.83656e-07
1.07631e-06
-4.69922e-07
1.03737e-06
-4.47615e-07
9.97513e-07
-4.18488e-07
9.5815e-07
-3.83933e-07
9.20085e-07
-3.45041e-07
8.83763e-07
-3.02662e-07
8.49405e-07
-2.57454e-07
8.17096e-07
-2.09922e-07
7.86839e-07
-1.60452e-07
7.58587e-07
-1.09337e-07
7.32268e-07
-5.67958e-08
7.07793e-07
-2.989e-09
6.85068e-07
5.1967e-08
6.63998e-07
1.07991e-07
6.44491e-07
1.65031e-07
6.26458e-07
2.23056e-07
6.09815e-07
2.8205e-07
5.94482e-07
3.42013e-07
5.80386e-07
4.02953e-07
5.67456e-07
4.64886e-07
5.55624e-07
5.2783e-07
5.44825e-07
5.91807e-07
5.34993e-07
6.56837e-07
5.26065e-07
7.22937e-07
5.17972e-07
7.90119e-07
5.10646e-07
8.58384e-07
5.04013e-07
9.27725e-07
4.97994e-07
9.98118e-07
4.92506e-07
1.06953e-06
4.87458e-07
1.14189e-06
4.82753e-07
1.21512e-06
4.78287e-07
1.28913e-06
4.7395e-07
1.36377e-06
4.69628e-07
1.43888e-06
4.65202e-07
4.60545e-07
-7.11228e-08
3.68543e-07
-1.97373e-07
8.37167e-07
-3.22264e-07
1.08308e-06
-4.2203e-07
1.18744e-06
-4.91624e-07
1.21275e-06
-5.33444e-07
1.19627e-06
-5.52026e-07
1.15885e-06
-5.51971e-07
1.1119e-06
-5.37264e-07
1.06161e-06
-5.1114e-07
1.01124e-06
-4.76146e-07
9.62519e-07
-4.34262e-07
9.16266e-07
-3.87019e-07
8.72842e-07
-3.35593e-07
8.32338e-07
-2.80891e-07
7.94703e-07
-2.23608e-07
7.59813e-07
-1.64277e-07
7.27507e-07
-1.03305e-07
6.97615e-07
-4.10033e-08
6.69966e-07
2.23932e-08
6.44396e-07
8.67089e-08
6.20752e-07
1.51814e-07
5.98893e-07
2.17617e-07
5.78689e-07
2.84052e-07
5.60023e-07
3.51079e-07
5.42787e-07
4.18675e-07
5.26886e-07
4.8683e-07
5.12231e-07
5.55548e-07
4.98739e-07
6.24836e-07
4.86336e-07
6.94711e-07
4.7495e-07
7.65192e-07
4.64513e-07
8.36297e-07
4.5496e-07
9.08043e-07
4.46225e-07
9.80446e-07
4.38243e-07
1.05351e-06
4.30947e-07
1.12724e-06
4.24266e-07
1.20162e-06
4.18128e-07
1.27662e-06
4.12455e-07
1.35221e-06
4.07167e-07
1.42832e-06
4.02177e-07
1.50487e-06
3.97396e-07
1.58177e-06
3.92731e-07
1.65888e-06
3.88086e-07
3.8336e-07
-1.07232e-07
4.75775e-07
-2.75114e-07
1.00505e-06
-4.23399e-07
1.23136e-06
-5.28392e-07
1.29244e-06
-5.90972e-07
1.27533e-06
-6.18469e-07
1.22377e-06
-6.18612e-07
1.15899e-06
-5.97942e-07
1.09123e-06
-5.61598e-07
1.02526e-06
-5.13499e-07
9.63145e-07
-4.56606e-07
9.05625e-07
-3.93147e-07
8.52807e-07
-3.24805e-07
8.04501e-07
-2.52856e-07
7.60388e-07
-1.78265e-07
7.20113e-07
-1.01767e-07
6.83314e-07
-2.39194e-08
6.49659e-07
5.48551e-08
6.18841e-07
1.34237e-07
5.90585e-07
2.13986e-07
5.64647e-07
2.93928e-07
5.40811e-07
3.73933e-07
5.18888e-07
4.53913e-07
4.98709e-07
5.33809e-07
4.80126e-07
6.13588e-07
4.63008e-07
6.93235e-07
4.4724e-07
7.72749e-07
4.32717e-07
8.52143e-07
4.19345e-07
9.31437e-07
4.07041e-07
1.01066e-06
3.95728e-07
1.08984e-06
3.85332e-07
1.16901e-06
3.75787e-07
1.24821e-06
3.67028e-07
1.32746e-06
3.58991e-07
1.4068e-06
3.51613e-07
1.48623e-06
3.44832e-07
1.56577e-06
3.38584e-07
1.64543e-06
3.32801e-07
1.72518e-06
3.27416e-07
1.805e-06
3.22358e-07
1.88484e-06
3.17554e-07
1.96464e-06
3.12928e-07
2.04432e-06
3.08405e-07
3.03906e-07
-1.69498e-07
6.45273e-07
-3.91445e-07
1.227e-06
-5.54888e-07
1.3948e-06
-6.46961e-07
1.38451e-06
-6.81252e-07
1.30962e-06
-6.72719e-07
1.21524e-06
-6.33356e-07
1.11963e-06
-5.72111e-07
1.02999e-06
-4.95497e-07
9.48648e-07
-4.08208e-07
8.75855e-07
-3.13622e-07
8.11039e-07
-2.1418e-07
7.53366e-07
-1.11659e-07
7.0198e-07
-7.35453e-09
6.56084e-07
9.77907e-08
6.14967e-07
2.03085e-07
5.7802e-07
3.08031e-07
5.44714e-07
4.12268e-07
5.14603e-07
5.15547e-07
4.87306e-07
6.17696e-07
4.62498e-07
7.18605e-07
4.39903e-07
8.1821e-07
4.19282e-07
9.16485e-07
4.00434e-07
1.01343e-06
3.83181e-07
1.10907e-06
3.67372e-07
1.20343e-06
3.52874e-07
1.29658e-06
3.3957e-07
1.38857e-06
3.27359e-07
1.47946e-06
3.16149e-07
1.56933e-06
3.05859e-07
1.65825e-06
2.96414e-07
1.74629e-06
2.87747e-07
1.83352e-06
2.79794e-07
1.92002e-06
2.72495e-07
2.00584e-06
2.65792e-07
2.09104e-06
2.59629e-07
2.17567e-06
2.53949e-07
2.25978e-06
2.48698e-07
2.34338e-06
2.43817e-07
2.42648e-06
2.39251e-07
2.5091e-06
2.3494e-07
2.5912e-06
2.30825e-07
2.67276e-06
2.26847e-07
2.22949e-07
-2.81548e-07
9.26821e-07
-5.59748e-07
1.5052e-06
-6.9842e-07
1.53347e-06
-7.26488e-07
1.41258e-06
-6.82032e-07
1.26516e-06
-5.91269e-07
1.12447e-06
-4.71492e-07
9.99853e-07
-3.34165e-07
8.92661e-07
-1.8689e-07
8.01373e-07
-3.46429e-08
7.23608e-07
1.19335e-07
6.57061e-07
2.72915e-07
5.99786e-07
4.24709e-07
5.50186e-07
5.73823e-07
5.0697e-07
7.19699e-07
4.69091e-07
8.62012e-07
4.35707e-07
1.00059e-06
4.06133e-07
1.13538e-06
3.79811e-07
1.26641e-06
3.56284e-07
1.39373e-06
3.35176e-07
1.51746e-06
3.16173e-07
1.63772e-06
2.99015e-07
1.75468e-06
2.83481e-07
1.86847e-06
2.69387e-07
1.97927e-06
2.56574e-07
2.08723e-06
2.44908e-07
2.19253e-06
2.34272e-07
2.29532e-06
2.24567e-07
2.39577e-06
2.15703e-07
2.49403e-06
2.07603e-07
2.59024e-06
2.00199e-07
2.68456e-06
1.93428e-07
2.77712e-06
1.87235e-07
2.86805e-06
1.81566e-07
2.95747e-06
1.76372e-07
3.04549e-06
1.71607e-07
3.13221e-06
1.67226e-07
3.21773e-06
1.63184e-07
3.30211e-06
1.59439e-07
3.38541e-06
1.55946e-07
3.46769e-06
1.52663e-07
3.54896e-06
1.49547e-07
3.62926e-06
1.46554e-07
1.43646e-07
-4.88402e-07
1.41522e-06
-7.37889e-07
1.75468e-06
-7.05709e-07
1.50129e-06
-5.3769e-07
1.24456e-06
-3.10323e-07
1.0378e-06
-5.85403e-08
8.72692e-07
2.00304e-07
7.41009e-07
4.56542e-07
6.36423e-07
7.0504e-07
5.52875e-07
9.43383e-07
4.85265e-07
1.17064e-06
4.29806e-07
1.38665e-06
3.83773e-07
1.59168e-06
3.45159e-07
1.7862e-06
3.12452e-07
1.97079e-06
2.84502e-07
2.14607e-06
2.60422e-07
2.31268e-06
2.39527e-07
2.47121e-06
2.21276e-07
2.62225e-06
2.05243e-07
2.76635e-06
1.91083e-07
2.904e-06
1.78519e-07
3.03569e-06
1.67325e-07
3.16186e-06
1.57316e-07
3.2829e-06
1.48337e-07
3.39922e-06
1.40261e-07
3.51115e-06
1.32979e-07
3.61902e-06
1.264e-07
3.72314e-06
1.20446e-07
3.82379e-06
1.15051e-07
3.92124e-06
1.10157e-07
4.01572e-06
1.05712e-07
4.10748e-06
1.01673e-07
4.19672e-06
9.79993e-08
4.28363e-06
9.46541e-08
4.36839e-06
9.16042e-08
4.45118e-06
8.88183e-08
4.53214e-06
8.6267e-08
4.6114e-06
8.39219e-08
4.68909e-06
8.17555e-08
4.76529e-06
7.97409e-08
4.8401e-06
7.78518e-08
4.91359e-06
7.60629e-08
4.9858e-06
7.43464e-08
7.26828e-08
-6.77517e-07
2.09274e-06
-3.78089e-07
1.45526e-06
2.01414e-07
9.21791e-07
7.59222e-07
6.8675e-07
1.2628e-06
5.34214e-07
1.71612e-06
4.19374e-07
2.12271e-06
3.3442e-07
2.48672e-06
2.72415e-07
2.81328e-06
2.2631e-07
3.10749e-06
1.91062e-07
3.37378e-06
1.63513e-07
3.61593e-06
1.41625e-07
3.8371e-06
1.23982e-07
4.03999e-06
1.09568e-07
4.22685e-06
9.76435e-08
4.3996e-06
8.76701e-08
4.55988e-06
7.9246e-08
4.70909e-06
7.20682e-08
4.84843e-06
6.59039e-08
4.97894e-06
6.0573e-08
5.10152e-06
5.59337e-08
5.21697e-06
5.18738e-08
5.32599e-06
4.83035e-08
5.42917e-06
4.51501e-08
5.52708e-06
4.23544e-08
5.62019e-06
3.98678e-08
5.70894e-06
3.76498e-08
5.79372e-06
3.56669e-08
5.87488e-06
3.38905e-08
5.95274e-06
3.22965e-08
6.02759e-06
3.08639e-08
6.09969e-06
2.95748e-08
6.16928e-06
2.8413e-08
6.23657e-06
2.73642e-08
6.30175e-06
2.64156e-08
6.36502e-06
2.55551e-08
6.42651e-06
2.47714e-08
6.48638e-06
2.40542e-08
6.54474e-06
2.3393e-08
6.60171e-06
2.27784e-08
6.65736e-06
2.22003e-08
6.71177e-06
2.16504e-08
6.765e-06
2.11178e-08
2.05962e-08
2.09274e-06
3.54799e-06
4.46979e-06
5.15654e-06
5.69075e-06
6.11012e-06
6.44454e-06
6.71696e-06
6.94327e-06
7.13433e-06
7.29784e-06
7.43947e-06
7.56345e-06
7.67302e-06
7.77066e-06
7.85833e-06
7.93758e-06
8.00965e-06
8.07555e-06
8.13612e-06
8.19206e-06
8.24393e-06
8.29223e-06
8.33738e-06
8.37974e-06
8.41961e-06
8.45726e-06
8.49292e-06
8.52681e-06
8.55911e-06
8.58997e-06
8.61955e-06
8.64796e-06
8.67533e-06
8.70174e-06
8.7273e-06
8.75207e-06
8.77612e-06
8.79952e-06
8.82229e-06
8.84449e-06
8.86614e-06
8.88726e-06
)
;

boundaryField
{
    movingWall
    {