/*--------------------------------*- C++ -*----------------------------------*\
  =========                 |
  \\      /  F ield         | OpenFOAM: The Open Source CFD Toolbox
   \\    /   O peration     | Website:  https://openfoam.org
    \\  /    A nd           | Version:  9
     \\/     M anipulation  |
\*---------------------------------------------------------------------------*/
FoamFile
{
    format      ascii;
    class       volScalarField;
    location    "3";
    object      p;
}
// * * * * * * * * * * * * * * * * * * * * * * * * * * * * * * * * * * * * * //

dimensions      [0 2 -2 0 0 0 0];

internalField   nonuniform List<scalar> 
1240
(
-0.074336
-0.0741813
-0.0739236
-0.0735637
-0.0731018
-0.0770363
-0.07689
-0.0766421
-0.0762933
-0.075844
-0.0752946
-0.0539494
-0.0514661
-0.0488245
-0.0460298
-0.0430941
-0.0400394
-0.0368991
-0.0337198
-0.030561
-0.0274935
-0.0245952
-0.0219448
-0.0196129
-0.0176533
-0.0160954
-0.0149397
-0.0141587
-0.0137016
-0.0135037
-0.013496
-0.0136138
-0.0138025
-0.0140195
-0.0142339
-0.0144241
-0.0145803
-0.014706
-0.0796158
-0.0794768
-0.0792372
-0.0788978
-0.078459
-0.0779212
-0.0772848
-0.0765495
-0.0757153
-0.0747812
-0.0737463
-0.0726087
-0.0713662
-0.0700155
-0.0685528
-0.066973
-0.0652703
-0.0634379
-0.0614681
-0.0593529
-0.0570846
-0.0546561
-0.052063
-0.0493047
-0.0463868
-0.0433235
-0.0401402
-0.0368759
-0.0335842
-0.0303334
-0.0272035
-0.0242808
-0.0216496
-0.0193818
-0.0175269
-0.0161045
-0.0151012
-0.0144739
-0.014158
-0.0140784
-0.0141611
-0.0143407
-0.0145652
-0.0147959
-0.0150056
-0.015182
-0.0153295
-0.0820825
-0.0819498
-0.0817173
-0.0813857
-0.0809556
-0.0804275
-0.0798018
-0.0790786
-0.0782578
-0.0773391
-0.0763218
-0.0752045
-0.0739855
-0.0726621
-0.0712309
-0.0696875
-0.0680263
-0.066241
-0.0643237
-0.0622658
-0.0600584
-0.0576924
-0.05516
-0.0524561
-0.0495804
-0.0465396
-0.0433507
-0.0400439
-0.0366646
-0.0332754
-0.0299543
-0.0267915
-0.023881
-0.0213112
-0.0191519
-0.0174442
-0.0161934
-0.0153687
-0.0149097
-0.0147384
-0.0147719
-0.0149339
-0.0151615
-0.0154071
-0.0156365
-0.0158344
-0.0160059
-0.0844427
-0.0843156
-0.0840894
-0.0837645
-0.0833417
-0.0828215
-0.0822045
-0.0814909
-0.080681
-0.0797746
-0.0787715
-0.0776707
-0.076471
-0.0751703
-0.0737658
-0.0722539
-0.0706296
-0.068887
-0.0670186
-0.065016
-0.0628695
-0.0605688
-0.058104
-0.0554664
-0.0526506
-0.0496567
-0.0464936
-0.043182
-0.0397581
-0.0362758
-0.032808
-0.0294438
-0.0262836
-0.0234281
-0.0209667
-0.0189629
-0.0174441
-0.0163966
-0.0157694
-0.0154847
-0.0154529
-0.015587
-0.0158123
-0.0160706
-0.0163197
-0.0165402
-0.0167378
-0.0867014
-0.0865796
-0.0863588
-0.0860397
-0.0856231
-0.0851095
-0.0844995
-0.0837937
-0.0829924
-0.0820958
-0.0811039
-0.0800163
-0.0788321
-0.0775499
-0.0761676
-0.0746823
-0.0730897
-0.0713847
-0.0695605
-0.0676091
-0.0655208
-0.0632849
-0.0608901
-0.0583252
-0.0555808
-0.0526516
-0.0495389
-0.0462546
-0.0428245
-0.0392926
-0.0357233
-0.0322011
-0.0288276
-0.0257124
-0.022961
-0.020659
-0.0188581
-0.0175661
-0.0167463
-0.0163258
-0.0162112
-0.0163054
-0.0165215
-0.0167895
-0.0170576
-0.0173016
-0.0175273
-0.0888801
-0.0888624
-0.0887453
-0.0885294
-0.0882155
-0.0878042
-0.0872961
-0.086692
-0.0859925
-0.0851981
-0.0843092
-0.0833261
-0.0822487
-0.0810768
-0.0798095
-0.0784452
-0.0769818
-0.0754159
-0.0737432
-0.0719579
-0.0700524
-0.0680179
-0.0658437
-0.0635178
-0.0610277
-0.0583611
-0.0555082
-0.0524642
-0.0492325
-0.0458291
-0.0422869
-0.0386599
-0.0350246
-0.0314794
-0.0281379
-0.0251179
-0.0225251
-0.0204358
-0.0188826
-0.0178481
-0.0172695
-0.0170533
-0.0170941
-0.0172928
-0.0175665
-0.0178526
-0.0181206
-0.0183763
-0.0909412
-0.0909278
-0.0908152
-0.090604
-0.0902947
-0.089888
-0.0893847
-0.0887856
-0.0880912
-0.0873023
-0.0864195
-0.0854433
-0.084374
-0.0832117
-0.081956
-0.0806061
-0.0791604
-0.0776166
-0.0759711
-0.0742191
-0.0723542
-0.0703681
-0.0682508
-0.0659904
-0.0635737
-0.0609869
-0.0582168
-0.0552536
-0.0520935
-0.0487432
-0.0452248
-0.0415803
-0.0378759
-0.0342029
-0.0306742
-0.0274151
-0.0245478
-0.0221722
-0.0203476
-0.01908
-0.0183222
-0.017985
-0.0179578
-0.0181297
-0.0184043
-0.0187065
-0.0189987
-0.0192862
-0.0923357
-0.092627
-0.0928177
-0.0929083
-0.0928992
-0.0927908
-0.0925838
-0.0922788
-0.0918763
-0.0913773
-0.0907823
-0.0900923
-0.0893079
-0.08843
-0.0874592
-0.0863963
-0.0852414
-0.0839949
-0.0826564
-0.081225
-0.0796991
-0.0780761
-0.0763523
-0.0745222
-0.0725787
-0.0705127
-0.0683129
-0.0659662
-0.0634578
-0.0607727
-0.0578971
-0.0548215
-0.0515445
-0.0480777
-0.0444511
-0.0407188
-0.036962
-0.0332884
-0.0298258
-0.0267084
-0.0240572
-0.0219581
-0.0204442
-0.0194884
-0.0190114
-0.0189006
-0.0190351
-0.0193046
-0.0196206
-0.0199369
-0.0202576
-0.0941975
-0.0944926
-0.0946873
-0.0947819
-0.0947768
-0.0946725
-0.0944695
-0.0941684
-0.0937699
-0.0932746
-0.0926834
-0.0919971
-0.0912166
-0.0903427
-0.0893764
-0.0883184
-0.0871695
-0.0859301
-0.0846005
-0.0831805
-0.081669
-0.0800646
-0.0783642
-0.0765637
-0.0746571
-0.0726365
-0.0704915
-0.0682096
-0.0657761
-0.0631748
-0.0603894
-0.0574061
-0.0542165
-0.0508229
-0.0472439
-0.0435205
-0.0397217
-0.0359464
-0.03232
-0.0289837
-0.0260756
-0.023707
-0.0219392
-0.0207703
-0.0201357
-0.0199256
-0.0200113
-0.020269
-0.0205956
-0.0209353
-0.0212906
-0.0959658
-0.0962647
-0.0964632
-0.0965618
-0.0965606
-0.0964602
-0.096261
-0.0959636
-0.0955687
-0.0950769
-0.0944892
-0.0938062
-0.093029
-0.0921586
-0.091196
-0.0901421
-0.0889979
-0.0877642
-0.0864417
-0.0850307
-0.0835309
-0.0819414
-0.0802605
-0.0784849
-0.0766098
-0.0746287
-0.0725325
-0.0703096
-0.0679458
-0.0654248
-0.062729
-0.0598413
-0.0567479
-0.0534433
-0.0499353
-0.0462523
-0.0424498
-0.0386149
-0.0348665
-0.0313474
-0.0282081
-0.0255822
-0.02356
-0.0221671
-0.0213594
-0.0210346
-0.0210595
-0.0212978
-0.0216313
-0.0219934
-0.0223842
-0.0976403
-0.0979428
-0.0981451
-0.0982473
-0.0982499
-0.0981532
-0.0979576
-0.0976638
-0.0972722
-0.0967837
-0.0961991
-0.0955192
-0.0947451
-0.0938778
-0.0929183
-0.0918679
-0.0907276
-0.0894986
-0.0881819
-0.0867781
-0.0852877
-0.0837105
-0.0820455
-0.0802906
-0.0784424
-0.0764954
-0.0744419
-0.0722718
-0.0699719
-0.0675262
-0.0649168
-0.0621244
-0.0591317
-0.0559265
-0.0525073
-0.0488905
-0.0451177
-0.0412626
-0.0374337
-0.0337709
-0.0304316
-0.0275679
-0.0252972
-0.023675
-0.0226817
-0.0222279
-0.0221799
-0.0223906
-0.0227266
-0.0231095
-0.0235364
-0.09922
-0.099526
-0.0997319
-0.0998377
-0.0998438
-0.0997506
-0.0995584
-0.0992678
-0.0988795
-0.0983941
-0.0978124
-0.0971355
-0.0963642
-0.0954996
-0.0945431
-0.0934957
-0.0923588
-0.0911338
-0.0898218
-0.088424
-0.0869412
-0.0853741
-0.0837222
-0.0819847
-0.0801591
-0.0782412
-0.076225
-0.0741016
-0.0718593
-0.0694831
-0.0669552
-0.0642557
-0.0613644
-0.0582643
-0.0549462
-0.0514156
-0.0477007
-0.0438607
-0.0399913
-0.0362249
-0.0327208
-0.0296446
-0.0271379
-0.0252868
-0.0240992
-0.023504
-0.0233713
-0.0235459
-0.0238795
-0.0242812
-0.0247444
-0.100704
-0.101013
-0.101223
-0.101332
-0.101341
-0.101251
-0.101062
-0.100775
-0.100389
-0.0999069
-0.099328
-0.0986538
-0.0978852
-0.0970233
-0.0960694
-0.0950248
-0.093891
-0.0926694
-0.0913615
-0.0899687
-0.0884924
-0.0869336
-0.0852927
-0.0835697
-0.0817631
-0.0798702
-0.0778862
-0.0758038
-0.0736129
-0.0712998
-0.0688477
-0.0662365
-0.0634448
-0.060452
-0.0572426
-0.0538128
-0.0501784
-0.046384
-0.0425108
-0.0386803
-0.0350488
-0.0317901
-0.0290661
-0.0269919
-0.0256059
-0.0248591
-0.0246309
-0.0247606
-0.0250865
-0.0255047
-0.0260038
-0.102091
-0.102404
-0.102616
-0.102728
-0.102741
-0.102654
-0.102468
-0.102183
-0.101801
-0.101321
-0.100745
-0.100073
-0.0993069
-0.0984475
-0.0974962
-0.0964542
-0.0953232
-0.0941047
-0.0928004
-0.0914121
-0.0899412
-0.0883895
-0.0867579
-0.085047
-0.0832566
-0.081385
-0.0794287
-0.0773822
-0.0752368
-0.0729806
-0.070598
-0.0680696
-0.0653736
-0.062487
-0.05939
-0.0560708
-0.0525343
-0.0488108
-0.0449666
-0.0411095
-0.0373885
-0.0339803
-0.0310626
-0.028777
-0.0271929
-0.0262876
-0.0259541
-0.0260307
-0.0263432
-0.0267749
-0.0273094
-0.103381
-0.103696
-0.103911
-0.104027
-0.104042
-0.103958
-0.103774
-0.103492
-0.103112
-0.102635
-0.102061
-0.101392
-0.100628
-0.0997711
-0.0988221
-0.0977826
-0.0966542
-0.0954386
-0.0941376
-0.0927532
-0.0912872
-0.0897415
-0.0881178
-0.0864174
-0.0846407
-0.0827873
-0.080855
-0.0788397
-0.0767344
-0.0745291
-0.0722095
-0.0697578
-0.0671522
-0.0643689
-0.0613847
-0.0581818
-0.0547555
-0.0511233
-0.047336
-0.0434866
-0.039713
-0.0361903
-0.0331063
-0.0306259
-0.0288488
-0.0277814
-0.0273348
-0.0273502
-0.0276437
-0.0280858
-0.0286545
-0.104571
-0.104889
-0.105107
-0.105225
-0.105243
-0.105161
-0.10498
-0.104701
-0.104323
-0.103848
-0.103276
-0.102609
-0.101847
-0.100992
-0.100046
-0.0990086
-0.0978826
-0.0966697
-0.0953718
-0.0939909
-0.0925292
-0.0909889
-0.0893721
-0.0876806
-0.0859157
-0.084078
-0.0821664
-0.0801782
-0.0781083
-0.0759481
-0.0736855
-0.071304
-0.0687829
-0.0660982
-0.0632248
-0.0601403
-0.0568322
-0.0533066
-0.0495995
-0.0457881
-0.041997
-0.0383947
-0.0351747
-0.0325201
-0.0305597
-0.0293301
-0.0287647
-0.0287119
-0.0289808
-0.0294299
-0.0300312
-0.105662
-0.105982
-0.106203
-0.106323
-0.106343
-0.106263
-0.106085
-0.105807
-0.105431
-0.104958
-0.104388
-0.103723
-0.102963
-0.102111
-0.101166
-0.100131
-0.099007
-0.0977966
-0.0965014
-0.0951237
-0.0936659
-0.0921304
-0.0905196
-0.088836
-0.0870814
-0.0852571
-0.0833635
-0.081399
-0.07936
-0.07724
-0.0750284
-0.0727108
-0.0702678
-0.0676761
-0.0649096
-0.0619431
-0.0587575
-0.0553492
-0.0517407
-0.0479934
-0.0442167
-0.040569
-0.0372444
-0.0344397
-0.0323096
-0.0309215
-0.0302341
-0.0301072
-0.030346
-0.0307985
-0.0314305
-0.106652
-0.106974
-0.107197
-0.107319
-0.107341
-0.107264
-0.107087
-0.106811
-0.106437
-0.105965
-0.105397
-0.104733
-0.103975
-0.103124
-0.102181
-0.101148
-0.100026
-0.0988177
-0.097525
-0.0961502
-0.0946959
-0.0931646
-0.0915592
-0.0898824
-0.0881367
-0.0863243
-0.0844462
-0.0825024
-0.0804906
-0.078406
-0.0762401
-0.0739802
-0.0716089
-0.069104
-0.0664394
-0.063588
-0.0605262
-0.0572421
-0.0537462
-0.0500845
-0.0463504
-0.0426896
-0.0392921
-0.0363637
-0.0340809
-0.0325414
-0.0317312
-0.0315257
-0.0317296
-0.0321819
-0.0328423
-0.10754
-0.107865
-0.108089
-0.108213
-0.108237
-0.108161
-0.107986
-0.107711
-0.107338
-0.106868
-0.106301
-0.105639
-0.104882
-0.104032
-0.10309
-0.102058
-0.100938
-0.0997318
-0.0984412
-0.0970689
-0.0956175
-0.0940899
-0.0924892
-0.0908184
-0.0890805
-0.0872784
-0.085414
-0.0834882
-0.0815003
-0.079447
-0.0773217
-0.0751139
-0.072808
-0.0703834
-0.0678148
-0.0650742
-0.062135
-0.0589785
-0.0556049
-0.052046
-0.0483788
-0.0447345
-0.0412951
-0.0382703
-0.0358547
-0.034174
-0.033243
-0.0329559
-0.0331207
-0.0335692
-0.0342554
-0.108326
-0.108653
-0.108879
-0.109004
-0.10903
-0.108955
-0.108781
-0.108507
-0.108136
-0.107666
-0.1071
-0.106439
-0.105682
-0.104833
-0.103892
-0.102862
-0.101743
-0.100537
-0.0992485
-0.0978781
-0.0964293
-0.0949048
-0.0933081
-0.0916424
-0.0899114
-0.0881181
-0.0862655
-0.0843555
-0.0823885
-0.0803629
-0.0782738
-0.0761127
-0.0738661
-0.0715153
-0.0690363
-0.0664013
-0.0635814
-0.0605533
-0.0573082
-0.0538651
-0.0502851
-0.0466836
-0.0432315
-0.0401382
-0.0376115
-0.0358025
-0.0347551
-0.0343852
-0.0345073
-0.0349486
-0.0356578
-0.109009
-0.109338
-0.109565
-0.109692
-0.109719
-0.109645
-0.109472
-0.109199
-0.108828
-0.108359
-0.107793
-0.107132
-0.106376
-0.105527
-0.104587
-0.103556
-0.102438
-0.101234
-0.0999456
-0.0985767
-0.0971296
-0.0956076
-0.0940142
-0.0923528
-0.0906275
-0.0888419
-0.0869996
-0.0851033
-0.0831546
-0.0811533
-0.0790963
-0.0769769
-0.0747839
-0.0725006
-0.0701047
-0.0675691
-0.0648642
-0.0619628
-0.0588493
-0.055531
-0.0520544
-0.0485185
-0.0450808
-0.0419462
-0.0393313
-0.0374091
-0.0362521
-0.0357997
-0.0358765
-0.0363076
-0.0370368
-0.109589
-0.109919
-0.110148
-0.110277
-0.110304
-0.110231
-0.110058
-0.109786
-0.109415
-0.108946
-0.10838
-0.107719
-0.106963
-0.106113
-0.105173
-0.104142
-0.103023
-0.101819
-0.100531
-0.0991632
-0.0977172
-0.0961969
-0.0946058
-0.0929479
-0.0912272
-0.0894481
-0.0876144
-0.0857299
-0.0837972
-0.0818172
-0.0797886
-0.0777065
-0.0755617
-0.0733398
-0.0710205
-0.0685778
-0.0659822
-0.0632043
-0.0602226
-0.0570352
-0.0536745
-0.0502232
-0.0468242
-0.0436743
-0.0409944
-0.0389758
-0.0377178
-0.037185
-0.037215
-0.0376329
-0.0383791
-0.110066
-0.110397
-0.110628
-0.110757
-0.110785
-0.110713
-0.11054
-0.110268
-0.109897
-0.109428
-0.108861
-0.108199
-0.107442
-0.106591
-0.105649
-0.104618
-0.103498
-0.102293
-0.101005
-0.0996366
-0.0981909
-0.0966713
-0.0950817
-0.0934261
-0.0917089
-0.0899348
-0.0881084
-0.0862339
-0.0843149
-0.0823535
-0.0803498
-0.0783007
-0.0761992
-0.0740329
-0.0717837
-0.0694273
-0.0669348
-0.0642757
-0.0614243
-0.0583705
-0.0551346
-0.0517836
-0.0484445
-0.0453035
-0.0425816
-0.0404843
-0.0391359
-0.0385262
-0.0385086
-0.038911
-0.0396711
-0.110439
-0.110772
-0.111003
-0.111134
-0.111163
-0.111091
-0.110918
-0.110645
-0.110273
-0.109803
-0.109235
-0.108571
-0.107813
-0.106961
-0.106017
-0.104984
-0.103862
-0.102655
-0.101366
-0.0999961
-0.0985495
-0.0970296
-0.0954402
-0.0937858
-0.0920709
-0.0903005
-0.0884797
-0.0866134
-0.0847059
-0.0827605
-0.0807786
-0.0787587
-0.0766957
-0.0745795
-0.0723942
-0.0701174
-0.0677214
-0.0651755
-0.0624509
-0.0595313
-0.056426
-0.0531874
-0.0499263
-0.0468162
-0.0440745
-0.0419168
-0.0404895
-0.039808
-0.0397431
-0.0401281
-0.0408991
-0.110708
-0.111043
-0.111275
-0.111407
-0.111436
-0.111364
-0.111191
-0.110918
-0.110544
-0.110073
-0.109503
-0.108837
-0.108076
-0.107222
-0.106275
-0.105239
-0.104115
-0.102905
-0.101613
-0.100241
-0.0987923
-0.0972708
-0.0956804
-0.0940258
-0.0923117
-0.0905436
-0.0887268
-0.0868668
-0.0849687
-0.0830367
-0.0810735
-0.0790791
-0.0770503
-0.0749791
-0.0728516
-0.0706478
-0.0683416
-0.0659025
-0.0633002
-0.0605131
-0.0575414
-0.0544241
-0.051256
-0.0481962
-0.0454556
-0.0432558
-0.0417623
-0.041015
-0.040904
-0.0412703
-0.0420494
)
;

boundaryField
{
    movingWall
    {
        type            zeroGradient;
    }
    fixedWalls
    {
        type            zeroGradient;
    }
    frontAndBack
    {
        type            empty;
    }
    procBoundary6to1
    {
        type            processor;
        value           nonuniform List<scalar> 
26
(
-0.0715063
-0.0713415
-0.0710722
-0.070699
-0.0702221
-0.0743872
-0.0770803
-0.0796536
-0.0821146
-0.0844697
-0.0867237
-0.0867237
-0.0887979
-0.0903804
-0.090668
-0.0908548
-0.0908548
-0.0919433
-0.0938017
-0.0955665
-0.0972374
-0.0988137
-0.100294
-0.101679
-0.102965
-0.104153
)
;
    }
    procBoundary6to3
    {
        type            processor;
        value           nonuniform List<scalar> 9(-0.105241 -0.106229 -0.107115 -0.107899 -0.10858 -0.109159 -0.109634 -0.110005 -0.110272);
    }
    procBoundary6to4
    {
        type            processor;
        value           nonuniform List<scalar> 
30
(
-0.097394
-0.0958012
-0.0941448
-0.0924301
-0.0906625
-0.0888479
-0.0869923
-0.0851014
-0.0831804
-0.081233
-0.0792607
-0.0772619
-0.0752306
-0.0731553
-0.0710181
-0.0687948
-0.0664558
-0.06397
-0.0613122
-0.0584748
-0.0554848
-0.0524216
-0.049429
-0.0467088
-0.0444848
-0.0429381
-0.0421322
-0.0419773
-0.0423238
-0.0431084
)
;
    }
    procBoundary6to5
    {
        type            processor;
        value           nonuniform List<scalar> 
21
(
-0.110874
-0.11121
-0.111444
-0.111576
-0.111606
-0.111533
-0.11136
-0.111085
-0.110711
-0.110237
-0.109665
-0.108996
-0.108232
-0.107374
-0.106424
-0.105384
-0.104256
-0.103043
-0.101746
-0.100371
-0.0989186
)
;
    }
    procBoundary6to7
    {
        type            processor;
        value           nonuniform List<scalar> 
45
(
-0.0725382
-0.0725382
-0.0506603
-0.0481352
-0.0454639
-0.0426574
-0.039735
-0.0367259
-0.0336707
-0.0306215
-0.0276406
-0.0247979
-0.0221652
-0.01981
-0.0177869
-0.0161314
-0.0148543
-0.013941
-0.013354
-0.0130396
-0.0129362
-0.0129824
-0.0131234
-0.0133141
-0.0135205
-0.0137179
-0.0138892
-0.0140267
-0.0141327
-0.074645
-0.074645
-0.073895
-0.0730441
-0.0720913
-0.0710349
-0.0698729
-0.0686025
-0.0672201
-0.0657212
-0.0641008
-0.0623527
-0.0604703
-0.0584467
-0.056275
-0.056275
)
;
    }
}


// ************************************************************************* //
