/*--------------------------------*- C++ -*----------------------------------*\
  =========                 |
  \\      /  F ield         | OpenFOAM: The Open Source CFD Toolbox
   \\    /   O peration     | Website:  https://openfoam.org
    \\  /    A nd           | Version:  9
     \\/     M anipulation  |
\*---------------------------------------------------------------------------*/
FoamFile
{
    format      ascii;
    class       surfaceScalarField;
    location    "3";
    object      phi;
}
// * * * * * * * * * * * * * * * * * * * * * * * * * * * * * * * * * * * * * //

dimensions      [0 3 -1 0 0 0 0];

internalField   nonuniform List<scalar> 
2402
(
-2.60514e-06
-2.64286e-07
-2.61095e-06
-3.71009e-07
-2.6173e-06
-4.78071e-07
-2.62426e-06
-5.85544e-07
-6.93513e-07
-2.49795e-06
-2.58896e-07
-2.50367e-06
-3.65289e-07
-2.50977e-06
-4.71969e-07
-2.51633e-06
-5.7899e-07
-2.52342e-06
-6.86418e-07
-7.94331e-07
-2.81145e-06
-2.60411e-06
-2.83304e-06
-2.74578e-06
-2.84827e-06
-2.88725e-06
-2.85402e-06
-3.02574e-06
-2.84667e-06
-3.15738e-06
-2.82224e-06
-3.27717e-06
-2.77662e-06
-3.37894e-06
-2.70596e-06
-3.45548e-06
-2.60702e-06
-3.4989e-06
-2.47777e-06
-3.50118e-06
-2.31784e-06
-3.45493e-06
-2.12899e-06
-3.35439e-06
-1.91539e-06
-3.19653e-06
-1.68353e-06
-2.98197e-06
-1.44187e-06
-2.71571e-06
-1.19997e-06
-2.40716e-06
-9.67461e-07
-2.06955e-06
-7.52926e-07
-1.71851e-06
-5.62969e-07
-1.37036e-06
-4.01724e-07
-1.04027e-06
-2.70808e-07
-7.40962e-07
-1.69643e-07
-4.82105e-07
-9.59738e-08
-2.70405e-07
-4.64138e-08
-1.10211e-07
-1.68975e-08
-4.35908e-09
-2.98578e-09
4.49868e-08
3.55705e-08
-2.39496e-06
-2.53362e-07
-2.40069e-06
-3.59557e-07
-2.40666e-06
-4.65998e-07
-2.41293e-06
-5.72723e-07
-2.41957e-06
-6.7978e-07
-2.42667e-06
-7.87227e-07
-2.43436e-06
-8.95136e-07
-2.44277e-06
-1.0036e-06
-2.45208e-06
-1.11275e-06
-2.46247e-06
-1.22274e-06
-2.47416e-06
-1.33377e-06
-2.48737e-06
-1.44609e-06
-2.50236e-06
-1.55999e-06
-2.51933e-06
-1.67585e-06
-2.5385e-06
-1.79406e-06
-2.55997e-06
-1.91506e-06
-2.58378e-06
-2.03933e-06
-2.60975e-06
-2.16727e-06
-2.6375e-06
-2.29922e-06
-2.66631e-06
-2.43532e-06
-2.69503e-06
-2.57539e-06
-2.72205e-06
-2.71876e-06
-2.74516e-06
-2.86415e-06
-2.76153e-06
-3.00936e-06
-2.76775e-06
-3.15116e-06
-2.75985e-06
-3.28508e-06
-2.73351e-06
-3.40528e-06
-2.68434e-06
-3.50464e-06
-2.60831e-06
-3.57494e-06
-2.50221e-06
-3.60728e-06
-2.36429e-06
-3.59285e-06
-2.19479e-06
-3.52389e-06
-1.99642e-06
-3.3949e-06
-1.7745e-06
-3.20388e-06
-1.53685e-06
-2.95336e-06
-1.29308e-06
-2.65094e-06
-1.05356e-06
-2.30907e-06
-8.28175e-07
-1.94389e-06
-6.25149e-07
-1.57339e-06
-4.50205e-07
-1.21522e-06
-3.06287e-07
-8.84881e-07
-1.93745e-07
-5.94646e-07
-1.10846e-07
-3.53304e-07
-5.43829e-08
-1.66674e-07
-2.02303e-08
-3.85117e-08
-3.74975e-09
2.85062e-08
3.18208e-08
-2.29558e-06
-2.47604e-07
-2.30142e-06
-3.53715e-07
-2.30737e-06
-4.60043e-07
-2.31348e-06
-5.66613e-07
-2.31981e-06
-6.73454e-07
-2.32643e-06
-7.80606e-07
-2.33345e-06
-8.88119e-07
-2.34099e-06
-9.96065e-07
-2.3492e-06
-1.10454e-06
-2.35827e-06
-1.21367e-06
-2.36841e-06
-1.32363e-06
-2.37985e-06
-1.43464e-06
-2.39286e-06
-1.54698e-06
-2.4077e-06
-1.661e-06
-2.42466e-06
-1.7771e-06
-2.44395e-06
-1.89577e-06
-2.46576e-06
-2.01752e-06
-2.49012e-06
-2.14291e-06
-2.51691e-06
-2.27244e-06
-2.54571e-06
-2.40652e-06
-2.57577e-06
-2.54533e-06
-2.60585e-06
-2.68868e-06
-2.63418e-06
-2.83582e-06
-2.65833e-06
-2.98521e-06
-2.6752e-06
-3.1343e-06
-2.68101e-06
-3.27927e-06
-2.67143e-06
-3.41486e-06
-2.6418e-06
-3.53427e-06
-2.58747e-06
-3.62926e-06
-2.50431e-06
-3.69044e-06
-2.38928e-06
-3.70788e-06
-2.24111e-06
-3.67206e-06
-2.0609e-06
-3.57511e-06
-1.85255e-06
-3.41224e-06
-1.6228e-06
-3.18311e-06
-1.38085e-06
-2.89289e-06
-1.13743e-06
-2.55249e-06
-9.03486e-07
-2.17784e-06
-6.88781e-07
-1.7881e-06
-5.00738e-07
-1.40326e-06
-3.43833e-07
-1.04179e-06
-2.19579e-07
-7.189e-07
-1.26965e-07
-4.45919e-07
-6.31081e-08
-2.30531e-07
-2.3918e-08
-7.77019e-08
-4.60724e-09
9.19551e-09
2.72136e-08
-2.19913e-06
-2.41557e-07
-2.20517e-06
-3.47678e-07
-2.21121e-06
-4.53999e-07
-2.21729e-06
-5.60531e-07
-2.22346e-06
-6.67291e-07
-2.22976e-06
-7.74297e-07
-2.2363e-06
-8.81583e-07
-2.24317e-06
-9.89195e-07
-2.25051e-06
-1.0972e-06
-2.25847e-06
-1.20571e-06
-2.26726e-06
-1.31484e-06
-2.2771e-06
-1.4248e-06
-2.28825e-06
-1.53583e-06
-2.30102e-06
-1.64824e-06
-2.31569e-06
-1.76243e-06
-2.33259e-06
-1.87887e-06
-2.35199e-06
-1.99812e-06
-2.3741e-06
-2.1208e-06
-2.399e-06
-2.24754e-06
-2.42655e-06
-2.37897e-06
-2.45634e-06
-2.51555e-06
-2.48752e-06
-2.6575e-06
-2.51876e-06
-2.80458e-06
-2.54806e-06
-2.9559e-06
-2.57275e-06
-3.10961e-06
-2.58938e-06
-3.26264e-06
-2.5938e-06
-3.41044e-06
-2.58127e-06
-3.5468e-06
-2.5468e-06
-3.66373e-06
-2.48553e-06
-3.75171e-06
-2.39335e-06
-3.80006e-06
-2.26757e-06
-3.79784e-06
-2.10768e-06
-3.735e-06
-1.91592e-06
-3.60399e-06
-1.69766e-06
-3.40137e-06
-1.46124e-06
-3.12931e-06
-1.21728e-06
-2.79644e-06
-9.77448e-07
-2.41767e-06
-7.52871e-07
-2.01267e-06
-5.52694e-07
-1.60344e-06
-3.83094e-07
-1.21139e-06
-2.46972e-07
-8.55022e-07
-1.44258e-07
-5.48633e-07
-7.25682e-08
-3.02221e-07
-2.79581e-08
-1.22312e-07
-5.55957e-09
-1.3203e-08
2.1654e-08
-2.10492e-06
-2.35175e-07
-2.11122e-06
-3.41381e-07
-2.11744e-06
-4.47777e-07
-2.12361e-06
-5.54365e-07
-2.12975e-06
-6.61148e-07
-2.13591e-06
-7.68133e-07
-2.14216e-06
-8.75333e-07
-2.14858e-06
-9.82776e-07
-2.15528e-06
-1.09051e-06
-2.16239e-06
-1.19859e-06
-2.17009e-06
-1.30714e-06
-2.17859e-06
-1.41631e-06
-2.18813e-06
-1.52629e-06
-2.199e-06
-1.63737e-06
-2.21153e-06
-1.7499e-06
-2.22605e-06
-1.86435e-06
-2.24292e-06
-1.98125e-06
-2.26246e-06
-2.10126e-06
-2.28491e-06
-2.22509e-06
-2.31037e-06
-2.35351e-06
-2.33871e-06
-2.48721e-06
-2.36945e-06
-2.62675e-06
-2.40167e-06
-2.77236e-06
-2.43386e-06
-2.92371e-06
-2.4638e-06
-3.07967e-06
-2.48847e-06
-3.23797e-06
-2.50403e-06
-3.39488e-06
-2.50591e-06
-3.54492e-06
-2.48898e-06
-3.68067e-06
-2.44791e-06
-3.79278e-06
-2.37775e-06
-3.87022e-06
-2.27457e-06
-3.90102e-06
-2.13629e-06
-3.87328e-06
-1.96346e-06
-3.77683e-06
-1.75979e-06
-3.60503e-06
-1.53241e-06
-3.35669e-06
-1.29136e-06
-3.03749e-06
-1.04859e-06
-2.66044e-06
-8.16321e-07
-2.24494e-06
-6.05345e-07
-1.81441e-06
-4.23638e-07
-1.39309e-06
-2.757e-07
-1.00296e-06
-1.62627e-07
-6.61706e-07
-8.2729e-08
-3.82119e-07
-3.23442e-08
-1.72697e-07
-6.60763e-09
-3.89395e-08
1.50464e-08
-2.00556e-06
-1.22286e-07
-2.0123e-06
-2.28434e-07
-2.01891e-06
-3.34775e-07
-2.02538e-06
-4.41305e-07
-2.03173e-06
-5.48016e-07
-2.03797e-06
-6.54903e-07
-2.04415e-06
-7.61961e-07
-2.05029e-06
-8.69189e-07
-2.05647e-06
-9.76596e-07
-2.06277e-06
-1.08421e-06
-2.0693e-06
-1.19206e-06
-2.0762e-06
-1.30024e-06
-2.08365e-06
-1.40885e-06
-2.09188e-06
-1.51806e-06
-2.10115e-06
-1.6281e-06
-2.11178e-06
-1.73928e-06
-2.12412e-06
-1.85201e-06
-2.13855e-06
-1.96682e-06
-2.15547e-06
-2.08434e-06
-2.17523e-06
-2.20533e-06
-2.19811e-06
-2.33063e-06
-2.22422e-06
-2.4611e-06
-2.2534e-06
-2.59757e-06
-2.28512e-06
-2.74064e-06
-2.31831e-06
-2.89052e-06
-2.35125e-06
-3.04674e-06
-2.38141e-06
-3.20781e-06
-2.40539e-06
-3.3709e-06
-2.41891e-06
-3.5314e-06
-2.41693e-06
-3.68265e-06
-2.3939e-06
-3.8158e-06
-2.34428e-06
-3.91985e-06
-2.26312e-06
-3.98218e-06
-2.14694e-06
-3.98946e-06
-1.99459e-06
-3.92918e-06
-1.80804e-06
-3.79159e-06
-1.59283e-06
-3.5719e-06
-1.35805e-06
-3.27228e-06
-1.11544e-06
-2.90304e-06
-8.77971e-07
-2.48241e-06
-6.57875e-07
-2.03451e-06
-4.64958e-07
-1.58601e-06
-3.05482e-07
-1.16244e-06
-1.81941e-07
-7.85248e-07
-9.35412e-08
-4.70518e-07
-3.70642e-08
-2.29174e-07
-7.75124e-09
-6.82525e-08
7.29511e-09
-1.91359e-06
-1.15012e-07
-1.9207e-06
-2.2132e-07
-1.92765e-06
-3.2783e-07
-1.93442e-06
-4.3453e-07
-1.94103e-06
-5.41409e-07
-1.94748e-06
-6.48454e-07
-1.95379e-06
-7.55651e-07
-1.95999e-06
-8.6299e-07
-1.96612e-06
-9.70466e-07
-1.97224e-06
-1.07808e-06
-1.97844e-06
-1.18586e-06
-1.98483e-06
-1.29385e-06
-1.99155e-06
-1.40213e-06
-1.9988e-06
-1.51081e-06
-2.00681e-06
-1.62009e-06
-2.01588e-06
-1.73021e-06
-2.02633e-06
-1.84155e-06
-2.03856e-06
-1.95458e-06
-2.05301e-06
-2.0699e-06
-2.07009e-06
-2.18825e-06
-2.0902e-06
-2.31051e-06
-2.11366e-06
-2.43765e-06
-2.14055e-06
-2.57068e-06
-2.17068e-06
-2.71051e-06
-2.20342e-06
-2.85779e-06
-2.2375e-06
-3.01265e-06
-2.27093e-06
-3.17438e-06
-2.30082e-06
-3.34101e-06
-2.3233e-06
-3.50891e-06
-2.3336e-06
-3.67236e-06
-2.32618e-06
-3.82322e-06
-2.29513e-06
-3.95089e-06
-2.23478e-06
-4.04253e-06
-2.14043e-06
-4.08381e-06
-2.00936e-06
-4.06025e-06
-1.84173e-06
-3.95921e-06
-1.64136e-06
-3.77227e-06
-1.41595e-06
-3.49768e-06
-1.17663e-06
-3.14236e-06
-9.36645e-07
-2.7224e-06
-7.0941e-07
-2.26174e-06
-5.0648e-07
-1.78894e-06
-3.3599e-07
-1.33293e-06
-2.02034e-07
-9.19204e-07
-1.04937e-07
-5.67614e-07
-4.20991e-08
-2.92012e-07
-8.98869e-09
-1.01363e-07
-1.69358e-09
-1.79871e-06
2.10786e-07
-1.80668e-06
1.04957e-07
-1.8145e-06
-1.0877e-09
-1.82216e-06
-1.07353e-07
-1.82965e-06
-2.13835e-07
-1.83695e-06
-3.20527e-07
-1.84406e-06
-4.27416e-07
-1.85098e-06
-5.34486e-07
-1.85772e-06
-6.4172e-07
-1.86427e-06
-7.49098e-07
-1.87066e-06
-8.56603e-07
-1.87691e-06
-9.64219e-07
-1.88305e-06
-1.07194e-06
-1.88915e-06
-1.17976e-06
-1.89529e-06
-1.28771e-06
-1.90159e-06
-1.39583e-06
-1.90819e-06
-1.50421e-06
-1.91529e-06
-1.61298e-06
-1.92316e-06
-1.72235e-06
-1.93209e-06
-1.83262e-06
-1.94247e-06
-1.9442e-06
-1.95472e-06
-2.05765e-06
-1.96931e-06
-2.17366e-06
-1.98671e-06
-2.29311e-06
-2.00736e-06
-2.417e-06
-2.03156e-06
-2.54647e-06
-2.05941e-06
-2.68266e-06
-2.09062e-06
-2.82658e-06
-2.1244e-06
-2.97887e-06
-2.15926e-06
-3.13952e-06
-2.19285e-06
-3.30742e-06
-2.22182e-06
-3.47994e-06
-2.24179e-06
-3.65239e-06
-2.24742e-06
-3.81759e-06
-2.2327e-06
-3.96561e-06
-2.19145e-06
-4.08378e-06
-2.11803e-06
-4.15723e-06
-2.00831e-06
-4.16997e-06
-1.86074e-06
-4.10678e-06
-1.67728e-06
-3.95573e-06
-1.46398e-06
-3.71098e-06
-1.23093e-06
-3.37542e-06
-9.91206e-07
-2.96213e-06
-7.59046e-07
-2.4939e-06
-5.47577e-07
-2.00041e-06
-3.66843e-07
-1.51366e-06
-2.22708e-07
-1.06334e-06
-1.16831e-07
-6.73491e-07
-4.74214e-08
-3.61422e-07
-1.03163e-08
-1.38468e-07
-1.20099e-08
-1.70637e-06
2.19252e-07
-1.7147e-06
1.1329e-07
-1.72289e-06
7.09605e-09
-1.73091e-06
-9.93318e-08
-1.73876e-06
-2.05988e-07
-1.74642e-06
-3.12862e-07
-1.7539e-06
-4.19941e-07
-1.76118e-06
-5.27207e-07
-1.76826e-06
-6.3464e-07
-1.77514e-06
-7.42219e-07
-1.78182e-06
-8.4992e-07
-1.78832e-06
-9.57722e-07
-1.79465e-06
-1.06561e-06
-1.80085e-06
-1.17356e-06
-1.80698e-06
-1.28159e-06
-1.81311e-06
-1.3897e-06
-1.81937e-06
-1.49795e-06
-1.82591e-06
-1.60644e-06
-1.83295e-06
-1.71532e-06
-1.84075e-06
-1.82482e-06
-1.84966e-06
-1.93529e-06
-1.86009e-06
-2.04722e-06
-1.8725e-06
-2.16125e-06
-1.88741e-06
-2.2782e-06
-1.90533e-06
-2.39908e-06
-1.92672e-06
-2.52508e-06
-1.9519e-06
-2.65749e-06
-1.98089e-06
-2.79758e-06
-2.01331e-06
-2.94645e-06
-2.04814e-06
-3.10468e-06
-2.08359e-06
-3.27198e-06
-2.11686e-06
-3.44668e-06
-2.14406e-06
-3.62518e-06
-2.16022e-06
-3.80142e-06
-2.15944e-06
-3.96639e-06
-2.13527e-06
-4.10796e-06
-2.08137e-06
-4.21112e-06
-1.99247e-06
-4.25887e-06
-1.86541e-06
-4.23385e-06
-1.70029e-06
-4.12085e-06
-1.50137e-06
-3.9099e-06
-1.27732e-06
-3.59947e-06
-1.04062e-06
-3.19883e-06
-8.05894e-07
-2.72863e-06
-5.87597e-07
-2.21871e-06
-3.97623e-07
-1.70363e-06
-2.43732e-07
-1.21723e-06
-1.29117e-07
-7.88105e-07
-5.29952e-08
-4.37544e-07
-1.17281e-08
-1.79735e-07
-2.3738e-08
-1.61404e-06
2.28035e-07
-1.6227e-06
1.21943e-07
-1.63121e-06
1.56066e-08
-1.63956e-06
-9.09741e-08
-1.64776e-06
-1.97792e-07
-1.65578e-06
-3.04837e-07
-1.66363e-06
-4.12094e-07
-1.67129e-06
-5.19546e-07
-1.67876e-06
-6.27174e-07
-1.68602e-06
-7.34953e-07
-1.69308e-06
-8.4286e-07
-1.69994e-06
-9.50869e-07
-1.70659e-06
-1.05895e-06
-1.71306e-06
-1.16709e-06
-1.71937e-06
-1.27527e-06
-1.72558e-06
-1.38349e-06
-1.73177e-06
-1.49176e-06
-1.73806e-06
-1.60015e-06
-1.74461e-06
-1.70876e-06
-1.75166e-06
-1.81776e-06
-1.75951e-06
-1.92745e-06
-1.76852e-06
-2.03821e-06
-1.77914e-06
-2.15063e-06
-1.79189e-06
-2.26545e-06
-1.80733e-06
-2.38364e-06
-1.826e-06
-2.5064e-06
-1.84839e-06
-2.6351e-06
-1.87479e-06
-2.77119e-06
-1.90513e-06
-2.91611e-06
-1.93886e-06
-3.07095e-06
-1.97469e-06
-3.23615e-06
-2.0104e-06
-3.41097e-06
-2.04266e-06
-3.59292e-06
-2.06698e-06
-3.7771e-06
-2.07772e-06
-3.95565e-06
-2.06842e-06
-4.11726e-06
-2.03231e-06
-4.24723e-06
-1.96317e-06
-4.328e-06
-1.85647e-06
-4.34055e-06
-1.71053e-06
-4.26678e-06
-1.52772e-06
-4.09271e-06
-1.31505e-06
-3.81214e-06
-1.08399e-06
-3.4299e-06
-8.49119e-07
-2.96349e-06
-6.25881e-07
-2.44194e-06
-4.27889e-07
-1.90163e-06
-2.64852e-07
-1.38027e-06
-1.41672e-07
-9.11285e-07
-5.87757e-08
-5.20441e-07
-1.32159e-08
-2.25295e-07
-3.69539e-08
-1.52153e-06
2.37083e-07
-1.53046e-06
1.30873e-07
-1.53926e-06
2.44088e-08
-1.54793e-06
-8.23065e-08
-1.55645e-06
-1.89266e-07
-1.56483e-06
-2.96459e-07
-1.57305e-06
-4.03873e-07
-1.58111e-06
-5.11491e-07
-1.58899e-06
-6.19293e-07
-1.59668e-06
-7.27259e-07
-1.60418e-06
-8.35364e-07
-1.61147e-06
-9.43581e-07
-1.61854e-06
-1.05188e-06
-1.6254e-06
-1.16023e-06
-1.63206e-06
-1.26862e-06
-1.63854e-06
-1.37701e-06
-1.64489e-06
-1.48541e-06
-1.6512e-06
-1.59384e-06
-1.65759e-06
-1.70237e-06
-1.66425e-06
-1.81111e-06
-1.67141e-06
-1.92028e-06
-1.67942e-06
-2.03021e-06
-1.68867e-06
-2.14137e-06
-1.69966e-06
-2.25446e-06
-1.71296e-06
-2.37035e-06
-1.72916e-06
-2.4902e-06
-1.74886e-06
-2.6154e-06
-1.77253e-06
-2.74752e-06
-1.8004e-06
-2.88824e-06
-1.83229e-06
-3.03906e-06
-1.86738e-06
-3.20105e-06
-1.90403e-06
-3.37433e-06
-1.93949e-06
-3.55746e-06
-1.9698e-06
-3.74679e-06
-1.98977e-06
-3.93568e-06
-1.99308e-06
-4.11395e-06
-1.97277e-06
-4.26754e-06
-1.92198e-06
-4.37879e-06
-1.83498e-06
-4.42755e-06
-1.70849e-06
-4.39327e-06
-1.54299e-06
-4.25821e-06
-1.34365e-06
-4.01147e-06
-1.1206e-06
-3.65295e-06
-8.87976e-07
-3.19612e-06
-6.61796e-07
-2.66812e-06
-4.57186e-07
-2.10624e-06
-2.85791e-07
-1.55166e-06
-1.54358e-07
-1.04272e-06
-6.47101e-08
-6.10089e-07
-1.47691e-08
-2.75236e-07
-5.1723e-08
-1.42869e-06
2.46349e-07
-1.43786e-06
1.40039e-07
-1.44692e-06
3.34702e-08
-1.45587e-06
-7.33546e-08
-1.46471e-06
-1.80428e-07
-1.47343e-06
-2.87741e-07
-1.48202e-06
-3.95281e-07
-1.49048e-06
-5.03034e-07
-1.49879e-06
-6.10984e-07
-1.50693e-06
-7.19111e-07
-1.51491e-06
-8.27391e-07
-1.52269e-06
-9.358e-07
-1.53026e-06
-1.04431e-06
-1.53761e-06
-1.15288e-06
-1.54474e-06
-1.26149e-06
-1.55164e-06
-1.37011e-06
-1.55835e-06
-1.4787e-06
-1.56491e-06
-1.58728e-06
-1.57141e-06
-1.69587e-06
-1.57798e-06
-1.80453e-06
-1.58483e-06
-1.91343e-06
-1.59222e-06
-2.02281e-06
-1.60052e-06
-2.13308e-06
-1.61018e-06
-2.2448e-06
-1.62174e-06
-2.35879e-06
-1.63582e-06
-2.47612e-06
-1.65307e-06
-2.59815e-06
-1.67409e-06
-2.7265e-06
-1.69934e-06
-2.86299e-06
-1.72895e-06
-3.00945e-06
-1.76254e-06
-3.16747e-06
-1.79895e-06
-3.33791e-06
-1.83606e-06
-3.52035e-06
-1.87049e-06
-3.71235e-06
-1.89756e-06
-3.90862e-06
-1.91128e-06
-4.10023e-06
-1.90471e-06
-4.27411e-06
-1.87057e-06
-4.41293e-06
-1.80222e-06
-4.4959e-06
-1.69496e-06
-4.50053e-06
-1.54743e-06
-4.40574e-06
-1.36293e-06
-4.19597e-06
-1.14998e-06
-3.8659e-06
-9.21844e-07
-3.42426e-06
-6.94762e-07
-2.8952e-06
-4.8507e-07
-2.31593e-06
-3.06265e-07
-1.73047e-06
-1.67024e-07
-1.18196e-06
-7.07384e-08
-7.06374e-07
-1.63748e-08
-3.296e-07
-6.80978e-08
-1.33545e-06
2.55794e-07
-1.34482e-06
1.49408e-07
-1.35411e-06
4.27616e-08
-1.36332e-06
-6.41423e-08
-1.37245e-06
-1.71297e-07
-1.3815e-06
-2.78695e-07
-1.39045e-06
-3.86326e-07
-1.39931e-06
-4.94179e-07
-1.40805e-06
-6.02239e-07
-1.41667e-06
-7.10492e-07
-1.42515e-06
-8.18916e-07
-1.43346e-06
-9.2749e-07
-1.44158e-06
-1.03618e-06
-1.4495e-06
-1.14497e-06
-1.45718e-06
-1.2538e-06
-1.46463e-06
-1.36266e-06
-1.47185e-06
-1.47149e-06
-1.47884e-06
-1.58028e-06
-1.48568e-06
-1.68903e-06
-1.49244e-06
-1.79777e-06
-1.49928e-06
-1.90659e-06
-1.50642e-06
-2.01567e-06
-1.51417e-06
-2.12533e-06
-1.52291e-06
-2.23605e-06
-1.53316e-06
-2.34853e-06
-1.54553e-06
-2.46376e-06
-1.56067e-06
-2.583e-06
-1.57928e-06
-2.70789e-06
-1.60196e-06
-2.84031e-06
-1.62911e-06
-2.98231e-06
-1.66069e-06
-3.13589e-06
-1.69604e-06
-3.30256e-06
-1.73357e-06
-3.48282e-06
-1.77053e-06
-3.67539e-06
-1.80281e-06
-3.87634e-06
-1.82488e-06
-4.07816e-06
-1.82999e-06
-4.26899e-06
-1.81068e-06
-4.43224e-06
-1.75963e-06
-4.54695e-06
-1.67093e-06
-4.58923e-06
-1.54159e-06
-4.53508e-06
-1.37297e-06
-4.36459e-06
-1.17183e-06
-4.06705e-06
-9.50253e-07
-3.64583e-06
-7.24275e-07
-3.12118e-06
-5.11123e-07
-2.52908e-06
-3.25992e-07
-1.9156e-06
-1.79514e-07
-1.32844e-06
-7.67955e-08
-8.09092e-07
-1.80182e-08
-3.88377e-07
-8.61159e-08
-1.24174e-06
2.65383e-07
-1.25128e-06
1.5895e-07
-1.26078e-06
5.22577e-08
-1.27023e-06
-5.46907e-08
-1.27964e-06
-1.6189e-07
-1.289e-06
-2.69335e-07
-1.29831e-06
-3.77017e-07
-1.30756e-06
-4.84928e-07
-1.31674e-06
-5.93058e-07
-1.32584e-06
-7.01396e-07
-1.33483e-06
-8.09925e-07
-1.34369e-06
-9.18626e-07
-1.3524e-06
-1.02747e-06
-1.36093e-06
-1.13644e-06
-1.36925e-06
-1.24549e-06
-1.37733e-06
-1.35457e-06
-1.38517e-06
-1.46366e-06
-1.39275e-06
-1.5727e-06
-1.4001e-06
-1.68168e-06
-1.40728e-06
-1.79059e-06
-1.41439e-06
-1.89948e-06
-1.42159e-06
-2.00847e-06
-1.42914e-06
-2.11779e-06
-1.43737e-06
-2.22782e-06
-1.44674e-06
-2.33916e-06
-1.45782e-06
-2.45268e-06
-1.47125e-06
-2.56957e-06
-1.48777e-06
-2.69137e-06
-1.50809e-06
-2.81999e-06
-1.53278e-06
-2.95762e-06
-1.56212e-06
-3.10655e-06
-1.59584e-06
-3.26883e-06
-1.63289e-06
-3.44577e-06
-1.6711e-06
-3.63719e-06
-1.70696e-06
-3.84048e-06
-1.73551e-06
-4.04962e-06
-1.75032e-06
-4.25418e-06
-1.74396e-06
-4.43861e-06
-1.70867e-06
-4.58224e-06
-1.63758e-06
-4.66032e-06
-1.52621e-06
-4.64645e-06
-1.37409e-06
-4.51671e-06
-1.1861e-06
-4.25504e-06
-9.72892e-07
-3.85904e-06
-7.49928e-07
-3.34414e-06
-5.34971e-07
-2.74404e-06
-3.44697e-07
-2.10587e-06
-1.91669e-07
-1.48146e-06
-8.28125e-08
-9.17949e-07
-1.9683e-08
-4.51506e-07
-1.05799e-07
-1.14755e-06
2.75086e-07
-1.15724e-06
1.68639e-07
-1.16692e-06
6.19368e-08
-1.17659e-06
-4.50185e-08
-1.18626e-06
-1.52223e-07
-1.19592e-06
-2.59673e-07
-1.20557e-06
-3.67363e-07
-1.21521e-06
-4.75289e-07
-1.22483e-06
-5.83444e-07
-1.2344e-06
-6.91821e-07
-1.24392e-06
-8.00409e-07
-1.25335e-06
-9.09194e-07
-1.26267e-06
-1.01815e-06
-1.27185e-06
-1.12726e-06
-1.28084e-06
-1.23649e-06
-1.28963e-06
-1.34579e-06
-1.29817e-06
-1.45512e-06
-1.30645e-06
-1.56442e-06
-1.31446e-06
-1.67367e-06
-1.32223e-06
-1.78282e-06
-1.32983e-06
-1.89189e-06
-1.33737e-06
-2.00093e-06
-1.34504e-06
-2.11012e-06
-1.35312e-06
-2.21973e-06
-1.36201e-06
-2.33027e-06
-1.37222e-06
-2.44247e-06
-1.38438e-06
-2.55741e-06
-1.3992e-06
-2.67655e-06
-1.41746e-06
-2.80173e-06
-1.43986e-06
-2.93522e-06
-1.46691e-06
-3.0795e-06
-1.4987e-06
-3.23705e-06
-1.53462e-06
-3.40985e-06
-1.57308e-06
-3.59873e-06
-1.61119e-06
-3.80237e-06
-1.64456e-06
-4.01625e-06
-1.66725e-06
-4.23149e-06
-1.67199e-06
-4.43386e-06
-1.65083e-06
-4.6034e-06
-1.59615e-06
-4.715e-06
-1.5022e-06
-4.7404e-06
-1.3668e-06
-4.65211e-06
-1.19293e-06
-4.42891e-06
-9.89616e-07
-4.06235e-06
-7.71424e-07
-3.56234e-06
-5.56297e-07
-2.95917e-06
-3.62133e-07
-2.30004e-06
-2.03337e-07
-1.64026e-06
-8.87195e-08
-1.03257e-06
-2.13518e-08
-5.18874e-07
-1.27151e-07
-1.05287e-06
2.8488e-07
-1.06268e-06
1.78455e-07
-1.07253e-06
7.17802e-08
-1.0824e-06
-3.51418e-08
-1.09232e-06
-1.42309e-07
-1.10227e-06
-2.49721e-07
-1.11226e-06
-3.57374e-07
-1.12228e-06
-4.65268e-07
-1.13232e-06
-5.73401e-07
-1.14237e-06
-6.8177e-07
-1.15241e-06
-7.90368e-07
-1.16242e-06
-8.99187e-07
-1.17236e-06
-1.00821e-06
-1.1822e-06
-1.11742e-06
-1.19191e-06
-1.22678e-06
-1.20144e-06
-1.33626e-06
-1.21075e-06
-1.4458e-06
-1.21981e-06
-1.55536e-06
-1.2286e-06
-1.66488e-06
-1.23711e-06
-1.77431e-06
-1.24538e-06
-1.88362e-06
-1.25347e-06
-1.99284e-06
-1.26153e-06
-2.10205e-06
-1.26979e-06
-2.21148e-06
-1.27857e-06
-2.32149e-06
-1.28832e-06
-2.43272e-06
-1.29961e-06
-2.54612e-06
-1.31315e-06
-2.66301e-06
-1.32972e-06
-2.78517e-06
-1.3501e-06
-2.91483e-06
-1.37499e-06
-3.05462e-06
-1.40473e-06
-3.2073e-06
-1.43913e-06
-3.37545e-06
-1.47711e-06
-3.56075e-06
-1.51638e-06
-3.76309e-06
-1.55318e-06
-3.97945e-06
-1.5821e-06
-4.20257e-06
-1.5962e-06
-4.41975e-06
-1.58751e-06
-4.6121e-06
-1.5479e-06
-4.75461e-06
-1.47056e-06
-4.81774e-06
-1.35176e-06
-4.77091e-06
-1.19263e-06
-4.58804e-06
-1.00044e-06
-4.25454e-06
-7.88584e-07
-3.77419e-06
-5.74854e-07
-3.17289e-06
-3.7808e-07
-2.49681e-06
-2.14372e-07
-1.80397e-06
-9.44473e-08
-1.15249e-06
-2.30065e-08
-5.90315e-07
-1.50157e-07
-9.57696e-07
2.94743e-07
-9.67619e-07
1.88378e-07
-9.77611e-07
8.1772e-08
-9.87678e-07
-2.50745e-08
-9.97826e-07
-1.32161e-07
-1.00806e-06
-2.39489e-07
-1.01837e-06
-3.4706e-07
-1.02877e-06
-4.54874e-07
-1.03923e-06
-5.62936e-07
-1.04976e-06
-6.71245e-07
-1.06032e-06
-7.79803e-07
-1.0709e-06
-8.88604e-07
-1.08148e-06
-9.97641e-07
-1.092e-06
-1.1069e-06
-1.10244e-06
-1.21635e-06
-1.11274e-06
-1.32595e-06
-1.12287e-06
-1.43568e-06
-1.13277e-06
-1.54546e-06
-1.14241e-06
-1.65524e-06
-1.15177e-06
-1.76495e-06
-1.16085e-06
-1.87455e-06
-1.16968e-06
-1.98401e-06
-1.17837e-06
-2.09337e-06
-1.18707e-06
-2.20277e-06
-1.19606e-06
-2.3125e-06
-1.20572e-06
-2.42307e-06
-1.21656e-06
-2.53528e-06
-1.22924e-06
-2.65033e-06
-1.24451e-06
-2.76989e-06
-1.26323e-06
-2.89612e-06
-1.28617e-06
-3.03168e-06
-1.31392e-06
-3.17956e-06
-1.34661e-06
-3.34276e-06
-1.38362e-06
-3.52374e-06
-1.42323e-06
-3.72348e-06
-1.4623e-06
-3.94038e-06
-1.49601e-06
-4.16886e-06
-1.51786e-06
-4.3979e-06
-1.52001e-06
-4.60995e-06
-1.49405e-06
-4.78057e-06
-1.43234e-06
-4.87946e-06
-1.32975e-06
-4.87351e-06
-1.18565e-06
-4.73213e-06
-1.00551e-06
-4.43469e-06
-8.01343e-07
-3.97835e-06
-5.90471e-07
-3.38377e-06
-3.9236e-07
-2.69492e-06
-2.24646e-07
-1.97168e-06
-9.99304e-08
-1.27721e-06
-2.4629e-08
-6.65616e-07
-1.74786e-07
-8.62044e-07
3.04656e-07
-8.72059e-07
1.98393e-07
-8.82185e-07
9.18983e-08
-8.92431e-07
-1.48288e-08
-9.02803e-07
-1.2179e-07
-9.13305e-07
-2.28988e-07
-9.23937e-07
-3.36427e-07
-9.34698e-07
-4.44113e-07
-9.45581e-07
-5.52053e-07
-9.56574e-07
-6.60252e-07
-9.67662e-07
-7.68716e-07
-9.78821e-07
-8.77445e-07
-9.90023e-07
-9.86438e-07
-1.00123e-06
-1.09569e-06
-1.01241e-06
-1.20517e-06
-1.02351e-06
-1.31485e-06
-1.03448e-06
-1.42471e-06
-1.04527e-06
-1.53467e-06
-1.05583e-06
-1.64468e-06
-1.06612e-06
-1.75466e-06
-1.07612e-06
-1.86455e-06
-1.08584e-06
-1.97429e-06
-1.09534e-06
-2.08388e-06
-1.10472e-06
-2.19339e-06
-1.1142e-06
-2.30302e-06
-1.1241e-06
-2.41317e-06
-1.13486e-06
-2.52452e-06
-1.14708e-06
-2.63812e-06
-1.16148e-06
-2.75549e-06
-1.1789e-06
-2.87869e-06
-1.2002e-06
-3.01037e-06
-1.22613e-06
-3.15363e-06
-1.25708e-06
-3.31181e-06
-1.29284e-06
-3.48798e-06
-1.33221e-06
-3.68411e-06
-1.37262e-06
-3.89997e-06
-1.4099e-06
-4.13159e-06
-1.43806e-06
-4.36974e-06
-1.44953e-06
-4.59848e-06
-1.4358e-06
-4.7943e-06
-1.38858e-06
-4.92667e-06
-1.30159e-06
-4.9605e-06
-1.17255e-06
-4.86118e-06
-1.0051e-06
-4.60213e-06
-8.09748e-07
-4.17371e-06
-6.03056e-07
-3.59046e-06
-4.04839e-07
-2.89314e-06
-2.34049e-07
-2.14247e-06
-1.05109e-07
-1.40615e-06
-2.62019e-08
-7.44523e-07
-2.00988e-07
-7.65923e-07
3.14605e-07
-7.76016e-07
2.08486e-07
-7.86264e-07
1.02146e-07
-7.96677e-07
-4.41554e-09
-8.07263e-07
-1.11204e-07
-8.18027e-07
-2.18224e-07
-8.2897e-07
-3.25484e-07
-8.40092e-07
-4.32991e-07
-8.51387e-07
-5.40758e-07
-8.62845e-07
-6.48794e-07
-8.74452e-07
-7.57109e-07
-8.86186e-07
-8.65711e-07
-8.9802e-07
-9.74604e-07
-9.09921e-07
-1.08378e-06
-9.21849e-07
-1.19324e-06
-9.33756e-07
-1.30295e-06
-9.4559e-07
-1.41287e-06
-9.57296e-07
-1.52296e-06
-9.68817e-07
-1.63316e-06
-9.80103e-07
-1.74337e-06
-9.91114e-07
-1.85353e-06
-1.00183e-06
-1.96357e-06
-1.01228e-06
-2.07343e-06
-1.02254e-06
-2.18313e-06
-1.03275e-06
-2.2928e-06
-1.04318e-06
-2.40274e-06
-1.0542e-06
-2.5135e-06
-1.06633e-06
-2.62598e-06
-1.08026e-06
-2.74156e-06
-1.09679e-06
-2.86216e-06
-1.11682e-06
-2.99035e-06
-1.14118e-06
-3.12926e-06
-1.1705e-06
-3.28249e-06
-1.20489e-06
-3.45359e-06
-1.24361e-06
-3.6454e-06
-1.28468e-06
-3.8589e-06
-1.32452e-06
-4.09175e-06
-1.35772e-06
-4.33654e-06
-1.3771e-06
-4.5791e-06
-1.3742e-06
-4.7972e-06
-1.34031e-06
-4.96056e-06
-1.26815e-06
-5.03266e-06
-1.15396e-06
-4.97537e-06
-9.99594e-07
-4.7565e-06
-8.1394e-07
-4.35936e-06
-6.12594e-07
-3.7918e-06
-4.1543e-07
-3.0903e-06
-2.42496e-07
-2.31541e-06
-1.09931e-07
-1.53871e-06
-2.77088e-08
-8.26745e-07
-2.28697e-07
-6.69343e-07
3.24572e-07
-6.795e-07
2.18642e-07
-6.89858e-07
1.12505e-07
-7.00429e-07
6.155e-09
-7.1122e-07
-1.00413e-07
-7.22238e-07
-2.07206e-07
-7.33485e-07
-3.14236e-07
-7.44962e-07
-4.21514e-07
-7.56665e-07
-5.29055e-07
-7.68584e-07
-6.36874e-07
-7.80707e-07
-7.44986e-07
-7.93014e-07
-8.53404e-07
-8.05481e-07
-9.62138e-07
-8.18074e-07
-1.07119e-06
-8.30755e-07
-1.18056e-06
-8.43478e-07
-1.29022e-06
-8.56191e-07
-1.40016e-06
-8.68835e-07
-1.51032e-06
-8.8135e-07
-1.62064e-06
-8.93676e-07
-1.73105e-06
-9.05762e-07
-1.84145e-06
-9.17573e-07
-1.95176e-06
-9.29101e-07
-2.0619e-06
-9.40385e-07
-2.17185e-06
-9.5153e-07
-2.28166e-06
-9.62733e-07
-2.39154e-06
-9.74305e-07
-2.50193e-06
-9.86701e-07
-2.61359e-06
-1.00054e-06
-2.72773e-06
-1.01657e-06
-2.84612e-06
-1.0357e-06
-2.97122e-06
-1.05882e-06
-3.10614e-06
-1.08671e-06
-3.2546e-06
-1.11975e-06
-3.42055e-06
-1.15761e-06
-3.60754e-06
-1.19883e-06
-3.81768e-06
-1.24042e-06
-4.05015e-06
-1.27759e-06
-4.29937e-06
-1.30362e-06
-4.55307e-06
-1.31024e-06
-4.79059e-06
-1.28848e-06
-4.98231e-06
-1.23028e-06
-5.09086e-06
-1.13054e-06
-5.07511e-06
-9.89429e-07
-4.89761e-06
-8.14146e-07
-4.53464e-06
-6.1914e-07
-3.98681e-06
-4.24096e-07
-3.28535e-06
-2.49924e-07
-2.48958e-06
-1.14353e-07
-1.67428e-06
-2.91351e-08
-9.11963e-07
-2.57832e-07
-5.7231e-07
3.34544e-07
-5.82518e-07
2.2885e-07
-5.92975e-07
1.22962e-07
-6.03693e-07
1.68729e-08
-6.14681e-07
-8.94248e-08
-6.25946e-07
-1.95941e-07
-6.37492e-07
-3.0269e-07
-6.49319e-07
-4.09687e-07
-6.61425e-07
-5.16949e-07
-6.73803e-07
-6.24497e-07
-6.8644e-07
-7.32349e-07
-6.99319e-07
-8.40525e-07
-7.12417e-07
-9.4904e-07
-7.25704e-07
-1.0579e-06
-7.39143e-07
-1.16712e-06
-7.52688e-07
-1.27668e-06
-7.66288e-07
-1.38656e-06
-7.79886e-07
-1.49672e-06
-7.93418e-07
-1.60711e-06
-8.0682e-07
-1.71764e-06
-8.20031e-07
-1.82824e-06
-8.33001e-07
-1.93879e-06
-8.45702e-07
-2.0492e-06
-8.58142e-07
-2.15941e-06
-8.70385e-07
-2.26941e-06
-8.82574e-07
-2.37935e-06
-8.9496e-07
-2.48954e-06
-9.07929e-07
-2.60062e-06
-9.22022e-07
-2.71363e-06
-9.37948e-07
-2.8302e-06
-9.56561e-07
-2.95261e-06
-9.78793e-07
-3.08391e-06
-1.00552e-06
-3.22787e-06
-1.03734e-06
-3.38873e-06
-1.07426e-06
-3.57062e-06
-1.1153e-06
-3.77664e-06
-1.15804e-06
-4.00741e-06
-1.19829e-06
-4.25913e-06
-1.22985e-06
-4.5215e-06
-1.24476e-06
-4.77568e-06
-1.23397e-06
-4.9931e-06
-1.1888e-06
-5.13603e-06
-1.10298e-06
-5.16093e-06
-9.75099e-07
-5.02549e-06
-8.10656e-07
-4.69909e-06
-6.22815e-07
-4.17465e-06
-4.30847e-07
-3.47732e-06
-2.563e-07
-2.66413e-06
-1.18344e-07
-1.81224e-06
-3.04683e-08
-9.99838e-07
-2.883e-07
-4.74829e-07
3.44505e-07
-4.85074e-07
2.39096e-07
-4.95619e-07
1.33506e-07
-5.06474e-07
2.77281e-08
-5.1765e-07
-7.82486e-08
-5.29155e-07
-1.84437e-07
-5.40993e-07
-2.90852e-07
-5.53166e-07
-3.97514e-07
-5.65672e-07
-5.04443e-07
-5.78505e-07
-6.11664e-07
-5.91655e-07
-7.19199e-07
-6.05106e-07
-8.27074e-07
-6.18836e-07
-9.35309e-07
-6.32818e-07
-1.04392e-06
-6.47016e-07
-1.15292e-06
-6.61389e-07
-1.26231e-06
-6.75885e-07
-1.37206e-06
-6.90449e-07
-1.48216e-06
-7.05016e-07
-1.59254e-06
-7.1952e-07
-1.70314e-06
-7.33894e-07
-1.81386e-06
-7.48079e-07
-1.9246e-06
-7.62028e-07
-2.03525e-06
-7.75726e-07
-2.14571e-06
-7.89203e-07
-2.25594e-06
-8.02556e-07
-2.366e-06
-8.1598e-07
-2.47612e-06
-8.29793e-07
-2.58681e-06
-8.44466e-07
-2.69896e-06
-8.60638e-07
-2.81403e-06
-8.79117e-07
-2.93413e-06
-9.00828e-07
-3.0622e-06
-9.26708e-07
-3.20199e-06
-9.57517e-07
-3.35792e-06
-9.93541e-07
-3.53459e-06
-1.03421e-06
-3.73597e-06
-1.07765e-06
-3.96396e-06
-1.12026e-06
-4.21652e-06
-1.15641e-06
-4.48535e-06
-1.17851e-06
-4.75358e-06
-1.17758e-06
-4.99404e-06
-1.14448e-06
-5.16912e-06
-1.07196e-06
-5.23345e-06
-9.57126e-07
-5.14033e-06
-8.0381e-07
-4.8524e-06
-6.23793e-07
-4.35467e-06
-4.35738e-07
-3.66537e-06
-2.61617e-07
-2.83825e-06
-1.21882e-07
-1.95197e-06
-3.16986e-08
-1.09002e-06
-3.19999e-07
-3.76898e-07
3.54441e-07
-3.87168e-07
2.49366e-07
-3.97787e-07
1.44125e-07
-4.08769e-07
3.871e-08
-4.20124e-07
-6.68933e-08
-4.31861e-07
-1.727e-07
-4.43986e-07
-2.78728e-07
-4.56499e-07
-3.85e-07
-4.69402e-07
-4.91541e-07
-4.82689e-07
-5.98377e-07
-4.9635e-07
-7.05538e-07
-5.10372e-07
-8.13052e-07
-5.24736e-07
-9.20946e-07
-5.39415e-07
-1.02924e-06
-5.54376e-07
-1.13796e-06
-5.69581e-07
-1.2471e-06
-5.8498e-07
-1.35666e-06
-6.0052e-07
-1.46662e-06
-6.16137e-07
-1.57692e-06
-6.31765e-07
-1.68751e-06
-6.47333e-07
-1.7983e-06
-6.62774e-07
-1.90916e-06
-6.78033e-07
-2.01999e-06
-6.93073e-07
-2.13067e-06
-7.07896e-07
-2.24111e-06
-7.22562e-07
-2.35133e-06
-7.37215e-07
-2.46147e-06
-7.5211e-07
-2.57191e-06
-7.67648e-07
-2.68342e-06
-7.84398e-07
-2.79728e-06
-8.03104e-07
-2.91542e-06
-8.24664e-07
-3.04064e-06
-8.50039e-07
-3.17662e-06
-8.80099e-07
-3.32786e-06
-9.15359e-07
-3.49934e-06
-9.55605e-07
-3.69573e-06
-9.9945e-07
-3.92012e-06
-1.04386e-06
-4.17211e-06
-1.08379e-06
-4.44542e-06
-1.11211e-06
-4.72526e-06
-1.11999e-06
-4.98616e-06
-1.09802e-06
-5.19109e-06
-1.03812e-06
-5.29335e-06
-9.36035e-07
-5.24242e-06
-7.93982e-07
-4.99445e-06
-6.22291e-07
-4.52636e-06
-4.3886e-07
-3.8488e-06
-2.65891e-07
-3.01122e-06
-1.2496e-07
-2.09291e-06
-3.28189e-08
-1.18216e-06
-3.52818e-07
-2.78515e-07
3.64334e-07
-2.88794e-07
2.59645e-07
-2.99475e-07
1.54807e-07
-3.10572e-07
4.98071e-08
-3.22097e-07
-5.53687e-08
-3.34058e-07
-1.60739e-07
-3.46462e-07
-2.66324e-07
-3.59311e-07
-3.7215e-07
-3.72607e-07
-4.78245e-07
-3.86345e-07
-5.84639e-07
-4.00517e-07
-6.91366e-07
-4.15111e-07
-7.98458e-07
-4.30109e-07
-9.05948e-07
-4.45487e-07
-1.01386e-06
-4.61216e-07
-1.12223e-06