/*--------------------------------*- C++ -*----------------------------------*\
  =========                 |
  \\      /  F ield         | OpenFOAM: The Open Source CFD Toolbox
   \\    /   O peration     | Website:  https://openfoam.org
    \\  /    A nd           | Version:  9
     \\/     M anipulation  |
\*---------------------------------------------------------------------------*/
FoamFile
{
    format      ascii;
    class       volVectorField;
    location    "3";
    object      U;
}
// * * * * * * * * * * * * * * * * * * * * * * * * * * * * * * * * * * * * * //

dimensions      [0 1 -1 0 0 0 0];

internalField   nonuniform List<vector> 
1240
(
(-0.260235 -0.02669 0)
(-0.260792 -0.0373819 0)
(-0.261398 -0.0481107 0)
(-0.262061 -0.0588845 0)
(-0.262791 -0.0697126 0)
(-0.249517 -0.0261562 0)
(-0.250072 -0.0368085 0)
(-0.250662 -0.0474916 0)
(-0.251293 -0.0582121 0)
(-0.251973 -0.0689773 0)
(-0.252712 -0.0797961 0)
(-0.279945 -0.261798 0)
(-0.282347 -0.275836 0)
(-0.284255 -0.289734 0)
(-0.285384 -0.303183 0)
(-0.285393 -0.315769 0)
(-0.283899 -0.32697 0)
(-0.28049 -0.336153 0)
(-0.27476 -0.342602 0)
(-0.266343 -0.345554 0)
(-0.254964 -0.344257 0)
(-0.240492 -0.33805 0)
(-0.222988 -0.326465 0)
(-0.202744 -0.30932 0)
(-0.180297 -0.286806 0)
(-0.156409 -0.259534 0)
(-0.132 -0.228522 0)
(-0.108057 -0.195109 0)
(-0.0855161 -0.16082 0)
(-0.0651551 -0.12719 0)
(-0.0475193 -0.0956119 0)
(-0.0328937 -0.0672228 0)
(-0.0213207 -0.04287 0)
(-0.0126463 -0.0231306 0)
(-0.00657531 -0.00837494 0)
(-0.00271955 0.00115249 0)
(-0.000655696 0.00525695 0)
(-9.40711e-06 0.00372568 0)
(-0.239214 -0.0256131 0)
(-0.239776 -0.0362393 0)
(-0.240361 -0.0468917 0)
(-0.240971 -0.0575751 0)
(-0.241614 -0.068295 0)
(-0.242299 -0.0790582 0)
(-0.243035 -0.0898732 0)
(-0.243837 -0.100751 0)
(-0.244718 -0.111705 0)
(-0.245698 -0.122752 0)
(-0.246797 -0.133914 0)
(-0.248037 -0.145217 0)
(-0.249442 -0.156692 0)
(-0.251035 -0.168374 0)
(-0.252838 -0.180304 0)
(-0.254869 -0.192524 0)
(-0.257135 -0.205075 0)
(-0.25963 -0.217992 0)
(-0.26233 -0.231298 0)
(-0.26518 -0.24499 0)
(-0.26809 -0.259033 0)
(-0.270922 -0.273337 0)
(-0.273488 -0.287741 0)
(-0.275536 -0.301997 0)
(-0.276753 -0.315748 0)
(-0.276766 -0.328513 0)
(-0.275156 -0.339689 0)
(-0.271479 -0.34855 0)
(-0.265304 -0.354283 0)
(-0.256257 -0.356032 0)
(-0.244077 -0.35298 0)
(-0.228676 -0.344447 0)
(-0.210193 -0.330006 0)
(-0.189029 -0.309596 0)
(-0.165848 -0.283603 0)
(-0.14154 -0.252899 0)
(-0.11713 -0.218786 0)
(-0.093662 -0.182868 0)
(-0.0720664 -0.146869 0)
(-0.0530558 -0.112432 0)
(-0.0370665 -0.0809614 0)
(-0.0242556 -0.0535448 0)
(-0.0145414 -0.0309456 0)
(-0.00766161 -0.0136633 0)
(-0.00323012 -0.00202078 0)
(-0.000810548 0.00374381 0)
(-2.448e-05 0.00339114 0)
(-0.229267 -0.0250513 0)
(-0.229847 -0.0356638 0)
(-0.230436 -0.0462991 0)
(-0.231038 -0.0569605 0)
(-0.231658 -0.0676516 0)
(-0.232303 -0.0783772 0)
(-0.232983 -0.0891436 0)
(-0.233707 -0.099959 0)
(-0.234491 -0.110834 0)
(-0.23535 -0.121784 0)
(-0.236305 -0.132827 0)
(-0.237378 -0.143987 0)
(-0.238595 -0.155294 0)
(-0.239981 -0.166782 0)
(-0.241565 -0.178494 0)
(-0.243373 -0.190476 0)
(-0.245426 -0.20278 0)
(-0.247736 -0.215453 0)
(-0.2503 -0.228541 0)
(-0.253093 -0.242071 0)
(-0.25606 -0.256046 0)
(-0.259103 -0.270423 0)
(-0.262074 -0.285102 0)
(-0.264763 -0.299897 0)
(-0.266895 -0.314515 0)
(-0.268124 -0.32854 0)
(-0.26804 -0.341413 0)
(-0.266189 -0.35243 0)
(-0.262094 -0.36076 0)
(-0.255304 -0.365478 0)
(-0.245446 -0.365639 0)
(-0.232292 -0.360372 0)
(-0.21582 -0.349004 0)
(-0.196273 -0.331198 0)
(-0.174185 -0.307072 0)
(-0.150367 -0.277283 0)
(-0.125841 -0.243017 0)
(-0.10172 -0.205898 0)
(-0.0790743 -0.167796 0)
(-0.058785 -0.130601 0)
(-0.0414574 -0.0960061 0)
(-0.0273873 -0.0653781 0)
(-0.0165878 -0.0397103 0)
(-0.0088473 -0.0196676 0)
(-0.00379343 -0.00567814 0)
(-0.000983786 0.00196063 0)
(-4.20565e-05 0.00297553 0)
(-0.219611 -0.0244633 0)
(-0.220214 -0.0350726 0)
(-0.220818 -0.0457026 0)
(-0.221423 -0.056355 0)
(-0.222034 -0.0670318 0)
(-0.222656 -0.0777361 0)
(-0.223296 -0.0884719 0)
(-0.223964 -0.099245 0)
(-0.224671 -0.110064 0)
(-0.225431 -0.12094 0)
(-0.226264 -0.131888 0)
(-0.227189 -0.14293 0)
(-0.228233 -0.154091 0)
(-0.229422 -0.165406 0)
(-0.230786 -0.176914 0)
(-0.232358 -0.188665 0)
(-0.234168 -0.200713 0)
(-0.23624 -0.213117 0)
(-0.238591 -0.225938 0)
(-0.241221 -0.239226 0)
(-0.244103 -0.253017 0)
(-0.247177 -0.267313 0)
(-0.250338 -0.282068 0)
(-0.25342 -0.297158 0)
(-0.256192 -0.312365 0)
(-0.258347 -0.327342 0)
(-0.259503 -0.341595 0)
(-0.259211 -0.354469 0)
(-0.256976 -0.365143 0)
(-0.252293 -0.372663 0)
(-0.244701 -0.375988 0)
(-0.233843 -0.374086 0)
(-0.219545 -0.366055 0)
(-0.20188 -0.351275 0)
(-0.181225 -0.329562 0)
(-0.158273 -0.301296 0)
(-0.133992 -0.267474 0)
(-0.109528 -0.229659 0)
(-0.0860583 -0.189811 0)
(-0.0646274 -0.150041 0)
(-0.0460198 -0.112342 0)
(-0.0306917 -0.0783954 0)
(-0.018775 -0.0494686 0)
(-0.0101289 -0.0264347 0)
(-0.00440888 -0.00985903 0)
(-0.00117561 -0.000118646 0)
(-6.22623e-05 0.00246941 0)
(-0.210175 -0.0238435 0)
(-0.210809 -0.0344582 0)
(-0.211434 -0.0450922 0)
(-0.212053 -0.0557461 0)
(-0.212668 -0.0664208 0)
(-0.213282 -0.0771174 0)
(-0.213901 -0.0878383 0)
(-0.214532 -0.0985871 0)
(-0.215185 -0.109369 0)
(-0.215872 -0.120194 0)
(-0.216608 -0.131072 0)
(-0.217412 -0.142021 0)
(-0.218308 -0.153065 0)
(-0.219321 -0.164231 0)
(-0.220483 -0.17556 0)
(-0.221827 -0.187097 0)
(-0.223389 -0.1989 0)
(-0.225203 -0.211031 0)
(-0.227299 -0.22356 0)
(-0.229695 -0.236558 0)
(-0.232392 -0.250085 0)
(-0.235363 -0.264182 0)
(-0.238541 -0.278849 0)
(-0.241806 -0.294028 0)
(-0.244974 -0.309569 0)
(-0.247784 -0.325206 0)
(-0.249894 -0.340521 0)
(-0.250879 -0.354927 0)
(-0.250248 -0.367647 0)
(-0.247467 -0.377728 0)
(-0.242009 -0.384074 0)
(-0.233413 -0.385529 0)
(-0.221363 -0.380988 0)
(-0.205764 -0.369557 0)
(-0.18682 -0.350733 0)
(-0.165074 -0.324575 0)
(-0.141398 -0.291814 0)
(-0.11692 -0.253868 0)
(-0.0928884 -0.212714 0)
(-0.0704923 -0.170637 0)
(-0.0506975 -0.129927 0)
(-0.0341381 -0.0926026 0)
(-0.0210885 -0.0602534 0)
(-0.0115009 -0.0340059 0)
(-0.00507522 -0.0146005 0)
(-0.00138611 -0.0025195 0)
(-8.52409e-05 0.00186323 0)
(-0.200215 -0.0125813 0)
(-0.200896 -0.0231886 0)
(-0.201564 -0.0338148 0)
(-0.202217 -0.0444598 0)
(-0.202858 -0.0551234 0)
(-0.203487 -0.0658051 0)
(-0.204107 -0.076505 0)
(-0.204721 -0.0872238 0)
(-0.205336 -0.0979632 0)
(-0.205957 -0.108726 0)
(-0.206596 -0.119519 0)
(-0.207264 -0.13035 0)
(-0.207977 -0.141233 0)
(-0.208755 -0.152185 0)
(-0.209623 -0.163233 0)
(-0.21061 -0.174411 0)
(-0.21175 -0.185762 0)
(-0.213079 -0.19734 0)
(-0.214638 -0.20921 0)
(-0.216465 -0.221447 0)
(-0.218592 -0.234133 0)
(-0.221043 -0.247348 0)
(-0.223816 -0.261162 0)
(-0.22688 -0.275619 0)
(-0.230159 -0.290715 0)
(-0.233516 -0.306371 0)
(-0.23674 -0.322401 0)
(-0.239537 -0.338474 0)
(-0.241521 -0.354084 0)
(-0.24222 -0.368522 0)
(-0.241098 -0.38087 0)
(-0.237587 -0.390018 0)
(-0.231146 -0.394722 0)
(-0.221336 -0.393713 0)
(-0.207906 -0.385847 0)
(-0.190881 -0.370302 0)
(-0.170631 -0.346781 0)
(-0.147895 -0.315691 0)
(-0.123737 -0.278218 0)
(-0.0994305 -0.236268 0)
(-0.0762804 -0.192238 0)
(-0.0554256 -0.148684 0)
(-0.0376893 -0.107984 0)
(-0.0235098 -0.0720835 0)
(-0.0129558 -0.0424148 0)
(-0.00579027 -0.0199365 0)
(-0.00161515 -0.00526652 0)
(-0.000111126 0.00114738 0)
(-0.190999 -0.0118742 0)
(-0.191718 -0.0224966 0)
(-0.192421 -0.0331385 0)
(-0.193107 -0.0437993 0)
(-0.193776 -0.0544779 0)
(-0.194429 -0.0651734 0)
(-0.195066 -0.0758847 0)
(-0.195691 -0.0866111 0)
(-0.196306 -0.097353 0)
(-0.196917 -0.108111 0)
(-0.197531 -0.11889 0)
(-0.198157 -0.129694 0)
(-0.198809 -0.140532 0)
(-0.199502 -0.151421 0)
(-0.200259 -0.162379 0)
(-0.201106 -0.173437 0)
(-0.202073 -0.184632 0)
(-0.203198 -0.196015 0)
(-0.204521 -0.207648 0)
(-0.206088 -0.219609 0)
(-0.20794 -0.231982 0)
(-0.210114 -0.244863 0)
(-0.212632 -0.258344 0)
(-0.215494 -0.272503 0)
(-0.21866 -0.287386 0)
(-0.222039 -0.302977 0)
(-0.225473 -0.319168 0)
(-0.228718 -0.335718 0)
(-0.231437 -0.352215 0)
(-0.233195 -0.368036 0)
(-0.233471 -0.382325 0)
(-0.231681 -0.393994 0)
(-0.227231 -0.401758 0)
(-0.219583 -0.404223 0)
(-0.208346 -0.40003 0)
(-0.193373 -0.38805 0)
(-0.174849 -0.367622 0)
(-0.15335 -0.338777 0)
(-0.129833 -0.302394 0)
(-0.105553 -0.260212 0)
(-0.0818875 -0.214658 0)
(-0.0601322 -0.168511 0)
(-0.0413014 -0.124499 0)
(-0.0260159 -0.0849624 0)
(-0.0144834 -0.0516863 0)
(-0.00655078 -0.0258966 0)
(-0.00186229 -0.00838282 0)
(-0.000140025 0.000312351 0)
(-0.179469 0.0206641 0)
(-0.180273 0.0100878 0)
(-0.181063 -0.000509252 0)
(-0.181837 -0.0111275 0)
(-0.182594 -0.021767 0)
(-0.183334 -0.0324268 0)
(-0.184055 -0.043106 0)
(-0.184757 -0.0538031 0)
(-0.185439 -0.0645165 0)
(-0.186103 -0.0752444 0)
(-0.18675 -0.0859855 0)
(-0.187381 -0.0967385 0)
(-0.187999 -0.107503 0)
(-0.18861 -0.118281 0)
(-0.18922 -0.129074 0)
(-0.189838 -0.13989 0)
(-0.190479 -0.150737 0)
(-0.191159 -0.161633 0)
(-0.191901 -0.172601 0)
(-0.192733 -0.183673 0)
(-0.193689 -0.194894 0)
(-0.19481 -0.206323 0)
(-0.196141 -0.218033 0)
(-0.19773 -0.230111 0)
(-0.199624 -0.242658 0)
(-0.201862 -0.255783 0)
(-0.204467 -0.26959 0)
(-0.207433 -0.284166 0)
(-0.21071 -0.299551 0)
(-0.214187 -0.31571 0)
(-0.217677 -0.332491 0)
(-0.220895 -0.349581 0)
(-0.223454 -0.366456 0)
(-0.224865 -0.382347 0)
(-0.224551 -0.39622 0)
(-0.221888 -0.406789 0)
(-0.216268 -0.412581 0)
(-0.207179 -0.412063 0)
(-0.194316 -0.40383 0)
(-0.177681 -0.38686 0)
(-0.157667 -0.360778 0)
(-0.135088 -0.326088 0)
(-0.111132 -0.28427 0)
(-0.0872089 -0.237688 0)
(-0.0647402 -0.189272 0)
(-0.0449255 -0.142083 0)
(-0.0285796 -0.0988756 0)
(-0.0160712 -0.0618348 0)
(-0.00735222 -0.032505 0)
(-0.00212668 -0.0118895 0)
(-0.000171999 -0.000651113 0)
(-0.170217 0.0214931 0)
(-0.171057 0.0109036 0)
(-0.171883 0.000291548 0)
(-0.172694 -0.0103432 0)
(-0.173488 -0.0210004 0)
(-0.174263 -0.0316788 0)
(-0.17502 -0.0423774 0)
(-0.175758 -0.0530942 0)
(-0.176476 -0.0638275 0)
(-0.177174 -0.074575 0)
(-0.177852 -0.0853348 0)
(-0.178511 -0.0961048 0)
(-0.179151 -0.106884 0)
(-0.179777 -0.117671 0)
(-0.180392 -0.128467 0)
(-0.181003 -0.139275 0)
(-0.181619 -0.150102 0)
(-0.182255 -0.16096 0)
(-0.182928 -0.171866 0)
(-0.183663 -0.182847 0)
(-0.184489 -0.193941 0)
(-0.185446 -0.2052 0)
(-0.186576 -0.216692 0)
(-0.187931 -0.228503 0)
(-0.189561 -0.240734 0)
(-0.191518 -0.253503 0)
(-0.193843 -0.266934 0)
(-0.196556 -0.281142 0)
(-0.199643 -0.296218 0)
(-0.203039 -0.312192 0)
(-0.206607 -0.328996 0)
(-0.210121 -0.346416 0)
(-0.213247 -0.364036 0)
(-0.215541 -0.381192 0)
(-0.216452 -0.396931 0)
(-0.21535 -0.410004 0)
(-0.21158 -0.418905 0)
(-0.204538 -0.421972 0)
(-0.19378 -0.417566 0)
(-0.17913 -0.404319 0)
(-0.16079 -0.381442 0)
(-0.139407 -0.34901 0)
(-0.11606 -0.308162 0)
(-0.0921444 -0.261094 0)
(-0.0691711 -0.210807 0)
(-0.0485081 -0.160647 0)
(-0.0311698 -0.113791 0)
(-0.0177037 -0.0728626 0)
(-0.00818874 -0.0397796 0)
(-0.00240705 -0.0158049 0)
(-0.000207056 -0.00175178 0)
(-0.160968 0.0223567 0)
(-0.16184 0.0117538 0)
(-0.162699 0.00112694 0)
(-0.163542 -0.00952387 0)
(-0.16437 -0.020198 0)
(-0.165181 -0.0308944 0)
(-0.165975 -0.0416116 0)
(-0.166751 -0.0523479 0)
(-0.167507 -0.0631013 0)
(-0.168244 -0.0738693 0)
(-0.16896 -0.0846497 0)
(-0.169656 -0.09544 0)
(-0.170331 -0.106238 0)
(-0.170986 -0.117041 0)
(-0.171624 -0.12785 0)
(-0.172248 -0.138664 0)
(-0.172866 -0.149487 0)
(-0.173487 -0.160326 0)
(-0.174124 -0.171195 0)
(-0.174798 -0.182114 0)
(-0.175536 -0.193114 0)
(-0.176369 -0.20424 0)
(-0.177339 -0.215552 0)
(-0.178495 -0.22713 0)
(-0.179892 -0.239075 0)
(-0.181585 -0.251505 0)
(-0.18363 -0.264556 0)
(-0.186067 -0.278367 0)
(-0.188911 -0.293066 0)
(-0.192137 -0.30874 0)
(-0.195656 -0.325399 0)
(-0.199298 -0.342923 0)
(-0.202788 -0.361009 0)
(-0.205735 -0.379108 0)
(-0.207626 -0.39637 0)
(-0.207849 -0.411618 0)
(-0.205726 -0.423355 0)
(-0.200587 -0.42984 0)
(-0.191869 -0.429243 0)
(-0.179237 -0.419886 0)
(-0.162703 -0.400567 0)
(-0.142729 -0.370903 0)
(-0.120249 -0.331616 0)
(-0.0966033 -0.284636 0)
(-0.0733477 -0.232935 0)
(-0.051994 -0.180079 0)
(-0.0337525 -0.129655 0)
(-0.0193635 -0.084759 0)
(-0.0090532 -0.0477306 0)
(-0.00270168 -0.0201441 0)
(-0.000245133 -0.00299773 0)
(-0.151703 0.0232493 0)
(-0.152602 0.0126338 0)
(-0.153489 0.00199329 0)
(-0.154363 -0.00867208 0)
(-0.155222 -0.0193616 0)
(-0.156068 -0.0300742 0)
(-0.156898 -0.0408084 0)
(-0.157712 -0.0515625 0)
(-0.158509 -0.0623346 0)
(-0.159288 -0.0731224 0)
(-0.160048 -0.0839233 0)
(-0.160787 -0.0947348 0)
(-0.161505 -0.105554 0)
(-0.162202 -0.116378 0)
(-0.162877 -0.127205 0)
(-0.163533 -0.138034 0)
(-0.164173 -0.148866 0)
(-0.164804 -0.159703 0)
(-0.165435 -0.170556 0)
(-0.166083 -0.181437 0)
(-0.166767 -0.192373 0)
(-0.167517 -0.2034 0)
(-0.168369 -0.21457 0)
(-0.169369 -0.225954 0)
(-0.17057 -0.237649 0)
(-0.172031 -0.249769 0)
(-0.173814 -0.262457 0)
(-0.175974 -0.275864 0)
(-0.178551 -0.290149 0)
(-0.181551 -0.305445 0)
(-0.18493 -0.321828 0)
(-0.188569 -0.339271 0)
(-0.192252 -0.357579 0)
(-0.195647 -0.376323 0)
(-0.198293 -0.394776 0)
(-0.199608 -0.411859 0)
(-0.198915 -0.426122 0)
(-0.195503 -0.435795 0)
(-0.188718 -0.438905 0)
(-0.178081 -0.433507 0)
(-0.163428 -0.418007 0)
(-0.145024 -0.391549 0)
(-0.123637 -0.35438 0)
(-0.100508 -0.308072 0)
(-0.0771979 -0.255458 0)
(-0.0553276 -0.200248 0)
(-0.0362916 -0.1464 0)
(-0.0210308 -0.0974999 0)
(-0.00993727 -0.0563602 0)
(-0.00300837 -0.0249182 0)
(-0.0002861 -0.00439606 0)
(-0.142408 0.0241661 0)
(-0.14333 0.0135395 0)
(-0.144242 0.00288717 0)
(-0.145142 -0.00779056 0)
(-0.146032 -0.018493 0)
(-0.14691 -0.0292191 0)
(-0.147775 -0.0399676 0)
(-0.148628 -0.050737 0)
(-0.149466 -0.0615255 0)
(-0.15029 -0.0723309 0)
(-0.151096 -0.0831508 0)
(-0.151884 -0.0939827 0)
(-0.152652 -0.104823 0)
(-0.153398 -0.11567 0)
(-0.154122 -0.126519 0)
(-0.154823 -0.137369 0)
(-0.155503 -0.148217 0)
(-0.156165 -0.159065 0)
(-0.156815 -0.169918 0)
(-0.157465 -0.180784 0)
(-0.158131 -0.191681 0)
(-0.158835 -0.20264 0)
(-0.15961 -0.213703 0)
(-0.160497 -0.224934 0)
(-0.161544 -0.236417 0)
(-0.162811 -0.248266 0)
(-0.164363 -0.260617 0)
(-0.166265 -0.273634 0)
(-0.168572 -0.287493 0)
(-0.171319 -0.302362 0)
(-0.174497 -0.318378 0)
(-0.178036 -0.335592 0)
(-0.181776 -0.353915 0)
(-0.185447 -0.37304 0)
(-0.188645 -0.392372 0)
(-0.190831 -0.410951 0)
(-0.19135 -0.427411 0)
(-0.189472 -0.439995 0)
(-0.184477 -0.44664 0)
(-0.175769 -0.445183 0)
(-0.163016 -0.433669 0)
(-0.146294 -0.410774 0)
(-0.126186 -0.37623 0)
(-0.1038 -0.331166 0)
(-0.080658 -0.278174 0)
(-0.0584557 -0.221004 0)
(-0.0387506 -0.163936 0)
(-0.022685 -0.111047 0)
(-0.0108316 -0.0656616 0)
(-0.0033245 -0.0301337 0)
(-0.00032975 -0.00595271 0)
(-0.133074 0.0251025 0)
(-0.134015 0.014467 0)
(-0.134948 0.00380547 0)
(-0.135873 -0.0068818 0)
(-0.13679 -0.0175941 0)
(-0.137699 -0.0283306 0)
(-0.138599 -0.0390901 0)
(-0.13949 -0.0498714 0)
(-0.14037 -0.0606729 0)
(-0.141239 -0.0714928 0)
(-0.142094 -0.082329 0)
(-0.142934 -0.093179 0)
(-0.143756 -0.10404 0)
(-0.144558 -0.114908 0)
(-0.145339 -0.125781 0)
(-0.146096 -0.136654 0)
(-0.146829 -0.147525 0)
(-0.147538 -0.158392 0)
(-0.148228 -0.169256 0)
(-0.148905 -0.180123 0)
(-0.149581 -0.191005 0)
(-0.150274 -0.201922 0)
(-0.15101 -0.212911 0)
(-0.151824 -0.224024 0)
(-0.152761 -0.235338 0)
(-0.153878 -0.246955 0)
(-0.155237 -0.259008 0)
(-0.15691 -0.27166 0)
(-0.158963 -0.2851 0)
(-0.161451 -0.299523 0)
(-0.164395 -0.315111 0)
(-0.167769 -0.331986 0)
(-0.171464 -0.350155 0)
(-0.175269 -0.369433 0)
(-0.178842 -0.389359 0)
(-0.1817 -0.40911 0)
(-0.18322 -0.427431 0)
(-0.182677 -0.442618 0)
(-0.179308 -0.452572 0)
(-0.172423 -0.454959 0)
(-0.161547 -0.447512 0)
(-0.146569 -0.428451 0)
(-0.127882 -0.396975 0)
(-0.106436 -0.353702 0)
(-0.0836756 -0.300878 0)
(-0.0613298 -0.242189 0)
(-0.0410934 -0.182163 0)
(-0.0243042 -0.12535 0)
(-0.011726 -0.0756189 0)
(-0.0036471 -0.0357924 0)
(-0.000375805 -0.00767222 0)
(-0.123696 0.026055 0)
(-0.124652 0.0154133 0)
(-0.125604 0.00474545 0)
(-0.126551 -0.00594808 0)
(-0.127494 -0.0166668 0)
(-0.128433 -0.0274099 0)
(-0.129366 -0.0381766 0)
(-0.130294 -0.0489659 0)
(-0.131216 -0.0597765 0)
(-0.132131 -0.0706071 0)
(-0.133035 -0.0814559 0)
(-0.133929 -0.0923207 0)
(-0.134808 -0.103199 0)
(-0.135671 -0.114087 0)
(-0.136514 -0.124982 0)
(-0.137334 -0.135879 0)
(-0.13813 -0.146775 0)
(-0.138901 -0.157666 0)
(-0.139647 -0.168551 0)
(-0.140371 -0.179432 0)
(-0.141083 -0.190314 0)
(-0.141793 -0.201213 0)
(-0.142524 -0.212156 0)
(-0.143304 -0.223185 0)
(-0.144172 -0.234368 0)
(-0.145181 -0.245794 0)
(-0.14639 -0.25759 0)
(-0.147871 -0.269914 0)
(-0.149699 -0.282957 0)
(-0.151939 -0.296934 0)
(-0.154641 -0.312062 0)
(-0.15781 -0.328522 0)
(-0.161387 -0.346407 0)
(-0.165216 -0.365646 0)
(-0.169018 -0.385914 0)
(-0.172369 -0.406533 0)
(-0.174694 -0.426384 0)
(-0.175288 -0.443853 0)
(-0.17337 -0.456847 0)
(-0.168179 -0.462919 0)
(-0.159117 -0.459537 0)
(-0.145904 -0.444498 0)
(-0.128738 -0.416461 0)
(-0.108395 -0.375484 0)
(-0.0862111 -0.323373 0)
(-0.0639079 -0.263637 0)
(-0.0432865 -0.200965 0)
(-0.0258672 -0.140345 0)
(-0.01261 -0.0862069 0)
(-0.00397287 -0.0418907 0)
(-0.000423916 -0.00955758 0)
(-0.11427 0.0270203 0)
(-0.11524 0.0163754 0)
(-0.116208 0.00570476 0)
(-0.117175 -0.00499141 0)
(-0.118142 -0.0157126 0)
(-0.119109 -0.0264584 0)
(-0.120075 -0.0372281 0)
(-0.121039 -0.0480211 0)
(-0.122002 -0.0588366 0)
(-0.122962 -0.0696735 0)
(-0.123917 -0.0805306 0)
(-0.124865 -0.0914061 0)
(-0.125803 -0.102298 0)
(-0.126729 -0.113202 0)
(-0.127638 -0.124117 0)
(-0.128528 -0.135037 0)
(-0.129395 -0.145958 0)
(-0.130236 -0.156876 0)
(-0.131051 -0.167786 0)
(-0.131839 -0.178688 0)
(-0.132605 -0.189584 0)
(-0.133358 -0.200482 0)
(-0.134113 -0.211402 0)
(-0.134893 -0.222378 0)
(-0.135732 -0.233464 0)
(-0.136674 -0.244741 0)
(-0.137776 -0.256322 0)
(-0.139108 -0.268357 0)
(-0.140745 -0.281038 0)
(-0.142764 -0.294586 0)
(-0.14523 -0.309244 0)
(-0.148179 -0.325241 0)
(-0.151591 -0.342746 0)
(-0.155362 -0.361791 0)
(-0.159275 -0.382184 0)
(-0.162968 -0.403398 0)
(-0.165921 -0.424463 0)
(-0.167465 -0.443886 0)
(-0.166818 -0.459626 0)
(-0.163176 -0.469174 0)
(-0.155837 -0.469785 0)
(-0.144369 -0.458875 0)
(-0.128785 -0.434575 0)
(-0.109676 -0.396346 0)
(-0.0882393 -0.345474 0)
(-0.0661563 -0.285183 0)
(-0.0452998 -0.22022 0)
(-0.0273532 -0.155957 0)
(-0.0134729 -0.0973919 0)
(-0.00429835 -0.0484198 0)
(-0.000473673 -0.0116101 0)
(-0.104797 0.0279957 0)
(-0.105777 0.0173512 0)
(-0.10676 0.00668137 0)
(-0.107745 -0.00401353 0)
(-0.108735 -0.0147332 0)
(-0.109728 -0.0254774 0)
(-0.110725 -0.0362457 0)
(-0.111726 -0.0470379 0)
(-0.112729 -0.0578535 0)
(-0.113734 -0.0686921 0)
(-0.114739 -0.0795527 0)
(-0.115742 -0.0904342 0)
(-0.11674 -0.101335 0)
(-0.11773 -0.112252 0)
(-0.118709 -0.123182 0)
(-0.119672 -0.134122 0)
(-0.120614 -0.145067 0)
(-0.121534 -0.156011 0)
(-0.122426 -0.166949 0)
(-0.123291 -0.177877 0)
(-0.124129 -0.188795 0)
(-0.124944 -0.199706 0)
(-0.125748 -0.210622 0)
(-0.126557 -0.221569 0)
(-0.1274 -0.23259 0)
(-0.128315 -0.243753 0)
(-0.129352 -0.25516 0)
(-0.130577 -0.26695 0)
(-0.132064 -0.279307 0)
(-0.133895 -0.292455 0)
(-0.136147 -0.306652 0)
(-0.138877 -0.322165 0)
(-0.142099 -0.339223 0)
(-0.145758 -0.357954 0)
(-0.149692 -0.37829 0)
(-0.153601 -0.399856 0)
(-0.157028 -0.421843 0)
(-0.159347 -0.4429 0)
(-0.159797 -0.461076 0)
(-0.157548 -0.473852 0)
(-0.151821 -0.478325 0)
(-0.14205 -0.471578 0)
(-0.128073 -0.451236 0)
(-0.110292 -0.416149 0)
(-0.0897492 -0.367014 0)
(-0.0680509 -0.306665 0)
(-0.0471078 -0.2398 0)
(-0.0287433 -0.172106 0)
(-0.0143042 -0.109132 0)
(-0.00461993 -0.0553658 0)
(-0.000524612 -0.0138291 0)
(-0.0952751 0.0289791 0)
(-0.0962641 0.0183386 0)
(-0.0972596 0.00767358 0)
(-0.0982623 -0.00301593 0)
(-0.0992729 -0.0137298 0)
(-0.100292 -0.0244679 0)
(-0.101319 -0.0352302 0)
(-0.102355 -0.0460169 0)
(-0.103398 -0.0568279 0)
(-0.104448 -0.0676631 0)
(-0.105502 -0.0785223 0)
(-0.10656 -0.0894046 0)
(-0.107619 -0.100309 0)
(-0.108674 -0.111234 0)
(-0.109723 -0.122176 0)
(-0.110762 -0.133131 0)
(-0.111784 -0.144096 0)
(-0.112787 -0.155064 0)
(-0.113765 -0.166029 0)
(-0.114715 -0.176986 0)
(-0.115636 -0.187931 0)
(-0.11653 -0.198864 0)
(-0.117403 -0.20979 0)
(-0.118268 -0.220727 0)
(-0.119145 -0.231709 0)
(-0.120067 -0.242792 0)
(-0.121079 -0.254064 0)
(-0.122238 -0.265651 0)
(-0.123617 -0.277725 0)
(-0.125298 -0.29051 0)
(-0.127365 -0.304269 0)
(-0.129892 -0.319294 0)
(-0.13292 -0.335866 0)
(-0.136433 -0.354194 0)
(-0.140322 -0.374328 0)
(-0.144348 -0.396036 0)
(-0.148116 -0.418677 0)
(-0.151057 -0.441062 0)
(-0.152439 -0.461362 0)
(-0.151427 -0.477092 0)
(-0.147186 -0.48525 0)
(-0.13904 -0.482634 0)
(-0.126664 -0.466401 0)
(-0.110274 -0.434786 0)
(-0.0907433 -0.387846 0)
(-0.0695772 -0.327931 0)
(-0.0486909 -0.259577 0)
(-0.0300211 -0.188701 0)
(-0.0150943 -0.121378 0)
(-0.00493406 -0.0627094 0)
(-0.000576228 -0.0162125 0)
(-0.0857064 0.0299684 0)
(-0.0867025 0.019336 0)
(-0.0877093 0.00867989 0)
(-0.0887276 -0.0019999 0)
(-0.0897583 -0.0127034 0)
(-0.0908018 -0.0234309 0)
(-0.0918585 -0.0341826 0)
(-0.0929282 -0.0449589 0)
(-0.0940105 -0.0557602 0)
(-0.0951046 -0.066587 0)
(-0.096209 -0.0774394 0)
(-0.0973219 -0.0883174 0)
(-0.0984407 -0.0992203 0)
(-0.0995622 -0.110147 0)
(-0.100683 -0.121095 0)
(-0.101798 -0.132061 0)
(-0.102902 -0.143041 0)
(-0.103991 -0.15403 0)
(-0.10506 -0.16502 0)
(-0.106103 -0.176006 0)
(-0.107118 -0.18698 0)
(-0.108103 -0.197939 0)
(-0.109062 -0.208886 0)
(-0.110002 -0.219828 0)
(-0.110939 -0.230792 0)
(-0.1119 -0.241822 0)
(-0.112921 -0.252993 0)
(-0.114054 -0.264416 0)
(-0.115367 -0.276252 0)
(-0.116939 -0.288713 0)
(-0.118857 -0.302065 0)
(-0.121206 -0.316616 0)
(-0.124048 -0.332685 0)
(-0.127401 -0.350551 0)
(-0.131201 -0.370367 0)
(-0.135269 -0.392042 0)
(-0.139271 -0.415099 0)
(-0.142696 -0.438527 0)
(-0.144858 -0.460642 0)
(-0.144931 -0.47904 0)
(-0.142046 -0.490666 0)
(-0.135434 -0.492095 0)
(-0.124628 -0.480055 0)
(-0.109662 -0.452178 0)
(-0.0912363 -0.407848 0)
(-0.0707307 -0.348842 0)
(-0.0500354 -0.279424 0)
(-0.0311728 -0.20565 0)
(-0.0158342 -0.134077 0)
(-0.00523732 -0.0704273 0)
(-0.000627994 -0.0187559 0)
(-0.0760916 0.030962 0)
(-0.0770932 0.0203418 0)
(-0.0781099 0.00969899 0)
(-0.0791427 -0.000966607 0)
(-0.0801924 -0.0116553 0)
(-0.0812597 -0.0223674 0)
(-0.082345 -0.0331035 0)
(-0.0834482 -0.0438645 0)
(-0.0845692 -0.0546511 0)
(-0.0857071 -0.0654642 0)
(-0.0868607 -0.0763046 0)
(-0.0880282 -0.0871726 0)
(-0.0892073 -0.0980684 0)
(-0.0903949 -0.108991 0)
(-0.0915873 -0.11994 0)
(-0.0927802 -0.130911 0)
(-0.0939685 -0.141901 0)
(-0.0951468 -0.152906 0)
(-0.0963094 -0.163917 0)
(-0.0974508 -0.174928 0)
(-0.0985662 -0.185931 0)
(-0.0996527 -0.19692 0)
(-0.10071 -0.207892 0)
(-0.101743 -0.218851 0)
(-0.102762 -0.229813 0)
(-0.103787 -0.240813 0)
(-0.104848 -0.251912 0)
(-0.105992 -0.263208 0)
(-0.107278 -0.274846 0)
(-0.108782 -0.287026 0)
(-0.11059 -0.300008 0)
(-0.112793 -0.314109 0)
(-0.115469 -0.329676 0)
(-0.118663 -0.347043 0)
(-0.12235 -0.366455 0)
(-0.126405 -0.387952 0)
(-0.130554 -0.411221 0)
(-0.134349 -0.435429 0)
(-0.137154 -0.459065 0)
(-0.138169 -0.479836 0)
(-0.136507 -0.494689 0)
(-0.131329 -0.50003 0)
(-0.12204 -0.492208 0)
(-0.108509 -0.468275 0)
(-0.0912534 -0.426918 0)
(-0.071516 -0.369271 0)
(-0.0511343 -0.299222 0)
(-0.0321884 -0.22286 0)
(-0.0165165 -0.147168 0)
(-0.00552652 -0.078492 0)
(-0.000679371 -0.0214537 0)
(-0.0664315 0.0319583 0)
(-0.0674373 0.0213547 0)
(-0.0684627 0.0107297 0)
(-0.0695088 8.29184e-05 0)
(-0.0705766 -0.0105861 0)
(-0.0716669 -0.021278 0)
(-0.07278 -0.0319937 0)
(-0.0739162 -0.0427343 0)
(-0.0750753 -0.0535011 0)
(-0.0762566 -0.0642952 0)
(-0.077459 -0.0751179 0)
(-0.078681 -0.0859704 0)
(-0.0799203 -0.0968532 0)
(-0.081174 -0.107766 0)
(-0.0824387 -0.118709 0)
(-0.0837101 -0.12968 0)
(-0.0849831 -0.140674 0)
(-0.0862523 -0.151689 0)
(-0.0875116 -0.162716 0)
(-0.0887549 -0.173748 0)
(-0.0899766 -0.184778 0)
(-0.0911719 -0.195795 0)
(-0.0923384 -0.206796 0)
(-0.0934774 -0.217777 0)
(-0.0945955 -0.22875 0)
(-0.0957071 -0.239737 0)
(-0.096837 -0.25079 0)
(-0.0980233 -0.26199 0)
(-0.0993191 -0.273467 0)
(-0.100794 -0.285407 0)
(-0.102532 -0.298061 0)
(-0.104625 -0.311744 0)
(-0.107163 -0.326821 0)
(-0.110209 -0.343674 0)
(-0.113776 -0.362623 0)
(-0.117782 -0.383827 0)
(-0.122013 -0.407131 0)
(-0.126083 -0.431885 0)
(-0.129412 -0.456763 0)
(-0.131236 -0.479617 0)
(-0.130667 -0.49744 0)
(-0.126816 -0.506524 0)
(-0.11898 -0.502892 0)
(-0.10687 -0.48305 0)
(-0.0908281 -0.444979 0)
(-0.0719462 -0.389112 0)
(-0.0519867 -0.318858 0)
(-0.0330612 -0.240238 0)
(-0.0171351 -0.160591 0)
(-0.00579884 -0.0868727 0)
(-0.000729831 -0.0242984 0)
(-0.0567268 0.0329557 0)
(-0.0577354 0.0223733 0)
(-0.0587682 0.0117708 0)
(-0.0598266 0.00114768 0)
(-0.0609116 -0.00949684 0)
(-0.0620241 -0.0201636 0)
(-0.0631644 -0.0308538 0)
(-0.064333 -0.0415689 0)
(-0.0655298 -0.0523104 0)
(-0.0667541 -0.0630802 0)
(-0.0680051 -0.0738798 0)
(-0.0692814 -0.084711 0)
(-0.0705808 -0.0955749 0)
(-0.0719008 -0.106472 0)
(-0.0732379 -0.117403 0)
(-0.0745882 -0.128366 0)
(-0.0759467 -0.139359 0)
(-0.077308 -0.150377 0)
(-0.078666 -0.161414 0)
(-0.0800141 -0.172463 0)
(-0.081346 -0.183514 0)
(-0.0826559 -0.194558 0)
(-0.0839397 -0.205586 0)
(-0.0851959 -0.216594 0)
(-0.0864277 -0.227584 0)
(-0.0876448 -0.238573 0)
(-0.0888664 -0.249598 0)
(-0.0901236 -0.260729 0)
(-0.0914625 -0.27208 0)
(-0.0929457 -0.283819 0)
(-0.0946523 -0.296184 0)
(-0.096674 -0.309485 0)
(-0.0991054 -0.324098 0)
(-0.102026 -0.340435 0)
(-0.105476 -0.358884 0)
(-0.109414 -0.379708 0)
(-0.113679 -0.4029 0)
(-0.117948 -0.427993 0)
(-0.1217 -0.453857 0)
(-0.124214 -0.478511 0)
(-0.124616 -0.499038 0)
(-0.121983 -0.511668 0)
(-0.115523 -0.512154 0)
(-0.104805 -0.496497 0)
(-0.0899999 -0.461974 0)
(-0.072041 -0.408273 0)
(-0.0525975 -0.338232 0)
(-0.0337885 -0.257696 0)
(-0.0176858 -0.174283 0)
(-0.0060519 -0.0955363 0)
(-0.000778869 -0.0272813 0)
(-0.046978 0.0339528 0)
(-0.0479879 0.0233964 0)
(-0.049027 0.0128213 0)
(-0.0500966 0.00222668 0)
(-0.0511978 -0.00838832 0)
(-0.0523316 -0.0190249 0)
(-0.0534986 -0.0296844 0)
(-0.0546991 -0.0403687 0)
(-0.055933 -0.0510796 0)
(-0.0572001 -0.0618194 0)
(-0.0584995 -0.0725903 0)
(-0.0598299 -0.0833943 0)
(-0.0611895 -0.0942334 0)
(-0.0625758 -0.105109 0)
(-0.0639856 -0.116021 0)
(-0.0654152 -0.12697 0)
(-0.0668598 -0.137954 0)
(-0.0683142 -0.148969 0)
(-0.0697722 -0.160009 0)
(-0.0712273 -0.171068 0)
(-0.0726726 -0.182135 0)
(-0.0741017 -0.193201 0)
(-0.0755091 -0.204255 0)
(-0.0768913 -0.215289 0)
(-0.0782486 -0.226301 0)
(-0.0795868 -0.2373 0)
(-0.0809199 -0.248313 0)
(-0.0822729 -0.259397 0)
(-0.0836845 -0.270649 0)
(-0.0852104 -0.282223 0)
(-0.0869233 -0.294339 0)
(-0.0889116 -0.307298 0)
(-0.091272 -0.321477 0)
(-0.094095 -0.33731 0)
(-0.0974407 -0.355239 0)
(-0.101305 -0.37562 0)
(-0.105574 -0.398582 0)
(-0.109983 -0.423834 0)
(-0.114072 -0.450448 0)
(-0.11717 -0.476634 0)
(-0.118429 -0.499596 0)
(-0.116908 -0.515556 0)
(-0.111743 -0.520054 0)
(-0.102375 -0.508626 0)
(-0.0888124 -0.477867 0)
(-0.0718259 -0.42668 0)
(-0.0529771 -0.357252 0)
(-0.0343712 -0.275148 0)
(-0.0181662 -0.188183 0)
(-0.00628387 -0.104448 0)
(-0.000826024 -0.0303924 0)
(-0.0371851 0.0349481 0)
(-0.0381948 0.0244226 0)
(-0.0392388 0.0138799 0)
(-0.0403185 0.00331889 0)
(-0.041435 -0.00726142 0)
(-0.0425893 -0.0178625 0)
(-0.0437822 -0.028486 0)
(-0.045014 -0.0391341 0)
(-0.0462848 -0.049809 0)
(-0.0475944 -0.0605133 0)
(-0.048942 -0.0712496 0)
(-0.0503265 -0.0820206 0)
(-0.0517462 -0.0928286 0)
(-0.0531989 -0.103676 0)
(-0.0546818 -0.114563 0)
(-0.056191 -0.125491 0)
(-0.0577224 -0.136459 0)
(-0.0592706 -0.147464 0)
(-0.0608299 -0.1585 0)
(-0.0623937 -0.169562 0)
(-0.063955 -0.180639 0)
(-0.0655068 -0.191721 0)
(-0.0670429 -0.202796 0)
(-0.0685581 -0.213854 0)
(-0.0700506 -0.224888 0)
(-0.0715228 -0.235902 0)
(-0.0729843 -0.246913 0)
(-0.0744543 -0.257967 0)
(-0.075965 -0.269145 0)
(-0.0775645 -0.280584 0)
(-0.0793188 -0.292488 0)
(-0.081311 -0.305144 0)
(-0.083637 -0.318923 0)
(-0.0863934 -0.334274 0)
(-0.0896566 -0.35168 0)
(-0.0934513 -0.371575 0)
(-0.0977079 -0.394212 0)
(-0.102214 -0.419471 0)
(-0.10657 -0.446625 0)
(-0.110163 -0.474089 0)
(-0.112175 -0.499223 0)
(-0.111664 -0.518284 0)
(-0.107709 -0.526656 0)
(-0.0996406 -0.519462 0)
(-0.0873114 -0.492636 0)
(-0.0713305 -0.444276 0)
(-0.0531402 -0.375843 0)
(-0.0348135 -0.29252 0)
(-0.0185754 -0.20223 0)
(-0.00649345 -0.113573 0)
(-0.000870891 -0.0336211 0)
(-0.0273476 0.03594 0)
(-0.0283557 0.0254505 0)
(-0.0294032 0.0149453 0)
(-0.0304917 0.00442323 0)
(-0.0316224 -0.00611708 0)
(-0.0327964 -0.0166773 0)
(-0.0340144 -0.0272594 0)
(-0.035277 -0.0378657 0)
(-0.0365842 -0.0484989 0)
(-0.0379359 -0.0591619 0)
(-0.0393316 -0.0698578 0)
(-0.0407702 -0.0805897 0)
(-0.0422502 -0.0913605 0)
(-0.0437695 -0.102173 0)
(-0.0453256 -0.113029 0)
(-0.046915 -0.123929 0)
(-0.0485336 -0.134874 0)
(-0.0501766 -0.145861 0)
(-0.0518383 -0.156885 0)
(-0.0535122 -0.167942 0)
(-0.0551916 -0.179021 0)
(-0.0568692 -0.190113 0)
(-0.058538 -0.201203 0)
(-0.0601921 -0.212281 0)
(-0.0618277 -0.223336 0)
(-0.0634446 -0.234366 0)
(-0.0650486 -0.245382 0)
(-0.066654 -0.256418 0)
(-0.0682868 -0.267541 0)
(-0.0699879 -0.278873 0)
(-0.0718158 -0.290598 0)
(-0.0738476 -0.302986 0)
(-0.0761757 -0.316402 0)
(-0.0788993 -0.331298 0)
(-0.0821064 -0.348188 0)
(-0.085845 -0.367571 0)
(-0.0900826 -0.389813 0)
(-0.0946572 -0.414952 0)
(-0.0992275 -0.442461 0)
(-0.103237 -0.470969 0)
(-0.10591 -0.498018 0)
(-0.106313 -0.519946 0)
(-0.103485 -0.532032 0)
(-0.0966585 -0.529041 0)
(-0.0855432 -0.506276 0)
(-0.070587 -0.461017 0)
(-0.053105 -0.393938 0)
(-0.0351228 -0.309742 0)
(-0.0189148 -0.216369 0)
(-0.00667997 -0.122877 0)
(-0.000913135 -0.0369562 0)
(-0.0174649 0.0369269 0)
(-0.0184696 0.0264786 0)
(-0.0195192 0.0160163 0)
(-0.0206152 0.0055385 0)
(-0.021759 -0.00495631 0)
(-0.0229516 -0.0154701 0)
(-0.024194 -0.0260051 0)
(-0.0254866 -0.036564 0)
(-0.0268297 -0.0471497 0)