/*--------------------------------*- C++ -*----------------------------------*\
  =========                 |
  \\      /  F ield         | OpenFOAM: The Open Source CFD Toolbox
   \\    /   O peration     | Website:  https://openfoam.org
    \\  /    A nd           | Version:  9
     \\/     M anipulation  |
\*---------------------------------------------------------------------------*/
FoamFile
{
    format      ascii;
    class       surfaceScalarField;
    location    "0.5";
    object      phi;
}
// * * * * * * * * * * * * * * * * * * * * * * * * * * * * * * * * * * * * * //

dimensions      [0 3 -1 0 0 0 0];

internalField   nonuniform List<scalar> 
2407
(
-2.4999e-08
-7.13322e-10
-2.4234e-08
-7.64956e-10
-2.34206e-08
-8.13382e-10
-2.25623e-08
-8.58306e-10
-2.16628e-08
-8.99513e-10
-2.0726e-08
-9.36764e-10
-1.97562e-08
-9.69819e-10
-1.87577e-08
-9.98455e-10
-1.77353e-08
-1.02248e-09
-1.66936e-08
-1.04172e-09
-1.56375e-08
-1.05604e-09
-1.45722e-08
-1.06534e-09
-1.35026e-08
-1.06955e-09
-1.2434e-08
-1.0686e-09
-1.13715e-08
-1.06247e-09
-1.03204e-08
-1.05113e-09
-9.28584e-09
-1.03456e-09
-8.2731e-09
-1.01275e-09
-7.28745e-09
-9.85655e-10
-6.3342e-09
-9.5325e-10
-5.41872e-09
-9.15476e-10
-4.54647e-09
-8.72259e-10
-3.72296e-09
-8.23505e-10
-2.95386e-09
-7.69109e-10
-2.2449e-09
-7.0896e-10
-1.60194e-09
-6.42962e-10
-1.03088e-09
-5.71062e-10
-5.37589e-10
-4.93293e-10
-1.27735e-10
-4.09853e-10
1.93529e-10
-3.21262e-10
4.21956e-10
-2.28429e-10
5.54873e-10
-1.32918e-10
5.92794e-10
-3.7921e-11
5.411e-10
5.16929e-11
4.14204e-10
1.26896e-10
2.41191e-10
1.73014e-10
7.58416e-11
1.6535e-10
7.58428e-11
-6.97746e-08
-2.6202e-09
-6.77296e-08
-2.80994e-09
-6.55545e-08
-2.98844e-09
-6.32582e-08
-3.15462e-09
-6.08501e-08
-3.3076e-09
-5.83404e-08
-3.44649e-09
-5.57398e-08
-3.57043e-09
-5.30596e-08
-3.67862e-09
-5.03118e-08
-3.77034e-09
-4.75085e-08
-3.84499e-09
-4.46625e-08
-3.90205e-09
-4.17867e-08
-3.94112e-09
-3.88944e-08
-3.96186e-09
-3.5999e-08
-3.96402e-09
-3.3114e-08
-3.94742e-09
-3.02533e-08
-3.91188e-09
-2.74306e-08
-3.85727e-09
-2.46599e-08
-3.78342e-09
-2.19554e-08
-3.69016e-09
-1.93314e-08
-3.57727e-09
-1.68024e-08
-3.44448e-09
-1.43832e-08
-3.29147e-09
-1.20888e-08
-3.11788e-09
-9.93458e-09
-2.92335e-09
-7.936e-09
-2.70754e-09
-6.10872e-09
-2.47025e-09
-4.46827e-09
-2.21151e-09
-3.02973e-09
-1.93183e-09
-1.80715e-09
-1.63243e-09
-8.12708e-10
-1.31571e-09
-5.53183e-11
-9.85818e-10
4.61591e-10
-6.49828e-10
7.42324e-10
-3.18656e-10
8.04172e-10
-1.01532e-11
6.82024e-10
2.49045e-10
4.37083e-10
4.17954e-10
1.63593e-10
4.38842e-10
2.39434e-10
-1.09563e-07
-5.53688e-09
-1.06436e-07
-5.93684e-09
-1.03111e-07
-6.31375e-09
-9.96004e-08
-6.6653e-09
-9.59183e-08
-6.98963e-09
-9.208e-08
-7.28485e-09
-8.81013e-08
-7.54916e-09
-8.3999e-08
-7.78091e-09
-7.97907e-08
-7.97861e-09
-7.54947e-08
-8.14097e-09
-7.11299e-08
-8.26692e-09
-6.67154e-08
-8.35556e-09
-6.22711e-08
-8.40616e-09
-5.7817e-08
-8.41812e-09
-5.33735e-08
-8.39096e-09
-4.89611e-08
-8.32425e-09
-4.46008e-08
-8.21759e-09
-4.03136e-08
-8.07056e-09
-3.61211e-08
-7.88269e-09
-3.20449e-08
-7.65343e-09
-2.81073e-08
-7.38215e-09
-2.43306e-08
-7.06815e-09
-2.07378e-08
-6.71067e-09
-1.73522e-08
-6.309e-09
-1.41971e-08
-5.86256e-09
-1.12962e-08
-5.37115e-09
-8.67256e-09
-4.8352e-09
-6.34819e-09
-4.2562e-09
-4.34329e-09
-3.63734e-09
-2.67469e-09
-2.9843e-09
-1.35396e-09
-2.30655e-09
-3.84815e-10
-1.61898e-09
2.40863e-10
-9.44335e-10
5.47338e-10
-3.1663e-10
5.81392e-10
2.14987e-10
4.18563e-10
5.80786e-10
1.70555e-10
6.86848e-10
4.0999e-10
-1.44666e-07
-9.318e-09
-1.40615e-07
-9.98813e-09
-1.36308e-07
-1.06202e-08
-1.31763e-07
-1.12106e-08
-1.26997e-07
-1.1756e-08
-1.22028e-07
-1.22532e-08
-1.16878e-07
-1.26995e-08
-1.11567e-07
-1.30918e-08
-1.06118e-07
-1.3428e-08
-1.00553e-07
-1.37057e-08
-9.48966e-08
-1.39232e-08
-8.91732e-08
-1.4079e-08
-8.34075e-08
-1.41719e-08
-7.76249e-08
-1.42007e-08
-7.18514e-08
-1.41645e-08
-6.61129e-08
-1.40627e-08
-6.04362e-08
-1.38943e-08
-5.48481e-08
-1.36587e-08
-4.93758e-08
-1.33549e-08
-4.40473e-08
-1.2982e-08
-3.88907e-08
-1.25388e-08
-3.39347e-08
-1.20241e-08
-2.92085e-08
-1.14369e-08
-2.47417e-08
-1.07758e-08
-2.05639e-08
-1.00403e-08
-1.67048e-08
-9.23032e-09
-1.3193e-08
-8.34695e-09
-1.00559e-08
-7.39328e-09
-7.31804e-09
-6.37525e-09
-4.99936e-09
-5.30299e-09
-3.11326e-09
-4.19265e-09
-1.66343e-09
-3.06882e-09
-6.40104e-10
-1.96766e-09
-1.56398e-11
-9.41098e-10
2.61299e-10
-6.19493e-11
2.70875e-10
5.71209e-10
1.28929e-10
8.28794e-10
5.3892e-10
-1.75441e-07
-1.38487e-08
-1.7059e-07
-1.48386e-08
-1.65438e-07
-1.5773e-08
-1.60002e-07
-1.66463e-08
-1.54304e-07
-1.74539e-08
-1.48366e-07
-1.8191e-08
-1.42212e-07
-1.88534e-08
-1.35867e-07
-1.94369e-08
-1.29357e-07
-1.99382e-08
-1.22709e-07
-2.0354e-08
-1.1595e-07
-2.06818e-08
-1.0911e-07
-2.09193e-08
-1.02217e-07
-2.10645e-08
-9.53018e-08
-2.1116e-08
-8.83939e-08
-2.10724e-08
-8.15241e-08
-2.09324e-08
-7.47236e-08
-2.06948e-08
-6.80239e-08
-2.03584e-08
-6.14569e-08
-1.99219e-08
-5.50553e-08
-1.93836e-08
-4.88519e-08
-1.87421e-08
-4.28804e-08
-1.79956e-08
-3.71749e-08
-1.71424e-08
-3.17695e-08
-1.61812e-08
-2.66988e-08
-1.51111e-08
-2.19967e-08
-1.39324e-08
-1.76962e-08
-1.26475e-08
-1.38282e-08
-1.12613e-08
-1.04201e-08
-9.78328e-09
-7.49438e-09
-8.22873e-09
-5.06563e-09
-6.62141e-09
-3.13799e-09
-4.99646e-09
-1.70149e-09
-3.40416e-09
-7.27928e-10
-1.91466e-09
-1.66501e-10
-6.23374e-10
6.12842e-11
3.43423e-10
6.64405e-11
8.23637e-10
6.05358e-10
-2.02288e-07
-1.90382e-08
-1.96737e-07
-2.03894e-08
-1.90845e-07
-2.1665e-08
-1.84634e-07
-2.28579e-08
-1.78126e-07
-2.39615e-08
-1.71348e-07
-2.49694e-08
-1.64326e-07
-2.58757e-08
-1.57087e-07
-2.66751e-08
-1.49663e-07
-2.73628e-08
-1.42082e-07
-2.79347e-08
-1.34377e-07
-2.83871e-08
-1.26579e-07
-2.87172e-08
-1.18721e-07
-2.89224e-08
-1.10837e-07
-2.90004e-08
-1.0296e-07
-2.89495e-08
-9.5124e-08
-2.8768e-08
-8.73648e-08
-2.84541e-08
-7.97171e-08
-2.80061e-08
-7.22166e-08
-2.74223e-08
-6.48996e-08
-2.67007e-08
-5.78026e-08
-2.58391e-08
-5.09631e-08
-2.48352e-08
-4.44184e-08
-2.36871e-08
-3.82066e-08
-2.2393e-08
-3.23652e-08
-2.09524e-08
-2.69316e-08
-1.93661e-08
-2.19414e-08
-1.76376e-08
-1.74281e-08
-1.57746e-08
-1.34212e-08
-1.37902e-08
-9.94461e-09
-1.17053e-08
-7.01413e-09
-9.55189e-09
-4.63481e-09
-7.37578e-09
-2.79763e-09
-5.24134e-09
-1.47604e-09
-3.23625e-09
-6.22294e-10
-1.47712e-09
-1.63889e-10
-1.14984e-10
-3.35088e-13
6.60079e-10
6.05019e-10
-2.2563e-07
-2.48152e-08
-2.19457e-07
-2.65623e-08
-2.1291e-07
-2.8212e-08
-2.06013e-07
-2.97549e-08
-1.98793e-07
-3.11824e-08
-1.91276e-07
-3.24862e-08
-1.83492e-07
-3.36589e-08
-1.75474e-07
-3.46936e-08
-1.67253e-07
-3.55843e-08
-1.58862e-07
-3.63256e-08
-1.50335e-07
-3.69133e-08
-1.41709e-07
-3.73433e-08
-1.33019e-07
-3.76127e-08
-1.24301e-07
-3.77186e-08
-1.15592e-07
-3.76586e-08
-1.06929e-07
-3.74307e-08
-9.83503e-08
-3.70328e-08
-8.98938e-08
-3.64626e-08
-8.15981e-08
-3.57181e-08
-7.35021e-08
-3.47967e-08
-6.56454e-08
-3.36958e-08
-5.80678e-08
-3.24128e-08
-5.08095e-08
-3.09454e-08
-4.39108e-08
-2.92918e-08
-3.74116e-08
-2.74515e-08
-3.13513e-08
-2.54264e-08
-2.57673e-08
-2.32216e-08
-2.06948e-08
-2.08472e-08
-1.61645e-08
-1.83205e-08
-1.22014e-08
-1.56684e-08
-8.82257e-09
-1.29308e-08
-6.03411e-09
-1.01642e-08
-3.82881e-09
-7.44665e-09
-2.18298e-09
-4.88208e-09
-1.05367e-09
-2.60644e-09
-3.76166e-10
-7.92487e-10
-6.20802e-11
3.45989e-10
5.42938e-10
-2.45899e-07
-3.11242e-08
-2.39164e-07
-3.32971e-08
-2.32028e-07
-3.53487e-08
-2.24515e-07
-3.72672e-08
-2.16656e-07
-3.90417e-08
-2.0848e-07
-4.06621e-08
-2.0002e-07
-4.2119e-08
-1.9131e-07
-4.3404e-08
-1.82384e-07
-4.451e-08
-1.73279e-07
-4.54304e-08
-1.64033e-07
-4.61599e-08
-1.54682e-07
-4.66939e-08
-1.45266e-07
-4.70285e-08
-1.35824e-07
-4.71607e-08
-1.26395e-07
-4.70876e-08
-1.17019e-07
-4.68066e-08
-1.07737e-07
-4.63154e-08
-9.85876e-08
-4.56116e-08
-8.96132e-08
-4.46925e-08
-8.08545e-08
-4.35554e-08
-7.2353e-08
-4.21973e-08
-6.41504e-08
-4.06154e-08
-5.62886e-08
-3.88071e-08
-4.88096e-08
-3.67708e-08
-4.17547e-08
-3.45065e-08
-3.51643e-08
-3.20168e-08
-2.90771e-08
-2.93088e-08
-2.3529e-08
-2.63953e-08
-1.85517e-08
-2.32978e-08
-1.41709e-08
-2.00492e-08
-1.04044e-08
-1.66972e-08
-7.25996e-09
-1.33087e-08
-4.73236e-09
-9.97425e-09
-2.80131e-09
-6.81313e-09
-1.4291e-09
-3.97865e-09
-5.58939e-10
-1.66265e-09
-1.14061e-10
-9.8891e-11
4.28878e-10
-2.76643e-07
-3.22955e-08
-2.7032e-07
-3.51666e-08
-2.63521e-07
-3.79229e-08
-2.5627e-07
-4.05479e-08
-2.48593e-07
-4.30257e-08
-2.40519e-07
-4.53417e-08
-2.32078e-07
-4.74827e-08
-2.23303e-07
-4.94364e-08
-2.14231e-07
-5.11917e-08
-2.04896e-07
-5.27387e-08
-1.95337e-07
-5.40687e-08
-1.85593e-07
-5.51743e-08
-1.75704e-07
-5.6049e-08
-1.6571e-07
-5.66876e-08
-1.55653e-07
-5.70858e-08
-1.45574e-07
-5.72398e-08
-1.35515e-07
-5.71467e-08
-1.25518e-07
-5.68037e-08
-1.15625e-07
-5.62082e-08
-1.05879e-07
-5.53575e-08
-9.63227e-08
-5.42489e-08
-8.69985e-08
-5.28796e-08
-7.79494e-08
-5.12464e-08
-6.92185e-08
-4.93463e-08
-6.08488e-08
-4.71769e-08
-5.28829e-08
-4.47367e-08
-4.53631e-08
-4.20263e-08
-3.83304e-08
-3.90495e-08
-3.18239e-08
-3.58153e-08
-2.58798e-08
-3.23394e-08
-2.05301e-08
-2.86474e-08
-1.58012e-08
-2.47781e-08
-1.17115e-08
-2.07869e-08
-8.26998e-09
-1.67502e-08
-5.47361e-09
-1.27706e-08
-3.30531e-09
-8.98144e-09
-1.73219e-09
-5.55177e-09
-7.04317e-10
-2.69052e-09
-1.54295e-10
-6.48911e-10
2.74579e-10
-3.04836e-07
-3.13941e-08
-2.99151e-07
-3.50098e-08
-2.92921e-07
-3.85257e-08
-2.86165e-07
-4.1922e-08
-2.78908e-07
-4.51804e-08
-2.71174e-07
-4.82815e-08
-2.62993e-07
-5.1207e-08
-2.54395e-07
-5.39396e-08
-2.45414e-07
-5.64638e-08
-2.36085e-07
-5.8765e-08
-2.26447e-07
-6.08302e-08
-2.16538e-07
-6.26479e-08
-2.06398e-07
-6.42079e-08
-1.96071e-07
-6.55017e-08
-1.85598e-07
-6.65221e-08
-1.75022e-07
-6.72632e-08
-1.64388e-07
-6.772e-08
-1.53739e-07
-6.78888e-08
-1.43119e-07
-6.77663e-08
-1.32574e-07
-6.73496e-08
-1.22146e-07
-6.66362e-08
-1.1188e-07
-6.56235e-08
-1.0182e-07
-6.43089e-08
-9.20098e-08
-6.26894e-08
-8.24941e-08
-6.07621e-08
-7.33163e-08
-5.85241e-08
-6.452e-08
-5.59732e-08
-5.61483e-08
-5.31083e-08
-4.82437e-08
-4.99309e-08
-4.08471e-08
-4.64461e-08
-3.39977e-08
-4.26647e-08
-2.77317e-08
-3.86054e-08
-2.2081e-08
-3.42982e-08
-1.7072e-08
-2.97871e-08
-1.27238e-08
-2.5135e-08
-9.04628e-09
-2.04277e-08
-6.03803e-09
-1.57789e-08
-3.68459e-09
-1.13349e-08
-1.95682e-09
-7.27953e-09
-8.09806e-10
-3.83753e-09
-1.82464e-10
-1.27625e-09
9.21147e-11
-3.19963e-07
-3.68423e-08
-3.13922e-07
-4.10505e-08
-3.07307e-07
-4.51406e-08
-3.0014e-07
-4.9089e-08
-2.92447e-07
-5.2874e-08
-2.84255e-07
-5.64737e-08
-2.75595e-07
-5.9867e-08
-2.665e-07
-6.30341e-08
-2.57007e-07
-6.59565e-08
-2.47155e-07
-6.86176e-08
-2.36983e-07
-7.10023e-08
-2.26533e-07
-7.30973e-08
-2.1585e-07
-7.48911e-08
-2.04978e-07
-7.6374e-08
-1.93962e-07
-7.7538e-08
-1.82849e-07
-7.83766e-08
-1.71684e-07
-7.88847e-08
-1.60515e-07
-7.90582e-08
-1.49387e-07
-7.88939e-08
-1.38347e-07
-7.83892e-08
-1.27442e-07
-7.75419e-08
-1.16716e-07
-7.63495e-08
-1.06215e-07
-7.48098e-08
-9.59837e-08
-7.29203e-08
-8.60676e-08
-7.06782e-08
-7.65106e-08
-6.80811e-08
-6.73565e-08
-6.51273e-08
-5.86483e-08
-6.18164e-08
-5.04284e-08
-5.81508e-08
-4.27374e-08
-5.41371e-08
-3.56141e-08
-4.9788e-08
-2.9094e-08
-4.51255e-08
-2.32089e-08
-4.01833e-08
-1.79849e-08
-3.50111e-08
-1.34411e-08
-2.96788e-08
-9.58786e-09
-2.4281e-08
-6.42477e-09
-1.8942e-08
-3.93895e-09
-1.38207e-08
-2.10349e-09
-9.11499e-09
-8.76238e-10
-5.06478e-09
-1.99159e-10
-1.95333e-09
-1.07039e-10
-3.33545e-07
-4.26024e-08
-3.27162e-07
-4.74331e-08
-3.20178e-07
-5.21254e-08
-3.12614e-07
-5.66522e-08
-3.045e-07
-6.09883e-08
-2.95865e-07
-6.5109e-08
-2.86742e-07
-6.89901e-08
-2.77167e-07
-7.26087e-08
-2.6718e-07
-7.59439e-08
-2.56821e-07
-7.89764e-08
-2.46134e-07
-8.16889e-08
-2.35165e-07
-8.40664e-08
-2.2396e-07
-8.6096e-08
-2.12567e-07
-8.77669e-08
-2.01035e-07
-8.90703e-08
-1.89412e-07
-8.99992e-08
-1.77749e-07
-9.05484e-08
-1.66093e-07
-9.07139e-08
-1.54494e-07
-9.04928e-08
-1.43e-07
-8.98829e-08
-1.3166e-07
-8.88826e-08
-1.20519e-07
-8.749e-08
-1.09626e-07
-8.57036e-08
-9.90245e-08
-8.35213e-08
-8.87613e-08
-8.09414e-08
-7.88804e-08
-7.7962e-08
-6.94257e-08
-7.45821e-08
-6.04399e-08
-7.08022e-08
-5.19647e-08
-6.6626e-08
-4.40402e-08
-6.20616e-08
-3.67043e-08
-5.71239e-08
-2.99919e-08
-5.18379e-08
-2.39338e-08
-4.62414e-08
-1.85555e-08
-4.03894e-08
-1.38757e-08
-3.43586e-08
-9.90451e-09
-2.82522e-08
-6.64158e-09
-2.22049e-08
-4.0744e-09
-1.63879e-08
-2.17656e-09
-1.10128e-08
-9.06303e-10
-6.33503e-09
-2.05419e-10
-2.65421e-09
-3.12457e-10
-3.45935e-07
-4.86634e-08
-3.39222e-07
-5.41466e-08
-3.31877e-07
-5.94701e-08
-3.23927e-07
-6.46024e-08
-3.154e-07
-6.95152e-08
-3.06329e-07
-7.41799e-08
-2.9675e-07
-7.85691e-08
-2.86702e-07
-8.26569e-08
-2.76227e-07
-8.64193e-08
-2.65369e-07
-8.98344e-08
-2.54175e-07
-9.28826e-08
-2.42694e-07
-9.5547e-08
-2.30977e-07
-9.78132e-08
-2.19075e-07
-9.96694e-08
-2.07039e-07
-1.01106e-07
-1.94922e-07
-1.02116e-07
-1.82777e-07
-1.02693e-07
-1.70656e-07
-1.02836e-07
-1.58609e-07
-1.0254e-07
-1.46688e-07
-1.01804e-07
-1.34941e-07
-1.00629e-07
-1.23419e-07
-9.90122e-08
-1.12169e-07
-9.69541e-08
-1.01236e-07
-9.44536e-08
-9.06681e-08
-9.15098e-08
-8.05081e-08
-8.8122e-08
-7.08e-08
-8.42902e-08
-6.15861e-08
-8.00162e-08
-5.29071e-08
-7.53049e-08
-4.48023e-08
-7.01664e-08
-3.73084e-08
-6.46179e-08
-3.0459e-08
-5.86872e-08
-2.42839e-08
-5.24165e-08
-1.88074e-08
-4.58659e-08
-1.40471e-08
-3.91189e-08
-1.0012e-08
-3.22873e-08
-6.7009e-09
-2.5516e-08
-4.10026e-09
-1.89885e-08
-2.18237e-09
-1.29307e-08
-9.03531e-10
-7.61387e-09
-2.02451e-10
-3.35529e-09
-5.14911e-10
-3.57457e-07
-5.50166e-08
-3.50419e-07
-6.11841e-08
-3.4272e-07
-6.71693e-08
-3.34386e-07
-7.29363e-08
-3.25449e-07
-7.84526e-08
-3.15943e-07
-8.36858e-08
-3.05907e-07
-8.8605e-08
-2.95383e-07
-9.31807e-08
-2.84417e-07
-9.73856e-08
-2.73056e-07
-1.01195e-07
-2.61352e-07
-1.04587e-07
-2.49357e-07
-1.07542e-07
-2.37126e-07
-1.10045e-07
-2.24713e-07
-1.12082e-07
-2.12175e-07
-1.13644e-07
-1.99567e-07
-1.14723e-07
-1.86947e-07
-1.15314e-07
-1.74367e-07
-1.15415e-07
-1.61884e-07
-1.15023e-07
-1.4955e-07
-1.14138e-07
-1.37417e-07
-1.12762e-07
-1.25534e-07
-1.10894e-07
-1.13952e-07
-1.08536e-07
-1.02718e-07
-1.05688e-07
-9.18766e-08
-1.02351e-07
-8.14731e-08
-9.85255e-08
-7.15504e-08
-9.42129e-08
-6.21498e-08
-8.94167e-08
-5.33113e-08
-8.41435e-08
-4.50725e-08
-7.84052e-08
-3.74688e-08
-7.22216e-08
-3.05323e-08
-6.56238e-08
-2.4291e-08
-5.86578e-08
-1.87675e-08
-5.13894e-08
-1.39776e-08
-4.39088e-08
-9.92856e-09
-3.63363e-08
-6.61704e-09
-2.88275e-08
-4.02707e-09
-2.15785e-08
-2.12786e-09
-1.48299e-08
-8.7164e-10
-8.87008e-09
-1.91446e-10
-4.03549e-09
-7.06357e-10
-3.684e-07
-6.1656e-08
-3.61042e-07
-6.85423e-08
-3.52989e-07
-7.52224e-08
-3.44269e-07
-8.16555e-08
-3.34917e-07
-8.78046e-08
-3.2497e-07
-9.36334e-08
-3.14469e-07
-9.91064e-08
-3.03459e-07
-1.0419e-07
-2.9199e-07
-1.08854e-07
-2.80115e-07
-1.1307e-07
-2.67887e-07
-1.16814e-07
-2.55365e-07
-1.20064e-07
-2.42607e-07
-1.22803e-07
-2.29672e-07
-1.25017e-07
-2.16622e-07
-1.26695e-07
-2.03515e-07
-1.27829e-07
-1.90413e-07
-1.28416e-07
-1.77374e-07
-1.28454e-07
-1.64455e-07
-1.27942e-07
-1.51713e-07
-1.26881e-07
-1.39201e-07
-1.25274e-07
-1.26971e-07
-1.23124e-07
-1.15074e-07
-1.20433e-07
-1.03557e-07
-1.17205e-07
-9.24671e-08
-1.13441e-07
-8.1848e-08
-1.09145e-07
-7.17421e-08
-1.04319e-07
-6.21898e-08
-9.8969e-08
-5.32294e-08
-9.31038e-08
-4.48972e-08
-8.67374e-08
-3.72266e-08
-7.98922e-08
-3.02476e-08
-7.26027e-08
-2.39861e-08
-6.49193e-08
-1.84624e-08
-5.69131e-08
-1.36897e-08
-4.86815e-08
-9.67252e-09
-4.03535e-08
-6.40427e-09
-3.20958e-08
-3.86518e-09
-2.41176e-08
-2.01974e-09
-1.66754e-08
-8.14126e-10
-1.00757e-08
-1.73473e-10
-4.67614e-09
-8.79828e-10
-3.79025e-07
-6.85779e-08
-3.71346e-07
-7.62209e-08
-3.62936e-07
-8.36324e-08
-3.53825e-07
-9.07665e-08
-3.44049e-07
-9.75812e-08
-3.33647e-07
-1.04035e-07
-3.22664e-07
-1.10089e-07
-3.11151e-07
-1.15704e-07
-2.9916e-07
-1.20845e-07
-2.86748e-07
-1.25483e-07
-2.73975e-07
-1.29587e-07
-2.60902e-07
-1.33137e-07
-2.47595e-07
-1.36111e-07
-2.34117e-07
-1.38494e-07
-2.20534e-07
-1.40277e-07
-2.06912e-07
-1.41452e-07
-1.93313e-07
-1.42015e-07
-1.79802e-07
-1.41965e-07
-1.6644e-07
-1.41304e-07
-1.53284e-07
-1.40036e-07
-1.40393e-07
-1.38165e-07
-1.2782e-07
-1.35697e-07
-1.15616e-07
-1.32637e-07
-1.0383e-07
-1.28991e-07
-9.25087e-08
-1.24762e-07
-8.16956e-08
-1.19958e-07
-7.14321e-08
-1.14582e-07
-6.17573e-08
-1.08644e-07
-5.27079e-08
-1.02153e-07
-4.43179e-08
-9.51273e-08
-3.66187e-08
-8.75915e-08
-2.96376e-08
-7.95838e-08
-2.33979e-08
-7.11591e-08
-1.79167e-08
-6.23943e-08
-1.3204e-08
-5.33941e-08
-9.26062e-09
-4.42969e-08
-6.07556e-09
-3.52808e-08
-3.62395e-09
-2.65692e-08
-1.86398e-09
-1.84354e-08
-7.34028e-10
-1.12056e-08
-1.49436e-10
-5.26073e-09
-1.02927e-09
-3.89564e-07
-7.57809e-08
-3.81562e-07
-8.42225e-08
-3.72788e-07
-9.24063e-08
-3.63274e-07
-1.0028e-07
-3.53058e-07
-1.07797e-07
-3.42183e-07
-1.1491e-07
-3.30698e-07
-1.21574e-07
-3.18655e-07
-1.27746e-07
-3.06114e-07
-1.33387e-07
-2.93136e-07
-1.38461e-07
-2.79785e-07
-1.42938e-07
-2.66131e-07
-1.46791e-07
-2.52243e-07
-1.49999e-07
-2.38191e-07
-1.52546e-07
-2.24047e-07
-1.54422e-07
-2.09881e-07
-1.55618e-07
-1.95762e-07
-1.56134e-07
-1.81759e-07
-1.55969e-07
-1.67935e-07
-1.55128e-07
-1.54355e-07
-1.53617e-07
-1.41076e-07
-1.51444e-07
-1.28156e-07
-1.48617e-07
-1.15648e-07
-1.45146e-07
-1.036e-07
-1.41038e-07
-9.20588e-08
-1.36303e-07
-8.10681e-08
-1.30948e-07
-7.06678e-08
-1.24983e-07
-6.08954e-08
-1.18416e-07
-5.17854e-08
-1.11263e-07
-4.33696e-08
-1.03543e-07
-3.56764e-08
-9.52847e-08
-2.87301e-08
-8.653e-08
-2.25506e-08
-7.73386e-08
-1.71514e-08
-6.77935e-08
-1.25382e-08
-5.80073e-08
-8.70716e-09
-4.8128e-08
-5.64195e-09
-3.8346e-08
-3.31123e-09
-2.88999e-08
-1.66551e-09
-2.00811e-08
-6.3382e-10
-1.22373e-08
-1.20052e-10
-5.7745e-09
-1.14932e-09
-4.00226e-07
-8.32653e-08
-3.91896e-07
-9.25525e-08
-3.82748e-07
-1.01554e-07
-3.72816e-07
-1.10212e-07
-3.6214e-07
-1.18473e-07
-3.50767e-07
-1.26283e-07
-3.3875e-07
-1.33591e-07
-3.26146e-07
-1.4035e-07
-3.1302e-07
-1.46514e-07
-2.99437e-07
-1.52043e-07
-2.85471e-07
-1.56904e-07
-2.71195e-07
-1.61066e-07
-2.56686e-07
-1.64508e-07
-2.42021e-07
-1.67211e-07
-2.27277e-07
-1.69165e-07
-2.12532e-07
-1.70363e-07
-1.9786e-07
-1.70805e-07
-1.83335e-07
-1.70494e-07
-1.69026e-07
-1.69436e-07
-1.55e-07
-1.67643e-07
-1.4132e-07
-1.65124e-07
-1.28044e-07
-1.61893e-07
-1.15227e-07
-1.57963e-07
-1.02918e-07
-1.53347e-07
-9.1164e-08
-1.48057e-07
-8.00076e-08
-1.42105e-07
-6.94873e-08
-1.35503e-07
-5.96385e-08
-1.28265e-07
-5.04934e-08
-1.20408e-07
-4.20805e-08
-1.11956e-07
-3.44251e-08
-1.0294e-07
-2.75477e-08
-9.34073e-08
-2.14641e-08
-8.34222e-08
-1.61834e-08
-7.30742e-08
-1.17065e-08
-6.24842e-08
-8.02369e-09
-5.18108e-08
-5.11225e-09
-4.12575e-08
-2.93326e-09
-3.10789e-08
-1.42822e-09
-2.15861e-08
-5.15401e-10
-1.31502e-08
-8.58526e-11
-6.20405e-09
-1.23517e-09
-4.11199e-07
-9.10329e-08
-4.02533e-07
-1.01218e-07
-3.92998e-07
-1.1109e-07
-3.82629e-07
-1.20581e-07
-3.7147e-07
-1.29632e-07
-3.5957e-07
-1.38183e-07
-3.46986e-07
-1.46175e-07
-3.33783e-07
-1.53553e-07
-3.20029e-07
-1.60268e-07
-3.05798e-07
-1.66274e-07
-2.91168e-07
-1.71533e-07
-2.76222e-07
-1.76012e-07
-2.61044e-07
-1.79687e-07
-2.45717e-07
-1.82538e-07
-2.30328e-07
-1.84555e-07
-2.14959e-07
-1.85732e-07
-1.99694e-07
-1.86071e-07
-1.8461e-07
-1.85577e-07
-1.69784e-07
-1.84263e-07
-1.55286e-07
-1.8214e-07
-1.41183e-07
-1.79227e-07
-1.27535e-07
-1.75541e-07
-1.14399e-07
-1.71099e-07
-1.01826e-07
-1.6592e-07
-8.98622e-08
-1.60021e-07
-7.85482e-08
-1.53419e-07
-6.79212e-08
-1.4613e-07
-5.80143e-08
-1.38172e-07
-4.88565e-08
-1.29566e-07
-4.04729e-08
-1.2034e-07
-3.28845e-08
-1.10529e-07
-2.61079e-08
-1.00184e-07
-2.01538e-08
-8.93762e-08
-1.50262e-08
-7.82019e-08
-1.072e-08
-6.67904e-08
-7.21907e-09
-5.53117e-08
-4.49319e-09
-4.39834e-08
-2.49471e-09
-3.30774e-08
-1.15495e-09
-2.29259e-08
-3.80133e-10
-1.3925e-08
-4.71975e-11
-6.53699e-09
-1.28236e-09
-4.22658e-07
-9.90862e-08
-4.13647e-07
-1.10229e-07
-4.03709e-07
-1.21028e-07
-3.92882e-07
-1.31409e-07
-3.81211e-07
-1.41303e-07
-3.6875e-07
-1.50643e-07
-3.55562e-07
-1.59363e-07
-3.41715e-07
-1.674e-07
-3.27285e-07
-1.74698e-07
-3.12354e-07
-1.81205e-07
-2.97008e-07
-1.86879e-07
-2.81337e-07
-1.91684e-07
-2.65432e-07
-1.95591e-07
-2.49389e-07
-1.98582e-07
-2.33299e-07
-2.00644e-07
-2.17256e-07
-2.01775e-07
-2.01348e-07
-2.01979e-07
-1.85661e-07
-2.01264e-07
-1.70278e-07
-1.99646e-07
-1.55274e-07
-1.97145e-07
-1.40719e-07
-1.93782e-07
-1.26679e-07
-1.89582e-07
-1.13209e-07
-1.84568e-07
-1.00364e-07
-1.78766e-07
-8.81868e-08
-1.72198e-07
-7.67192e-08
-1.64887e-07
-6.59955e-08
-1.56854e-07
-5.60456e-08
-1.48122e-07
-4.6895e-08
-1.38717e-07
-3.85645e-08
-1.2867e-07
-3.10706e-08
-1.18022e-07
-2.44246e-08
-1.0683e-07
-1.86317e-08
-9.51691e-08
-1.36897e-08
-8.31439e-08
-9.58702e-09
-7.08931e-08
-6.29992e-09
-5.85988e-08
-3.78968e-09
-4.64936e-08
-1.99894e-09
-3.48681e-08
-8.47667e-10
-2.40771e-08
-2.28924e-10
-1.45437e-08
-4.31506e-12
-6.76159e-09
-1.28668e-09
-4.34764e-07
-1.07427e-07
-4.254e-07
-1.19593e-07
-4.15044e-07
-1.31384e-07
-4.03735e-07
-1.42717e-07
-3.91523e-07
-1.53515e-07
-3.78466e-07
-1.637e-07
-3.64631e-07
-1.73198e-07
-3.50093e-07
-1.81938e-07
-3.34936e-07
-1.89855e-07
-3.19249e-07
-1.96893e-07
-3.03126e-07
-2.03002e-07
-2.86667e-07
-2.08142e-07
-2.69975e-07
-2.12284e-07
-2.53152e-07
-2.15405e-07
-2.363e-07
-2.17496e-07
-2.19522e-07
-2.18554e-07
-2.02915e-07
-2.18585e-07
-1.86573e-07
-2.17605e-07
-1.70585e-07
-2.15634e-07
-1.55033e-07
-2.12697e-07
-1.39991e-07
-2.08824e-07
-1.25528e-07
-2.04045e-07
-1.11703e-07
-1.98393e-07
-9.857e-08
-1.91899e-07
-8.61731e-08
-1.84595e-07
-7.45511e-08
-1.76509e-07
-6.37362e-08
-1.67668e-07
-5.37549e-08
-1.58103e-07
-4.46282e-08
-1.47844e-07
-3.63721e-08
-1.36926e-07
-2.89976e-08
-1.25397e-07
-2.25099e-08
-1.13318e-07
-1.69079e-08
-1.00771e-07
-1.21825e-08
-8.78693e-08
-8.3143e-09
-7.47613e-08
-5.27134e-09
-6.16418e-08
-3.00541e-09
-4.87595e-08
-1.44835e-09
-3.64252e-08
-5.07731e-10
-2.50178e-08
-6.23336e-11
-1.49891e-08
4.26721e-11
-6.86659e-09
-1.244e-09
-4.47677e-07
-1.16055e-07
-4.37953e-07
-1.29317e-07
-4.27165e-07
-1.42173e-07
-4.15354e-07
-1.54528e-07
-4.02573e-07
-1.66297e-07
-3.88883e-07
-1.77389e-07
-3.74359e-07
-1.87722e-07
-3.59082e-07
-1.97215e-07
-3.43143e-07
-2.05794e-07
-3.26641e-07
-2.13395e-07
-3.09679e-07
-2.19963e-07
-2.92368e-07
-2.25454e-07
-2.74819e-07
-2.29832e-07
-2.57147e-07
-2.33077e-07
-2.39465e-07
-2.35178e-07
-2.21885e-07
-2.36134e-07
-2.04513e-07
-2.35957e-07
-1.87454e-07
-2.34664e-07
-1.70804e-07
-2.32284e-07
-1.54652e-07
-2.28849e-07
-1.39078e-07
-2.24397e-07
-1.24154e-07
-2.18968e-07
-1.09944e-07
-2.12603e-07
-9.64998e-08
-2.05343e-07
-8.38675e-08
-1.97227e-07
-7.20834e-08
-1.88293e-07
-6.11769e-08
-1.78575e-07
-5.11702e-08
-1.6811e-07
-4.20795e-08
-1.56934e-07
-3.39151e-08
-1.45091e-07
-2.66813e-08
-1.32631e-07
-2.03768e-08
-1.19622e-07
-1.4993e-08
-1.06155e-07
-1.05127e-08
-9.23496e-08
-6.90817e-09
-7.83658e-08
-4.138e-09
-6.44119e-08
-2.14355e-09
-5.0754e-08
-8.44891e-10
-3.77239e-08
-1.3618e-10
-2.57265e-08
1.19181e-10
-1.52445e-08
9.36955e-11
-6.8411e-09
-1.15031e-09
-4.61562e-07
-1.24964e-07
-4.51477e-07
-1.39402e-07
-4.40248e-07
-1.53402e-07
-4.27918e-07
-1.66858e-07
-4.14543e-07
-1.79671e-07
-4.00191e-07
-1.91742e-07
-3.8494e-07
-2.02973e-07
-3.68878e-07
-2.13276e-07
-3.52107e-07
-2.22566e-07
-3.34732e-07
-2.3077e-07
-3.16869e-07
-2.37827e-07
-2.98638e-07
-2.43685e-07
-2.80162e-07
-2.48308e-07
-2.61568e-07
-2.51671e-07
-2.4298e-07
-2.53766e-07
-2.24522e-07
-2.54593e-07
-2.06311e-07
-2.54167e-07
-1.88463e-07
-2.52513e-07
-1.71081e-07
-2.49665e-07
-1.54265e-07
-2.45666e-07
-1.38101e-07
-2.40562e-07
-1.22665e-07
-2.34404e-07
-1.08025e-07
-2.27244e-07
-9.42353e-08
-2.19133e-07
-8.13407e-08
-2.10122e-07
-6.93763e-08
-2.00257e-07
-5.8368e-08
-1.89583e-07
-4.83337e-08
-1.78144e-07
-3.92836e-08
-1.65984e-07
-3.12215e-08
-1.53153e-07
-2.41446e-08
-1.39708e-07
-1.80434e-08
-1.25723e-07
-1.29009e-08
-1.11297e-07
-8.69106e-09
-9.65594e-08
-5.37652e-09
-8.16803e-08
-2.90544e-09
-6.6883e-08
-1.20776e-09
-5.24516e-08
-1.90734e-10
-3.87409e-08
2.6593e-10
-2.61831e-08
3.15354e-10
-1.52939e-08
1.4872e-10
-6.67447e-09
-1.00159e-09
-4.76597e-07
-1.34138e-07
-4.66159e-07
-1.4984e-07
-4.54491e-07
-1.6507e-07
-4.41638e-07
-1.79711e-07
-4.27658e-07
-1.93651e-07
-4.12623e-07
-2.06777e-07
-3.96617e-07
-2.18979e-07
-3.79737e-07
-2.30156e-07
-3.6209e-07
-2.40213e-07
-3.43793e-07
-2.49067e-07
-3.24971e-07
-2.56648e-07
-3.05756e-07
-2.62899e-07
-2.86284e-07
-2.6778e-07
-2.66692e-07
-2.71264e-07
-2.47118e-07
-2.7334e-07
-2.27697e-07
-2.74013e-07
-2.08562e-07
-2.73302e-07
-1.89838e-07
-2.71238e-07
-1.71641e-07
-2.67862e-07
-1.54079e-07
-2.63228e-07
-1.37247e-07
-2.57393e-07
-1.2123e-07
-2.50421e-07
-1.06097e-07
-2.42376e-07
-9.19075e-08
-2.33323e-07
-7.8706e-08
-2.23323e-07
-6.65262e-08
-2.12437e-07
-5.53907e-08
-2.00719e-07
-4.53125e-08
-1.88222e-07
-3.62955e-08
-1.75001e-07
-2.8336e-08
-1.61112e-07
-2.14228e-08
-1.46621e-07
-1.55374e-08
-1.31609e-07
-1.06531e-08
-1.16182e-07
-6.73374e-09
-1.00479e-07
-3.73109e-09
-8.4683e-08
-1.58183e-09
-6.90323e-08
-2.03335e-10
-5.38301e-08
5.11004e-10
-3.94552e-08
6.97066e-10
-2.63692e-08
5.25547e-10
-1.51224e-08
2.07657e-10
-6.35658e-09
-7.93931e-10
-4.92987e-07
-1.43544e-07
-4.82225e-07
-1.60602e-07
-4.7014e-07
-1.77155e-07
-4.56778e-07
-1.93073e-07
-4.42202e-07
-2.08228e-07
-4.26485e-07
-2.22493e-07
-4.09718e-07
-2.35746e-07
-3.92005e-07
-2.4787e-07
-3.73459e-07
-2.58759e-07
-3.54206e-07
-2.68319e-07
-3.34383e-07
-2.76472e-07
-3.1413e-07
-2.83152e-07
-2.93595e-07
-2.88314e-07
-2.7293e-07
-2.91929e-07
-2.52285e-07
-2.93985e-07
-2.3181e-07
-2.94488e-07
-2.1165e-07
-2.93462e-07
-1.91945e-07
-2.90942e-07
-1.72826e-07
-2.86981e-07
-1.54412e-07
-2.81642e-07
-1.3681e-07
-2.74996e-07
-1.20112e-07
-2.67119e-07
-1.04396e-07
-2.58093e-07
-8.97235e-08
-2.47995e-07
-7.61427e-08
-2.36904e-07
-6.36864e-08
-2.24893e-07
-5.23744e-08
-2.12031e-07
-4.22144e-08
-1.98382e-07
-3.32037e-08
-1.84012e-07
-2.53301e-08
-1.68986e-07
-1.8573e-08
-1.53378e-07
-1.29035e-08
-1.37278e-07
-8.28382e-09
-1.20801e-07
-4.66624e-09
-1.04096e-07
-1.9904e-09
-8.73588e-08
-1.80047e-10
-7.08426e-08
8.61269e-10
-5.48715e-08
1.25526e-09
-3.98492e-08
1.15457e-09
-2.62685e-08
7.48759e-10
-1.47166e-08
2.70317e-10
-5.87814e-09
-5.23614e-10
-5.10984e-07
-1.53122e-07
-4.99954e-07
-1.71631e-07
-4.87505e-07
-1.89604e-07
-4.73685e-07
-2.06893e-07
-4.58555e-07
-2.23358e-07
-4.42195e-07
-2.38854e-07
-4.24697e-07
-2.53244e-07
-4.0617e-07
-2.66397e-07
-3.86734e-07
-2.78195e-07
-3.66521e-07
-2.88532e-07
-3.45676e-07
-2.97318e-07
-3.24349e-07
-3.0448e-07
-3.02699e-07
-3.09964e-07
-2.80889e-07
-3.13738e-07
-2.59085e-07
-3.15789e-07
-2.37452e-07
-3.16122e-07
-2.1615e-07
-3.14763e-07
-1.95336e-07
-3.11756e-07
-1.75158e-07
-3.0716e-07
-1.5575e-07
-3.0105e-07
-1.37234e-07
-2.93511e-07
-1.19715e-07
-2.84638e-07
-1.03281e-07
-2.74527e-07
-8.80012e-08
-2.63275e-07
-7.39276e-08
-2.50978e-07
-6.10943e-08
-2.37726e-07
-4.95196e-08
-2.23606e-07
-3.92065e-08
-2.08696e-07
-3.01453e-08
-1.93073e-07
-2.23147e-08
-1.76816e-07
-1.56834e-08
-1.60009e-07
-1.02106e-08
-1.42751e-07
-5.84599e-09
-1.25166e-07
-2.5283e-09
-1.07414e-07
-1.83318e-10
-8.97038e-08
1.27975e-09
-7.23057e-08
1.97274e-09
-5.55644e-08
2.03395e-09
-3.99104e-08
1.63419e-09
-2.58688e-08
9.83239e-10
-1.40656e-08
3.36337e-10
-5.23123e-09
-1.87277e-10
-5.30907e-07
-1.62772e-07
-5.19712e-07
-1.82827e-07
-5.07002e-07
-2.02314e-07
-4.92823e-07
-2.21072e-07
-4.7724e-07
-2.38941e-07
-4.60329e-07
-2.55764e-07
-4.42186e-07
-2.71387e-07
-4.2292e-07
-2.85664e-07
-4.02652e-07
-2.98462e-07
-3.8152e-07
-3.09664e-07
-3.59671e-07
-3.19167e-07
-3.37263e-07
-3.26888e-07
-3.14464e-07
-3.32763e-07
-2.91448e-07
-3.36754e-07
-2.68395e-07
-3.38842e-07
-2.45485e-07
-3.39032e-07
-2.229e-07
-3.37349e-07
-2.00814e-07
-3.33842e-07
-1.79396e-07
-3.28577e-07
-1.58803e-07
-3.21643e-07
-1.39175e-07
-3.1314e-07
-1.20635e-07
-3.03178e-07
-1.03287e-07
-2.91875e-07
-8.7212e-08
-2.7935e-07
-7.24711e-08
-2.65719e-07
-5.91027e-08
-2.51095e-07
-4.71252e-08
-2.35583e-07
-3.65383e-08
-2.19282e-07
-2.73256e-08
-2.02286e-07
-1.9456e-08
-1.84686e-07
-1.28865e-08
-1.66579e-07
-7.56258e-09
-1.48075e-07
-3.41914e-09
-1.29309e-07
-3.79482e-10
-1.10454e-07
1.64679e-09
-9.17301e-08
2.76715e-09
-7.34261e-08
3.11085e-09
-5.59081e-08
2.83463e-09
-3.96342e-08
2.1292e-09
-2.51633e-08
1.22615e-09
-1.31626e-08
4.05076e-10
-4.41016e-09
2.17798e-10
-5.53174e-07
-1.72331e-07
-5.41982e-07
-1.94018e-07
-5.29185e-07
-2.15111e-07
-5.14828e-07
-2.3543e-07
-4.98968e-07
-2.548e-07
-4.81683e-07
-2.73049e-07
-4.63062e-07
-2.90008e-07
-4.43209e-07
-3.05517e-07
-4.22243e-07
-3.19428e-07
-4.00297e-07
-3.3161e-07
-3.77518e-07
-3.41946e-07
-3.54065e-07
-3.5034e-07
-3.30112e-07
-3.56716e-07
-3.05842e-07
-3.61024e-07
-2.81447e-07
-3.63237e-07
-2.57127e-07
-3.63352e-07
-2.33081e-07
-3.61395e-07
-2.09513e-07
-3.5741e-07
-1.86617e-07
-3.51473e-07
-1.64576e-07
-3.43684e-07
-1.43559e-07
-3.34156e-07
-1.23716e-07
-3.23022e-07
-1.05171e-07
-3.10419e-07
-8.80281e-08
-2.96493e-07
-7.23605e-08
-2.81386e-07
-5.8217e-08
-2.65238e-07
-4.56199e-08
-2.4818e-07
-3.45682e-08
-2.30334e-07
-2.50396e-08
-2.11815e-07
-1.69932e-08
-1.92732e-07
-1.03729e-08
-1.73199e-07
-5.10853e-09
-1.53339e-07
-1.11782e-09
-1.333e-07
1.69431e-09
-1.13266e-07
3.4373e-09
-9.34731e-08
4.23814e-09
-7.42269e-08
4.24617e-09
-5.59162e-08
3.63902e-09
-3.9027e-08
2.62951e-09
-2.41538e-08
1.47307e-09
-1.20061e-08
4.75386e-10
-3.41248e-09
6.93183e-10
-5.78338e-07
-1.8156e-07
-5.67412e-07
-2.04944e-07
-5.54804e-07
-2.2772e-07
-5.40551e-07
-2.49682e-07
-5.24708e-07
-2.70644e-07
-5.07337e-07
-2.9042e-07
-4.88517e-07
-3.08828e-07
-4.68338e-07
-3.25695e-07
-4.46906e-07
-3.4086e-07
-4.24342e-07
-3.54175e-07
-4.00781e-07
-3.65507e-07
-3.76379e-07
-3.74742e-07
-3.51306e-07
-3.81789e-07