/*--------------------------------*- C++ -*----------------------------------*\
  =========                 |
  \\      /  F ield         | OpenFOAM: The Open Source CFD Toolbox
   \\    /   O peration     | Website:  https://openfoam.org
    \\  /    A nd           | Version:  9
     \\/     M anipulation  |
\*---------------------------------------------------------------------------*/
FoamFile
{
    format      ascii;
    class       volScalarField;
    location    "2.5";
    object      p;
}
// * * * * * * * * * * * * * * * * * * * * * * * * * * * * * * * * * * * * * //

dimensions      [0 2 -2 0 0 0 0];

internalField   nonuniform List<scalar> 
1260
(
-0.10608
-0.10697
-0.107758
-0.108443
-0.109024
-0.109499
-0.109869
-0.110132
-0.110288
-0.110337
-0.11028
-0.110117
-0.109848
-0.109475
-0.108998
-0.10842
-0.107741
-0.106963
-0.106088
-0.105119
-0.104059
-0.102908
-0.101672
-0.100352
-0.0989529
-0.0974781
-0.106137
-0.107031
-0.107822
-0.10851
-0.109094
-0.109571
-0.109943
-0.110207
-0.110364
-0.110414
-0.110356
-0.110192
-0.109922
-0.109547
-0.109068
-0.108486
-0.107803
-0.107022
-0.106143
-0.105169
-0.104103
-0.102948
-0.101706
-0.100381
-0.098976
-0.097496
-0.106086
-0.106984
-0.107779
-0.10847
-0.109056
-0.109536
-0.109909
-0.110175
-0.110333
-0.110383
-0.110325
-0.11016
-0.109888
-0.109511
-0.109029
-0.108443
-0.107757
-0.10697
-0.106086
-0.105107
-0.104035
-0.102873
-0.101624
-0.100292
-0.098881
-0.0973943
-0.105927
-0.106828
-0.107627
-0.108322
-0.108911
-0.109394
-0.109769
-0.110036
-0.110195
-0.110245
-0.110187
-0.110021
-0.109747
-0.109367
-0.108881
-0.108292
-0.107601
-0.106809
-0.105919
-0.104933
-0.103854
-0.102684
-0.101428
-0.100088
-0.0986681
-0.0971732
-0.105659
-0.106565
-0.107369
-0.108067
-0.10866
-0.109145
-0.109523
-0.109792
-0.109951
-0.110002
-0.109943
-0.109776
-0.1095
-0.109117
-0.108628
-0.108034
-0.107337
-0.106539
-0.105642
-0.104648
-0.103561
-0.102383
-0.101117
-0.0997672
-0.0983378
-0.0968329
-0.105284
-0.106195
-0.107003
-0.107707
-0.108303
-0.108792
-0.109172
-0.109443
-0.109604
-0.109654
-0.109595
-0.109426
-0.109148
-0.108762
-0.108268
-0.107669
-0.106966
-0.106161
-0.105256
-0.104254
-0.103157
-0.101969
-0.100693
-0.0993319
-0.0978909
-0.0963743
-0.104801
-0.105719
-0.106533
-0.107241
-0.107842
-0.108335
-0.108718
-0.108991
-0.109153
-0.109204
-0.109144
-0.108974
-0.108693
-0.108303
-0.107805
-0.107201
-0.106491
-0.105678
-0.104764
-0.103752
-0.102645
-0.101445
-0.100157
-0.098783
-0.0973287
-0.0957983
-0.104212
-0.105137
-0.105957
-0.106671
-0.107278
-0.107775
-0.108161
-0.108437
-0.108601
-0.108652
-0.108592
-0.10842
-0.108137
-0.107743
-0.10724
-0.106629
-0.105912
-0.105091
-0.104168
-0.103145
-0.102025
-0.100813
-0.0995103
-0.0981221
-0.0966526
-0.0951065
-0.103518
-0.104451
-0.105279
-0.105999
-0.106611
-0.107113
-0.107504
-0.107783
-0.107949
-0.108002
-0.107941
-0.107768
-0.107482
-0.107084
-0.106576
-0.105958
-0.105233
-0.104402
-0.103468
-0.102433
-0.101301
-0.100074
-0.0987558
-0.0973513
-0.0958645
-0.0943007
-0.102719
-0.103662
-0.104498
-0.105226
-0.105845
-0.106353
-0.106748
-0.107031
-0.107199
-0.107253
-0.107193
-0.107018
-0.106729
-0.106327
-0.105813
-0.105189
-0.104455
-0.103614
-0.102668
-0.10162
-0.100473
-0.0992303
-0.0978954
-0.0964727
-0.0949668
-0.0933829
-0.101817
-0.10277
-0.103616
-0.104354
-0.10498
-0.105495
-0.105896
-0.106183
-0.106354
-0.10641
-0.10635
-0.106174
-0.105882
-0.105476
-0.104956
-0.104324
-0.103581
-0.102729
-0.101771
-0.100708
-0.0995457
-0.0982855
-0.0969319
-0.0954891
-0.093962
-0.092356
-0.100813
-0.101778
-0.102636
-0.103383
-0.104019
-0.104541
-0.104949
-0.105241
-0.105416
-0.105474
-0.105415
-0.105238
-0.104943
-0.104533
-0.104007
-0.103366
-0.102614
-0.10175
-0.100778
-0.099701
-0.0985212
-0.0972423
-0.0958683
-0.0944036
-0.0928533
-0.0912228
-0.0997076
-0.100687
-0.101557
-0.102317
-0.102963
-0.103494
-0.10391
-0.104208
-0.104387
-0.104448
-0.10439
-0.104212
-0.103916
-0.103501
-0.102968
-0.10232
-0.101557
-0.100681
-0.0996949
-0.0986013
-0.0974032
-0.0961041
-0.0947081
-0.0932198
-0.0916442
-0.0899871
-0.0985029
-0.0994984
-0.100383
-0.101156
-0.101814
-0.102356
-0.10278
-0.103085
-0.103271
-0.103335
-0.103279
-0.103101
-0.102802
-0.102383
-0.101844
-0.101187
-0.100413
-0.0995249
-0.0985238
-0.0974129
-0.0961953
-0.0948748
-0.0934553
-0.0919415
-0.0903388
-0.0886529
-0.0972001
-0.0982138
-0.0991156
-0.0999033
-0.100575
-0.101129
-0.101563
-0.101877
-0.102069
-0.102138
-0.102084
-0.101907
-0.101606
-0.101183
-0.100638
-0.0999724
-0.0991877
-0.0982858
-0.0972689
-0.0961399
-0.0949019
-0.0935586
-0.0921142
-0.0905734
-0.0889416
-0.087225
-0.0958008
-0.096835
-0.0977558
-0.0985608
-0.0992481
-0.0998156
-0.100262
-0.100585
-0.100785
-0.10086
-0.100809
-0.100633
-0.100331
-0.0999044
-0.0993534
-0.0986793
-0.0978834
-0.0969678
-0.0959347
-0.0947869
-0.0935276
-0.0921604
-0.0906897
-0.0891204
-0.0874579
-0.0857086
-0.0838796
-0.0819788
-0.0800152
-0.094307
-0.0953642
-0.0963063
-0.0971308
-0.0978356
-0.0984188
-0.0988785
-0.0992133
-0.0994219
-0.0995035
-0.0994574
-0.0992833
-0.0989811
-0.0985513
-0.0979946
-0.0973121
-0.0965051
-0.0955757
-0.094526
-0.0933588
-0.0920774
-0.0906855
-0.0891874
-0.0875882
-0.0858935
-0.0841099
-0.0822445
-0.0803056
-0.0783025
-0.0927207
-0.0938036
-0.0947695
-0.095616
-0.0963406
-0.0969414
-0.0974165
-0.0977644
-0.0979837
-0.0980735
-0.098033
-0.0978619
-0.0975602
-0.097128
-0.0965661
-0.0958755
-0.0950577
-0.0941144
-0.0930479
-0.091861
-0.090557
-0.0891396
-0.0876133
-0.0859832
-0.0842551
-0.0824356
-0.0805322
-0.0785534
-0.0765087
-0.0910443
-0.0921559
-0.0931484
-0.0940193
-0.0947661
-0.0953868
-0.0958794
-0.0962423
-0.096474
-0.0965735
-0.0965401
-0.0963732
-0.0960728
-0.0956392
-0.0950728
-0.0943747
-0.0935463
-0.0925894
-0.0915062
-0.0902996
-0.0889727
-0.0875294
-0.0859743
-0.0843125
-0.0825499
-0.0806934
-0.0787506
-0.0767303
-0.0746423
-0.089281
-0.0904241
-0.091446
-0.092344
-0.0931157
-0.0937587
-0.094271
-0.0946509
-0.0948969
-0.0950079
-0.094983
-0.0948218
-0.0945241
-0.09409
-0.09352
-0.0928153
-0.091977
-0.0910069
-0.0899074
-0.0886811
-0.0873314
-0.0858621
-0.0842779
-0.0825839
-0.0807863
-0.078892
-0.0769089
-0.0748459
-0.072713
-0.0874343
-0.0886119
-0.0896662
-0.0905943
-0.0913934
-0.0920612
-0.0925956
-0.0929947
-0.0932571
-0.0933815
-0.093367
-0.093213
-0.0929193
-0.0924861
-0.0919138
-0.0912033
-0.090356
-0.0893736
-0.0882583
-0.087013
-0.0856408
-0.0841458
-0.0825325
-0.0808064
-0.0789735
-0.0770411
-0.075017
-0.0729105
-0.0707318
-0.0855085
-0.0867239
-0.0878136
-0.0887745
-0.0896039
-0.0902992
-0.0908581
-0.0912789
-0.0915599
-0.0916997
-0.0916975
-0.0915526
-0.0912647
-0.0908339
-0.0902606
-0.0895458
-0.0886907
-0.087697
-0.0865669
-0.0853033
-0.0839095
-0.0823894
-0.0807476
-0.0789897
-0.0771219
-0.0751514
-0.0730864
-0.0709361
-0.068711
-0.0835093
-0.0847654
-0.0858936
-0.0868903
-0.0877528
-0.0884783
-0.0890645
-0.0895094
-0.0898114
-0.0899689
-0.0899811
-0.0898473
-0.089567
-0.0891404
-0.0885679
-0.0878503
-0.0869889
-0.0859853
-0.0848419
-0.0835613
-0.082147
-0.0806028
-0.0789336
-0.0771449
-0.0752429
-0.0732349
-0.0711294
-0.0689356
-0.0666641
-0.0814431
-0.0827431
-0.0839127
-0.0849483
-0.0858467
-0.0866052
-0.0872214
-0.087693
-0.0880184
-0.0881961
-0.088225
-0.0881045
-0.087834
-0.0874137
-0.0868439
-0.0861254
-0.0852595
-0.0842478
-0.0830927
-0.0817969
-0.0803637
-0.0787972
-0.077102
-0.0752839
-0.073349
-0.0713049
-0.0691599
-0.0669234
-0.0646062
-0.0793182
-0.0806649
-0.0818788
-0.0829561
-0.0838934
-0.0846878
-0.0853366
-0.0858376
-0.0861891
-0.0863894
-0.0864375
-0.0863326
-0.0860743
-0.0856625
-0.0850976
-0.0843805
-0.0835123
-0.0824948
-0.0813302
-0.0800212
-0.0785713
-0.0769845
-0.0752655
-0.0734199
-0.0714542
-0.0693757
-0.0671929
-0.0649152
-0.0625534
-0.0771442
-0.0785403
-0.0798014
-0.0809231
-0.081902
-0.0827349
-0.0834192
-0.0839523
-0.0843325
-0.0845581
-0.084628
-0.0845413
-0.0842977
-0.083897
-0.0833396
-0.0826263
-0.0817584
-0.0807376
-0.079566
-0.0782465
-0.0767825
-0.0751779
-0.0734377
-0.0715674
-0.0695733
-0.067463
-0.0652447
-0.062928
-0.0605234
-0.0749325
-0.0763806
-0.0776912
-0.07886
-0.0798832
-0.0807574
-0.0814796
-0.0820476
-0.0824592
-0.0827128
-0.0828071
-0.0827414
-0.0825151
-0.0821282
-0.0815811
-0.0808745
-0.0800097
-0.0789885
-0.0778129
-0.076486
-0.0750109
-0.0733919
-0.0716336
-0.0697417
-0.0677225
-0.0655834
-0.0633326
-0.0609796
-0.0585346
-0.0726965
-0.0741986
-0.0755612
-0.0767794
-0.0778492
-0.0787671
-0.07953
-0.0801354
-0.080581
-0.0808653
-0.0809868
-0.0809448
-0.0807388
-0.0803686
-0.0798348
-0.079138
-0.0782795
-0.0772611
-0.076085
-0.074754
-0.0732715
-0.0716416
-0.069869
-0.0679592
-0.0659186
-0.0637544
-0.0614747
-0.0590887
-0.0566064
-0.0704515
-0.0720095
-0.0734258
-0.0746955
-0.0758141
-0.076778
-0.0775839
-0.0782291
-0.0787113
-0.0790289
-0.0791804
-0.0791649
-0.0789821
-0.0786318
-0.0781144
-0.0774306
-0.0765818
-0.0755698
-0.0743968
-0.0730657
-0.0715798
-0.0699431
-0.0681603
-0.066237
-0.0641793
-0.0619942
-0.0596896
-0.0572743
-0.0547581
-0.0682147
-0.0698297
-0.0713014
-0.0726242
-0.0737935
-0.0748053
-0.0756563
-0.0763436
-0.0768648
-0.0772182
-0.0774023
-0.0774163
-0.0772595
-0.0769321
-0.0764343
-0.0757672
-0.0749318
-0.07393
-0.0727642
-0.071437
-0.0699519
-0.0683129
-0.0665246
-0.0645923
-0.062522
-0.0603205
-0.0579954
-0.0555551
-0.0530087
-0.0660049
-0.0676779
-0.0692059
-0.070583
-0.0718044
-0.0728658
-0.0737637
-0.0744951
-0.0750575
-0.0754491
-0.0756683
-0.0757144
-0.0755867
-0.0752853
-0.0748106
-0.0741635
-0.0733452
-0.0723575
-0.0712029
-0.069884
-0.0684042
-0.0667675
-0.0649783
-0.0630418
-0.0609638
-0.0587507
-0.0564097
-0.0539485
-0.0513758
-0.0638427
-0.065574
-0.0671588
-0.068591
-0.0698654
-0.0709776
-0.0719239
-0.072701
-0.0733064
-0.0737382
-0.0739949
-0.0740756
-0.0739798
-0.0737074
-0.0732589
-0.0726352
-0.0718377
-0.0708681
-0.0697287
-0.0684224
-0.0669524
-0.0653226
-0.0635372
-0.0616013
-0.0595202
-0.0573001
-0.0549476
-0.0524698
-0.0498743
-0.0617495
-0.0635388
-0.0651806
-0.0666681
-0.067996
-0.0691597
-0.0701552
-0.0709792
-0.0716292
-0.0721029
-0.0723991
-0.0725166
-0.072455
-0.0722144
-0.0717951
-0.071198
-0.0704247
-0.0694768
-0.0683565
-0.0670668
-0.0656108
-0.0639921
-0.062215
-0.060284
-0.0582043
-0.0559814
-0.0536214
-0.0511306
-0.0485157
-0.0597478
-0.0615943
-0.0632922
-0.0648346
-0.066216
-0.0674313
-0.0684765
-0.0693481
-0.0700435
-0.0705604
-0.0708975
-0.0710536
-0.0710283
-0.0708216
-0.0704339
-0.0698662
-0.0691199
-0.0681968
-0.0670991
-0.0658295
-0.064391
-0.0627872
-0.061022
-0.0590997
-0.057025
-0.0548029
-0.0524386
-0.0499378
-0.047306
-0.0578597
-0.0597618
-0.0615147
-0.063111
-0.0645449
-0.0658113
-0.0669059
-0.0678252
-0.0685662
-0.0691269
-0.0695056
-0.0697013
-0.0697135
-0.0695423
-0.069188
-0.0686517
-0.0679346
-0.0670386
-0.0659658
-0.0647188
-0.0633007
-0.0617145
-0.059964
-0.0580531
-0.055986
-0.0537672
-0.0514011
-0.0488923
-0.0462453
-0.0561065
-0.058062
-0.0598677
-0.0615161
-0.0630009
-0.064317
-0.0654599
-0.0664258
-0.0672119
-0.0678159
-0.0682361
-0.0684715
-0.0685216
-0.0683863
-0.0680662
-0.067562
-0.0668752
-0.0660075
-0.0649609
-0.0637379
-0.0623415
-0.0607748
-0.0590406
-0.0571426
-0.0550846
-0.0528705
-0.0505038
-0.0479881
-0.0453267
-0.0545068
-0.0565125
-0.058368
-0.0600655
-0.0615986
-0.062962
-0.0641509
-0.0651615
-0.0659909
-0.0666366
-0.067097
-0.067371
-0.067458
-0.067358
-0.0670714
-0.0665991
-0.0659423
-0.0651028
-0.0640824
-0.0628835
-0.0615083
-0.0599615
-0.058244
-0.0563594
-0.0543109
-0.0521017
-0.0497347
-0.0472122
-0.0445363
-0.053074
-0.0551256
-0.0570267
-0.0587693
-0.0603469
-0.0617538
-0.0629852
-0.0640373
-0.0649069
-0.0655915
-0.0660895
-0.0663996
-0.0665212
-0.0664544
-0.0661994
-0.0657572
-0.0651289
-0.0643162
-0.0633209
-0.0621454
-0.0607921
-0.0592618
-0.0575599
-0.055688
-0.0536485
-0.0514436
-0.0490756
-0.0465459
-0.043855
-0.051813
-0.0539049
-0.0558463
-0.0576287
-0.0592456
-0.0606911
-0.0619604
-0.0630494
-0.0639549
-0.0646744
-0.065206
-0.0655485
-0.0657014
-0.0656645
-0.0654382
-0.0650232
-0.0644208
-0.0636324
-0.0626598
-0.0615051
-0.0601702
-0.0586574
-0.056969
-0.0551085
-0.0530766
-0.0508751
-0.0485053
-0.0459676
-0.0432611
-0.0507169
-0.0528427
-0.0548179
-0.056634
-0.0582842
-0.0597625
-0.0610641
-0.0621846
-0.0631209
-0.0638703
-0.0644309
-0.0648016
-0.0649816
-0.0649708
-0.0647696
-0.0643785
-0.0637988
-0.0630318
-0.0620793
-0.060943
-0.059625
-0.0581273
-0.0564519
-0.0546001
-0.0525744
-0.0503755
-0.0480034
-0.0454574
-0.0427353
-0.0497665
-0.0519193
-0.0539217
-0.055765
-0.0574423
-0.0589475
-0.0602756
-0.0614223
-0.0623843
-0.0631588
-0.063744
-0.0641386
-0.0643419
-0.0643536
-0.064174
-0.0638038
-0.063244
-0.062496
-0.0615614
-0.0604417
-0.059139
-0.0576547
-0.0559905
-0.0541472
-0.0521273
-0.0499307
-0.0475565
-0.0450028
-0.0422663
-0.0489367
-0.0511105
-0.0531343
-0.0549992
-0.0566983
-0.0582254
-0.0595754
-0.0607438
-0.0617274
-0.0625233
-0.0631296
-0.0635449
-0.0637684
-0.0638
-0.0636397
-0.0632882
-0.0627464
-0.0620156
-0.0610975
-0.0599936
-0.0587053
-0.0572341
-0.0555821
-0.0537468
-0.051733
-0.0495395
-0.0471642
-0.0446047
-0.0418563
-0.0482129
-0.0504036
-0.052445
-0.0543281
-0.0560456
-0.0575915
-0.0589604
-0.060148
-0.0611507
-0.0619657
-0.062591
-0.0630252
-0.0632674
-0.0633173
-0.0631752
-0.0628413
-0.0623166
-0.0616019
-0.0606992
-0.0596107
-0.0583369
-0.0568774
-0.0552344
-0.0534131
-0.0514081
-0.0492191
-0.0468452
-0.0442831
-0.0415272
-0.0475605
-0.0497705
-0.0518317
-0.0537351
-0.0554732
-0.0570398
-0.0584296
-0.0596381
-0.0606616
-0.0614974
-0.0621432
-0.0625977
-0.06286
-0.0629297
-0.062807
-0.0624923
-0.0619863
-0.0612894
-0.0604021
-0.0593284
-0.058069
-0.0566258
-0.054999
-0.0531889
-0.0511938
-0.0490131
-0.046645
-0.0440858
-0.0413293
-0.0468752
-0.0491181
-0.051212
-0.0531479
-0.0549183
-0.0565167
-0.0579378
-0.059177
-0.0602305
-0.0610957
-0.0617701
-0.0622524
-0.0625416
-0.0626373
-0.0625395
-0.0622489
-0.0617667
-0.0610951
-0.0602347
-0.0591819
-0.0579411
-0.056516
-0.0549065
-0.0531122
-0.0511325
-0.0489664
-0.0466114
-0.0440638
-0.0413171
)
;

boundaryField
{
    movingWall
    {
        type            zeroGradient;
    }
    fixedWalls
    {
        type            zeroGradient;
    }
    frontAndBack
    {
        type            empty;
    }
    procBoundary5to2
    {
        type            processor;
        value           nonuniform List<scalar> 
29
(
-0.0931372
-0.0915234
-0.0898167
-0.0880198
-0.0861365
-0.084171
-0.0821288
-0.0800167
-0.077843
-0.0756175
-0.073352
-0.0710602
-0.0687578
-0.0664625
-0.0641935
-0.061972
-0.0598201
-0.0577607
-0.0558166
-0.0540099
-0.0523599
-0.0508812
-0.0495799
-0.0484501
-0.0474729
-0.0466227
-0.0458826
-0.0452114
-0.0444934
)
;
    }
    procBoundary5to3
    {
        type            processor;
        value           nonuniform List<scalar> 
21
(
-0.105914
-0.1068
-0.107586
-0.108268
-0.108846
-0.105089
-0.105143
-0.105088
-0.104924
-0.104651
-0.10427
-0.103781
-0.103184
-0.102481
-0.101673
-0.100759
-0.0997414
-0.0986211
-0.0973992
-0.0960769
-0.0946557
)
;
    }
    procBoundary5to4
    {
        type            processor;
        value           nonuniform List<scalar> 
48
(
-0.0959321
-0.095945
-0.0958369
-0.0956077
-0.0952575
-0.0947871
-0.0941973
-0.0934895
-0.0926653
-0.091727
-0.090677
-0.0895185
-0.088255
-0.0868907
-0.0854304
-0.0854304
-0.0835656
-0.0816391
-0.0779986
-0.0762454
-0.0744086
-0.0724973
-0.0705214
-0.0684923
-0.0664227
-0.0643268
-0.06222
-0.0601192
-0.0580426
-0.0560093
-0.054039
-0.0521516
-0.0503662
-0.0487005
-0.0471694
-0.0457836
-0.0445489
-0.0434643
-0.0425222
-0.041708
-0.0410024
-0.0403838
-0.0398335
-0.0393416
-0.0389122
-0.0385693
-0.0383666
-0.0383624
)
;
    }
    procBoundary5to6
    {
        type            processor;
        value           nonuniform List<scalar> 
21
(
-0.10932
-0.109687
-0.109949
-0.110104
-0.110153
-0.110096
-0.109933
-0.109666
-0.109294
-0.10882
-0.108243
-0.107567
-0.106793
-0.105922
-0.104957
-0.1039
-0.102754
-0.101522
-0.100207
-0.0988117
-0.0973409
)
;
    }
}


// ************************************************************************* //
