/*--------------------------------*- C++ -*----------------------------------*\
  =========                 |
  \\      /  F ield         | OpenFOAM: The Open Source CFD Toolbox
   \\    /   O peration     | Website:  https://openfoam.org
    \\  /    A nd           | Version:  9
     \\/     M anipulation  |
\*---------------------------------------------------------------------------*/
FoamFile
{
    format      ascii;
    class       volVectorField;
    location    "2.5";
    object      U;
}
// * * * * * * * * * * * * * * * * * * * * * * * * * * * * * * * * * * * * * //

dimensions      [0 1 -1 0 0 0 0];

internalField   nonuniform List<vector> 
1260
(
(-0.00434233 0.0930132 0)
(-0.00513154 0.0825165 0)
(-0.00595836 0.0719945 0)
(-0.00682586 0.0614468 0)
(-0.0077368 0.0508736 0)
(-0.0086936 0.040276 0)
(-0.00969845 0.0296554 0)
(-0.0107532 0.0190137 0)
(-0.0118593 0.00835247 0)
(-0.0130179 -0.00232707 0)
(-0.0142302 -0.0130239 0)
(-0.0154967 -0.0237375 0)
(-0.0168178 -0.0344677 0)
(-0.0181938 -0.0452148 0)
(-0.0196243 -0.0559797 0)
(-0.0211087 -0.0667635 0)
(-0.0226461 -0.0775678 0)
(-0.0242351 -0.0883943 0)
(-0.0258736 -0.0992445 0)
(-0.0275593 -0.11012 0)
(-0.0292889 -0.12102 0)
(-0.0310588 -0.131946 0)
(-0.0328644 -0.142895 0)
(-0.0347003 -0.153863 0)
(-0.0365607 -0.164844 0)
(-0.0384386 -0.175828 0)
(0.00570722 0.0937648 0)
(0.00495804 0.0833066 0)
(0.00416589 0.0728265 0)
(0.00332737 0.0623238 0)
(0.00243942 0.0517983 0)
(0.00149934 0.0412508 0)
(0.000504741 0.0306825 0)
(-0.00054635 0.0200947 0)
(-0.00165556 0.00948883 0)
(-0.00282422 -0.00113422 0)
(-0.00405341 -0.0117737 0)
(-0.00534388 -0.0224293 0)
(-0.0066961 -0.0331013 0)
(-0.00811022 -0.0437902 0)
(-0.00958608 -0.0544973 0)
(-0.0111231 -0.065224 0)
(-0.0127205 -0.0759724 0)
(-0.0143768 -0.0867446 0)
(-0.0160903 -0.0975427 0)
(-0.0178586 -0.108368 0)
(-0.0196788 -0.119223 0)
(-0.0215474 -0.130107 0)
(-0.0234602 -0.141018 0)
(-0.0254122 -0.151954 0)
(-0.0273978 -0.162909 0)
(-0.0294104 -0.173875 0)
(0.0157937 0.0944727 0)
(0.0150869 0.0840581 0)
(0.0143318 0.0736255 0)
(0.0135245 0.0631737 0)
(0.0126618 0.0527021 0)
(0.0117407 0.0422111 0)
(0.0107585 0.0317016 0)
(0.0097131 0.0211746 0)
(0.00860269 0.0106309 0)
(0.0074258 7.13342e-05 0)
(0.00618127 -0.0105037 0)
(0.00486826 -0.0210942 0)
(0.00348624 -0.0317008 0)
(0.002035 -0.0423242 0)
(0.000514656 -0.0529662 0)
(-0.00107433 -0.0636285 0)
(-0.00273111 -0.0743136 0)
(-0.00445447 -0.0850239 0)
(-0.00624273 -0.0957621 0)
(-0.00809374 -0.10653 0)
(-0.0100048 -0.117331 0)
(-0.0119726 -0.128164 0)
(-0.0139933 -0.139029 0)
(-0.0160623 -0.149925 0)
(-0.0181742 -0.160845 0)
(-0.0203229 -0.171782 0)
(0.0259164 0.0951346 0)
(0.0252543 0.0847689 0)
(0.0245385 0.0743893 0)
(0.0237649 0.0639942 0)
(0.0229298 0.0535827 0)
(0.0220299 0.0431547 0)
(0.0210624 0.0327107 0)
(0.0200249 0.0222511 0)
(0.0189153 0.0117767 0)
(0.0177321 0.0012878 0)
(0.0164741 -0.00921557 0)
(0.0151402 -0.0197337 0)
(0.0137298 -0.0302674 0)
(0.0122428 -0.040818 0)
(0.010679 -0.0513873 0)
(0.00903903 -0.0619777 0)
(0.0073235 -0.0725917 0)
(0.00553358 -0.0832324 0)
(0.0036708 -0.0939028 0)
(0.00173715 -0.104606 0)
(-0.000264899 -0.115343 0)
(-0.00233233 -0.126117 0)
(-0.00446155 -0.136928 0)
(-0.00664831 -0.147773 0)
(-0.0088877 -0.158648 0)
(-0.0111741 -0.169547 0)
(0.0360755 0.0957482 0)
(0.0354603 0.0854364 0)
(0.0347863 0.0751153 0)
(0.0340487 0.0647828 0)
(0.0332435 0.0544376 0)
(0.0323672 0.0440791 0)
(0.0314167 0.0337073 0)
(0.0303893 0.0233223 0)
(0.0292828 0.0129242 0)
(0.0280954 0.00251319 0)
(0.0268258 -0.00791113 0)
(0.0254729 -0.0183494 0)
(0.0240359 -0.0288028 0)
(0.0225145 -0.0392729 0)
(0.0209087 -0.0497618 0)
(0.0192188 -0.0602724 0)
(0.0174455 -0.0708075 0)
(0.0155897 -0.0813706 0)
(0.0136528 -0.091965 0)
(0.0116367 -0.102594 0)
(0.00954367 -0.113261 0)
(0.00737636 -0.123967 0)
(0.00513808 -0.134713 0)
(0.00283268 -0.145498 0)
(0.000464635 -0.156318 0)
(-0.00196088 -0.167167 0)
(0.0462721 0.0963115 0)
(0.045706 0.0860585 0)
(0.0450758 0.0758014 0)
(0.0443766 0.0655373 0)
(0.0436037 0.0552646 0)
(0.0427535 0.0449821 0)
(0.0418223 0.0346892 0)
(0.0408074 0.0243856 0)
(0.0397063 0.0140712 0)
(0.038517 0.00374538 0)
(0.037238 -0.00659239 0)
(0.035868 -0.0169432 0)
(0.0344063 -0.0273085 0)
(0.0328524 -0.0376902 0)
(0.031206 -0.048091 0)
(0.0294676 -0.0585138 0)
(0.0276375 -0.0689619 0)
(0.0257167 -0.0794391 0)
(0.0237065 -0.0899492 0)
(0.0216083 -0.100496 0)
(0.0194244 -0.111082 0)
(0.017157 -0.121711 0)
(0.0148092 -0.132383 0)
(0.0123844 -0.143098 0)
(0.00988657 -0.153853 0)
(0.00732042 -0.164643 0)
(0.056508 0.0968222 0)
(0.0559931 0.086633 0)
(0.055409 0.0764451 0)
(0.0547503 0.0662553 0)
(0.0540122 0.0560612 0)
(0.0531904 0.0458611 0)
(0.052281 0.0356539 0)
(0.0512811 0.0254389 0)
(0.0501878 0.0152152 0)
(0.0489989 0.0049821 0)
(0.0477128 -0.00526153 0)
(0.0463281 -0.0155171 0)
(0.0448437 -0.0257865 0)
(0.0432591 -0.036072 0)
(0.041574 -0.0463764 0)
(0.0397885 -0.0567032 0)
(0.0379031 -0.067056 0)
(0.0359185 -0.0774388 0)
(0.0338356 -0.0878559 0)
(0.031656 -0.0983113 0)
(0.0293815 -0.108809 0)
(0.027014 -0.119351 0)
(0.0245563 -0.129939 0)
(0.0220113 -0.140574 0)
(0.0193826 -0.151253 0)
(0.0166742 -0.161971 0)
(0.0667862 0.0972784 0)
(0.0663244 0.0871578 0)
(0.0657886 0.0770445 0)
(0.0651728 0.0669345 0)
(0.0644717 0.0568251 0)
(0.0636806 0.0467138 0)
(0.0627956 0.036599 0)
(0.0618131 0.0264795 0)
(0.0607301 0.0163539 0)
(0.0595442 0.00622094 0)
(0.0582534 -0.00392088 0)
(0.0568562 -0.0140734 0)
(0.0553514 -0.0242388 0)
(0.0537383 -0.0344199 0)
(0.0520164 -0.0446198 0)
(0.0501857 -0.0548422 0)
(0.0482465 -0.0650911 0)
(0.0461993 -0.0753709 0)
(0.0440449 -0.085686 0)
(0.0417846 -0.0960409 0)
(0.0394199 -0.106439 0)
(0.0369524 -0.116885 0)
(0.0343845 -0.12738 0)
(0.0317186 -0.137924 0)
(0.0289579 -0.148515 0)
(0.0261058 -0.15915 0)
(0.0771107 0.0976783 0)
(0.0767041 0.0876309 0)
(0.0762186 0.0775972 0)
(0.0756477 0.0675727 0)
(0.0749859 0.0575538 0)
(0.0742281 0.0475377 0)
(0.0733698 0.037522 0)
(0.0724072 0.027505 0)
(0.0713371 0.0174847 0)
(0.0701567 0.00745938 0)
(0.0688637 -0.00257291 0)
(0.0674566 -0.0126145 0)
(0.0659338 -0.0226679 0)
(0.0642944 -0.0327363 0)
(0.0625379 -0.0428232 0)
(0.060664 -0.0529326 0)
(0.0586727 -0.0630689 0)
(0.0565645 -0.0732366 0)
(0.0543398 -0.0834405 0)
(0.0519997 -0.0936854 0)
(0.0495453 -0.103975 0)
(0.046978 -0.114314 0)
(0.0442996 -0.124704 0)
(0.0415122 -0.135146 0)
(0.0386183 -0.145639 0)
(0.0356209 -0.156178 0)
(0.0874868 0.0980199 0)
(0.0871373 0.0880503 0)
(0.086704 0.0781012 0)
(0.0861803 0.0681676 0)
(0.08556 0.0582452 0)
(0.0848377 0.0483304 0)
(0.0840086 0.0384205 0)
(0.0830685 0.0285128 0)
(0.0820138 0.018605 0)
(0.0808415 0.00869485 0)
(0.079549 -0.00122018 0)
(0.0781345 -0.0111428 0)
(0.0765962 -0.0210761 0)
(0.074933 -0.0310234 0)
(0.0731442 -0.0409887 0)
(0.0712291 -0.0509763 0)
(0.0691877 -0.0609909 0)
(0.06702 -0.0710373 0)
(0.0647265 -0.0811205 0)
(0.0623076 -0.0912455 0)
(0.0597642 -0.101417 0)
(0.0570973 -0.111638 0)
(0.0543083 -0.121913 0)
(0.0513988 -0.132241 0)
(0.0483705 -0.142623 0)
(0.045226 -0.153054 0)
(0.0979207 0.0983012 0)
(0.0976303 0.088414 0)
(0.0972513 0.0785545 0)
(0.0967769 0.0687171 0)
(0.0962003 0.0588968 0)
(0.0955159 0.0490896 0)
(0.0947183 0.0392918 0)
(0.0938031 0.0295004 0)
(0.0927664 0.0197123 0)
(0.0916048 0.00992472 0)
(0.0903155 0.000134689 0)
(0.0888962 -0.00966099 0)
(0.087345 -0.0194658 0)
(0.0856605 -0.0292836 0)
(0.0838417 -0.0391186 0)
(0.0818877 -0.0489755 0)
(0.0797982 -0.0588591 0)
(0.0775729 -0.0687746 0)
(0.0752119 -0.0787273 0)
(0.0727153 -0.0887222 0)
(0.0700837 -0.0987643 0)
(0.0673175 -0.108857 0)
(0.0644177 -0.119005 0)
(0.0613853 -0.129207 0)
(0.0582215 -0.139465 0)
(0.054928 -0.149774 0)
(0.10842 0.0985203 0)
(0.10819 0.08872 0)
(0.107868 0.078955 0)
(0.107445 0.069219 0)
(0.106914 0.0595066 0)
(0.10627 0.0498129 0)
(0.105506 0.0401337 0)
(0.104619 0.0304652 0)
(0.103602 0.0208039 0)
(0.102454 0.0111464 0)
(0.101171 0.00148906 0)
(0.0997492 -0.00817167 0)
(0.0981877 -0.0178397 0)
(0.0964845 -0.0275194 0)
(0.094638 -0.0372152 0)
(0.0926474 -0.0469321 0)
(0.0905118 -0.0566753 0)
(0.0882307 -0.0664501 0)
(0.0858036 -0.0762621 0)
(0.0832306 -0.0861164 0)
(0.0805114 -0.0960181 0)
(0.0776462 -0.105971 0)
(0.0746354 -0.115979 0)
(0.0714793 -0.126044 0)
(0.0681786 -0.136164 0)
(0.0647342 -0.146338 0)
(0.118992 0.0986748 0)
(0.118826 0.088966 0)
(0.118562 0.0793004 0)
(0.118193 0.0696712 0)
(0.117711 0.0600722 0)
(0.117109 0.050498 0)
(0.116382 0.0409436 0)
(0.115524 0.0314048 0)
(0.114531 0.0218773 0)
(0.113398 0.0123572 0)
(0.112123 0.00284032 0)
(0.110702 -0.00667743 0)
(0.109133 -0.0162004 0)
(0.107413 -0.0257333 0)
(0.105542 -0.0352809 0)
(0.103517 -0.0448485 0)
(0.101337 -0.0544415 0)
(0.0990016 -0.0640656 0)
(0.09651 -0.0737263 0)
(0.0938615 -0.083429 0)
(0.0910554 -0.0931789 0)
(0.0880915 -0.10298 0)
(0.0849692 -0.112836 0)
(0.0816885 -0.122749 0)
(0.0782494 -0.132718 0)
(0.074652 -0.142742 0)
(0.129645 0.098762 0)
(0.129546 0.0891496 0)
(0.129344 0.0795885 0)
(0.12903 0.0700713 0)
(0.128599 0.0605913 0)
(0.128042 0.0511425 0)
(0.127353 0.0417193 0)
(0.126528 0.0323168 0)
(0.12556 0.0229301 0)
(0.124446 0.0135546 0)
(0.123182 0.00418588 0)
(0.121764 -0.00518083 0)
(0.120189 -0.0145503 0)
(0.118456 -0.0239276 0)
(0.116561 -0.0333178 0)
(0.114504 -0.0427266 0)
(0.112282 -0.0521595 0)
(0.109894 -0.0616224 0)
(0.10734 -0.071121 0)
(0.104617 -0.0806608 0)
(0.101724 -0.090247 0)
(0.0986613 -0.099884 0)
(0.0954272 -0.109575 0)
(0.0920208 -0.119322 0)
(0.0884415 -0.129126 0)
(0.0846886 -0.138984 0)
(0.140388 0.0987785 0)
(0.140359 0.0892678 0)
(0.140221 0.0798164 0)
(0.139967 0.0704167 0)
(0.139589 0.0610614 0)
(0.139079 0.0517439 0)
(0.138432 0.0424582 0)
(0.137641 0.0331986 0)
(0.136701 0.0239596 0)
(0.135608 0.0147362 0)
(0.134357 0.0055233 0)
(0.132945 -0.00368429 0)
(0.131367 -0.0128918 0)
(0.129622 -0.0221046 0)
(0.127707 -0.0313282 0)
(0.125619 -0.0405684 0)
(0.123357 -0.0498311 0)
(0.120918 -0.0591221 0)
(0.118301 -0.0684474 0)
(0.115504 -0.0778124 0)
(0.112526 -0.0872225 0)
(0.109364 -0.0966821 0)
(0.106017 -0.106195 0)
(0.102484 -0.115762 0)
(0.098762 -0.125385 0)
(0.0948511 -0.135061 0)
(0.151227 0.0987202 0)
(0.151273 0.0893168 0)
(0.151203 0.0799808 0)
(0.151012 0.0707044 0)
(0.15069 0.0614797 0)
(0.15023 0.0522998 0)
(0.149627 0.0431578 0)
(0.148874 0.0340477 0)
(0.147965 0.0249636 0)
(0.146895 0.0158996 0)
(0.145659 0.0068502 0)
(0.144254 -0.00219012 0)
(0.142676 -0.0112271 0)
(0.140922 -0.0202665 0)
(0.138987 -0.029314 0)
(0.136871 -0.0383757 0)
(0.13457 -0.0474576 0)
(0.132081 -0.0565657 0)
(0.129403 -0.0657061 0)
(0.126532 -0.0748842 0)
(0.123468 -0.0841053 0)
(0.120206 -0.0933739 0)
(0.116746 -0.102693 0)
(0.113083 -0.112066 0)
(0.109218 -0.121492 0)
(0.105146 -0.13097 0)
(0.100866 -0.140496 0)
(0.0963771 -0.150064 0)
(0.0916785 -0.159665 0)
(0.162168 0.098582 0)
(0.162293 0.0892922 0)
(0.162297 0.0800779 0)
(0.162172 0.0709309 0)
(0.16191 0.0618431 0)
(0.161505 0.052807 0)
(0.160949 0.0438155 0)
(0.160235 0.0348617 0)
(0.159359 0.0259394 0)
(0.158315 0.0170423 0)
(0.157097 0.00816432 0)
(0.155702 -0.000700608 0)
(0.154125 -0.00955832 0)
(0.152363 -0.018415 0)
(0.150412 -0.0272768 0)
(0.148268 -0.0361498 0)
(0.145929 -0.0450402 0)
(0.143391 -0.0539541 0)
(0.140652 -0.0628976 0)
(0.137708 -0.0718761 0)
(0.134557 -0.080895 0)
(0.131195 -0.0899585 0)
(0.127619 -0.0990701 0)
(0.123826 -0.108232 0)
(0.119813 -0.117445 0)
(0.115577 -0.126707 0)
(0.111115 -0.136016 0)
(0.106425 -0.145365 0)
(0.101506 -0.154746 0)
(0.173213 0.0983568 0)
(0.173425 0.0891883 0)
(0.173508 0.0801027 0)
(0.173455 0.071092 0)
(0.173258 0.0621478 0)
(0.17291 0.0532623 0)
(0.172404 0.0444281 0)
(0.171734 0.0356378 0)
(0.170893 0.0268847 0)
(0.169877 0.0181622 0)
(0.16868 0.0094636 0)
(0.167297 0.000782602 0)
(0.165723 -0.00788701 0)
(0.163954 -0.0165517 0)
(0.161987 -0.0252178 0)
(0.159817 -0.0338917 0)
(0.15744 -0.0425796 0)
(0.154854 -0.0512877 0)
(0.152054 -0.0600219 0)
(0.149036 -0.0687879 0)
(0.145798 -0.0775906 0)
(0.142334 -0.0864345 0)
(0.138641 -0.0953229 0)
(0.134715 -0.104258 0)
(0.130552 -0.113241 0)
(0.126149 -0.122269 0)
(0.1215 -0.131342 0)
(0.116605 -0.140452 0)
(0.111459 -0.149594 0)
(0.18436 0.0980368 0)
(0.184667 0.0889979 0)
(0.184837 0.0800491 0)
(0.184861 0.0711823 0)
(0.184734 0.0623892 0)
(0.184448 0.0536618 0)
(0.183997 0.0449922 0)
(0.183374 0.0363729 0)
(0.182572 0.0277968 0)
(0.181587 0.0192568 0)
(0.180412 0.010746 0)
(0.179042 0.00225769 0)
(0.177473 -0.00621477 0)
(0.1757 -0.0146779 0)
(0.173717 -0.0231383 0)
(0.171522 -0.0316023 0)
(0.169109 -0.0400763 0)
(0.166473 -0.0485665 0)
(0.163612 -0.0570787 0)
(0.16052 -0.0656186 0)
(0.157193 -0.074191 0)
(0.153626 -0.0828002 0)
(0.149814 -0.0914495 0)
(0.145752 -0.100141 0)
(0.141436 -0.108876 0)
(0.136861 -0.117653 0)
(0.132023 -0.126469 0)
(0.126917 -0.135321 0)
(0.121541 -0.144202 0)
(0.1956 0.097612 0)
(0.196013 0.0887125 0)
(0.196278 0.0799096 0)
(0.196388 0.0711954 0)
(0.196338 0.0625618 0)
(0.19612 0.0540005 0)
(0.195728 0.0455037 0)
(0.195156 0.0370635 0)
(0.194397 0.0286726 0)
(0.193445 0.0203235 0)
(0.192295 0.0120092 0)
(0.190941 0.00372259 0)
(0.189378 -0.00454311 0)
(0.187601 -0.0127947 0)
(0.185604 -0.0210387 0)
(0.183384 -0.0292818 0)
(0.180934 -0.0375302 0)
(0.17825 -0.04579 0)
(0.175326 -0.0540672 0)
(0.172159 -0.0623671 0)
(0.168741 -0.0706944 0)
(0.165069 -0.0790535 0)
(0.161135 -0.0874474 0)
(0.156935 -0.0958783 0)
(0.152463 -0.104347 0)
(0.147713 -0.112853 0)
(0.14268 -0.121394 0)
(0.137359 -0.129967 0)
(0.131748 -0.138567 0)
(0.206919 0.0970702 0)
(0.20745 0.0883215 0)
(0.207821 0.079675 0)
(0.208027 0.0711235 0)
(0.208061 0.0626588 0)
(0.207918 0.0542728 0)
(0.207591 0.0459577 0)
(0.207074 0.0377056 0)
(0.206362 0.0295087 0)
(0.205447 0.0213596 0)
(0.204325 0.013251 0)
(0.202989 0.00517569 0)
(0.201434 -0.00287331 0)
(0.199654 -0.0109029 0)
(0.197644 -0.0189197 0)
(0.195398 -0.0269303 0)
(0.192911 -0.0349409 0)
(0.190177 -0.0429577 0)
(0.187191 -0.0509862 0)
(0.183946 -0.0590318 0)
(0.180437 -0.0670991 0)
(0.176657 -0.0751921 0)
(0.172599 -0.0833138 0)
(0.168258 -0.0914664 0)
(0.163626 -0.0996509 0)
(0.158697 -0.107867 0)
(0.153466 -0.116113 0)
(0.147927 -0.124386 0)
(0.142076 -0.132683 0)
(0.218294 0.0963973 0)
(0.218956 0.0878124 0)
(0.219446 0.0793346 0)
(0.219758 0.070957 0)
(0.219886 0.062672 0)
(0.219826 0.0544718 0)
(0.219572 0.0463484 0)
(0.219117 0.0382941 0)
(0.218456 0.0303011 0)
(0.217582 0.0223618 0)
(0.216491 0.0144689 0)
(0.215175 0.00661504 0)
(0.213629 -0.00120676 0)
(0.211848 -0.00900337 0)
(0.209825 -0.0167815 0)
(0.207554 -0.0245476 0)
(0.20503 -0.032308 0)
(0.202246 -0.0400684 0)
(0.199195 -0.0478344 0)
(0.195872 -0.055611 0)
(0.192269 -0.0634028 0)
(0.188379 -0.0712135 0)
(0.184194 -0.079046 0)
(0.179709 -0.0869025 0)
(0.174915 -0.0947841 0)
(0.169805 -0.102691 0)
(0.164373 -0.110621 0)
(0.158612 -0.118574 0)
(0.152519 -0.126547 0)
(0.229689 0.0955769 0)
(0.230501 0.0871707 0)
(0.231124 0.0788754 0)
(0.231554 0.0706849 0)
(0.231788 0.0625919 0)
(0.231821 0.0545891 0)
(0.231647 0.0466688 0)
(0.231261 0.0388232 0)
(0.230657 0.0310449 0)
(0.229829 0.0233262 0)
(0.228772 0.0156598 0)
(0.22748 0.00803841 0)
(0.225946 0.000455046 0)
(0.224165 -0.00709704 0)
(0.22213 -0.0146245 0)
(0.219834 -0.0221337 0)
(0.217272 -0.0296307 0)
(0.214437 -0.0371212 0)
(0.211321 -0.0446103 0)
(0.207917 -0.0521031 0)
(0.204218 -0.0596036 0)
(0.200217 -0.0671155 0)
(0.195904 -0.0746416 0)
(0.191272 -0.0821841 0)
(0.186313 -0.089744 0)
(0.18102 -0.0973218 0)
(0.175384 -0.104917 0)
(0.169401 -0.112529 0)
(0.163065 -0.120157 0)
(0.241061 0.0945905 0)
(0.24204 0.0863799 0)
(0.242812 0.0782829 0)
(0.243377 0.0702942 0)
(0.243729 0.0624073 0)
(0.243866 0.0546151 0)
(0.243782 0.0469105 0)
(0.243473 0.0392861 0)
(0.242933 0.0317344 0)
(0.242157 0.0242481 0)
(0.241139 0.01682 0)
(0.239873 0.00944296 0)
(0.238354 0.00211014 0)
(0.236575 -0.00518517 0)
(0.234529 -0.0124494 0)
(0.23221 -0.0196887 0)
(0.22961 -0.0269088 0)
(0.226723 -0.0341152 0)
(0.223541 -0.0413128 0)
(0.220056 -0.0485064 0)
(0.21626 -0.0556997 0)
(0.212145 -0.0628963 0)
(0.207702 -0.0700988 0)
(0.202923 -0.0773093 0)
(0.197799 -0.0845292 0)
(0.192321 -0.0917592 0)
(0.186483 -0.0989997 0)
(0.180277 -0.106251 0)
(0.173699 -0.113514 0)
(0.252352 0.0934179 0)
(0.253518 0.0854216 0)
(0.254459 0.0775406 0)
(0.255173 0.0697703 0)
(0.255658 0.0621051 0)
(0.255912 0.0545385 0)
(0.255929 0.0470639 0)
(0.255707 0.0396743 0)
(0.255239 0.0323626 0)
(0.254521 0.0251218 0)
(0.253549 0.0179449 0)
(0.252315 0.0108251 0)
(0.250813 0.00375568 0)
(0.249039 -0.00326973 0)
(0.246984 -0.0102574 0)
(0.244641 -0.017213 0)
(0.242005 -0.0241422 0)
(0.239067 -0.0310501 0)
(0.235819 -0.0379413 0)
(0.232252 -0.0448202 0)
(0.228359 -0.0516904 0)
(0.224131 -0.058555 0)
(0.219558 -0.0654168 0)
(0.214631 -0.0722778 0)
(0.209342 -0.0791395 0)
(0.203682 -0.0860034 0)
(0.197644 -0.0928705 0)
(0.19122 -0.0997425 0)
(0.184405 -0.106622 0)
(0.263494 0.0920372 0)
(0.264868 0.0842759 0)
(0.265997 0.0766304 0)
(0.266879 0.069097 0)
(0.267513 0.061671 0)
(0.267897 0.0543467 0)
(0.268028 0.047118 0)
(0.267903 0.0399784 0)
(0.267517 0.0329215 0)
(0.266866 0.0259406 0)
(0.265945 0.019029 0)
(0.264748 0.0121802 0)
(0.26327 0.00538808 0)
(0.261503 -0.00135364 0)
(0.259442 -0.00805056 0)
(0.25708 -0.0147083 0)
(0.254408 -0.0213321 0)
(0.25142 -0.0279266 0)
(0.248107 -0.0344962 0)
(0.24446 -0.0410449 0)
(0.240472 -0.0475759 0)
(0.236131 -0.0540924 0)
(0.23143 -0.0605968 0)
(0.226359 -0.0670913 0)
(0.220909 -0.0735777 0)
(0.215072 -0.080058 0)
(0.208839 -0.0865344 0)
(0.202205 -0.0930097 0)
(0.195164 -0.0994887 0)
(0.274404 0.0904255 0)
(0.276009 0.0829217 0)
(0.277346 0.075533 0)
(0.278414 0.0682568 0)
(0.279214 0.0610893 0)
(0.279745 0.0540255 0)
(0.280004 0.0470602 0)
(0.279988 0.0401875 0)
(0.279695 0.0334016 0)
(0.27912 0.0266961 0)
(0.278259 0.0200652 0)
(0.277106 0.0135026 0)
(0.275656 0.0070026 0)
(0.273903 0.000559441 0)
(0.271841 -0.00583204 0)
(0.269461 -0.0121772 0)
(0.266758 -0.0184806 0)
(0.263723 -0.0247468 0)
(0.260348 -0.0309795 0)
(0.256625 -0.0371825 0)
(0.252543 -0.0433589 0)
(0.248095 -0.0495114 0)
(0.243271 -0.0556425 0)
(0.238062 -0.0617546 0)
(0.232459 -0.0678498 0)
(0.226453 -0.0739309 0)
(0.220038 -0.080001 0)
(0.213207 -0.0860647 0)
(0.205956 -0.0921287 0)
(0.284992 0.0885597 0)
(0.28685 0.0813373 0)
(0.288415 0.0742284 0)
(0.289689 0.0672313 0)
(0.290673 0.060343 0)
(0.291366 0.0535598 0)
(0.291768 0.0468769 0)
(0.291875 0.0402895 0)
(0.291687 0.033792 0)
(0.291198 0.0273792 0)
(0.290406 0.0210453 0)
(0.289306 0.014785 0)
(0.287892 0.00859298 0)
(0.286159 0.00246401 0)
(0.284101 -0.00360674 0)
(0.281711 -0.00962404 0)
(0.278982 -0.0155921 0)
(0.275905 -0.0215147 0)
(0.272474 -0.0273956 0)
(0.268679 -0.0332379 0)
(0.264513 -0.0390446 0)
(0.259965 -0.0448183 0)
(0.255027 -0.0505616 0)
(0.249691 -0.0562769 0)
(0.243948 -0.061967 0)
(0.23779 -0.0676353 0)
(0.231211 -0.0732864 0)
(0.224205 -0.0789264 0)
(0.21677 -0.0845644 0)
(0.295154 0.0864171 0)
(0.297286 0.0795013 0)
(0.299101 0.0726963 0)
(0.3006 0.0660016 0)
(0.301786 0.059415 0)
(0.302658 0.0529335 0)
(0.303218 0.0465536 0)
(0.303463 0.0402709 0)
(0.303392 0.0340809 0)
(0.303002 0.0279788 0)
(0.30229 0.0219597 0)
(0.301252 0.0160187 0)
(0.299884 0.0101511 0)
(0.29818 0.00435231 0)
(0.296135 -0.00138216 0)
(0.293742 -0.00705599 0)
(0.290995 -0.0126733 0)
(0.287886 -0.0182376 0)
(0.284408 -0.023752 0)
(0.280553 -0.0292195 0)
(0.276312 -0.0346428 0)
(0.271678 -0.0400244 0)
(0.266643 -0.0453671 0)
(0.261197 -0.0506736 0)
(0.255335 -0.0559473 0)
(0.249049 -0.0611926 0)
(0.242334 -0.0664153 0)
(0.235187 -0.0716235 0)
(0.227605 -0.0768285 0)
(0.304781 0.0839762 0)
(0.307208 0.0773931 0)
(0.309292 0.0709172 0)
(0.311035 0.0645491 0)
(0.31244 0.0582875 0)
(0.313508 0.0521304 0)
(0.314241 0.046075 0)
(0.314639 0.0401178 0)
(0.314699 0.0342551 0)
(0.314421 0.0284828 0)
(0.313802 0.0227968 0)
(0.312839 0.0171928 0)
(0.311528 0.0116667 0)
(0.309865 0.00621462 0)
(0.307844 0.000832524 0)
(0.305461 -0.00448269 0)
(0.302708 -0.0097347 0)
(0.29958 -0.0149266 0)
(0.296071 -0.0200612 0)
(0.292172 -0.0251412 0)
(0.287876 -0.0301692 0)
(0.283177 -0.0351478 0)
(0.278068 -0.0400798 0)
(0.272541 -0.0449687 0)
(0.266592 -0.0498184 0)
(0.260214 -0.0546344 0)
(0.253405 -0.059424 0)
(0.246161 -0.064197 0)
(0.238483 -0.0689672 0)
(0.313759 0.0812177 0)
(0.316499 0.0749936 0)
(0.318869 0.0688727 0)
(0.320872 0.0628561 0)
(0.322514 0.0569436 0)
(0.323795 0.051134 0)
(0.324718 0.0454254 0)
(0.325283 0.0398151 0)
(0.32549 0.0343003 0)
(0.325339 0.0288774 0)
(0.324828 0.0235433 0)
(0.323954 0.0182942 0)
(0.322716 0.0131267 0)
(0.321108 0.00803755 0)
(0.319129 0.0030234 0)
(0.316772 -0.00191899 0)
(0.314033 -0.00679224 0)
(0.310907 -0.0115992 0)
(0.307388 -0.0163426 0)
(0.303471 -0.0210248 0)
(0.29915 -0.0256484 0)
(0.294419 -0.0302163 0)
(0.289273 -0.0347316 0)
(0.283706 -0.0391981 0)
(0.277716 -0.0436209 0)
(0.271298 -0.0480065 0)
(0.264452 -0.0523636 0)
(0.257176 -0.056704 0)
(0.249472 -0.0610435 0)
(0.321973 0.078125 0)
(0.325039 0.0722864 0)
(0.327711 0.066546 0)
(0.329992 0.060906 0)
(0.331885 0.0553668 0)
(0.333396 0.0499281 0)
(0.334525 0.0445888 0)
(0.335274 0.039347 0)
(0.335646 0.0342004 0)
(0.335639 0.0291466 0)
(0.335254 0.0241827 0)
(0.334489 0.0193059 0)
(0.333343 0.0145134 0)
(0.331814 0.00980223 0)
(0.329899 0.00516972 0)
(0.327595 0.000613055 0)
(0.324899 -0.00387004 0)
(0.321807 -0.00828218 0)
(0.318314 -0.0126258 0)
(0.314418 -0.0169035 0)
(0.310115 -0.0211178 0)
(0.3054 -0.0252717 0)
(0.30027 -0.029369 0)
(0.294724 -0.0334141 0)
(0.288759 -0.0374129 0)
(0.282373 -0.041373 0)
(0.275568 -0.0453047 0)
(0.268345 -0.0492212 0)
(0.260707 -0.0531404 0)
(0.329309 0.0746846 0)
(0.332717 0.069257 0)
(0.335704 0.0639224 0)
(0.338277 0.0586833 0)
(0.340439 0.0535411 0)
(0.342196 0.0484961 0)
(0.343549 0.0435477 0)
(0.344504 0.038695 0)
(0.345061 0.0339364 0)
(0.345222 0.0292699 0)
(0.344988 0.0246935 0)
(0.344359 0.0202048 0)
(0.343336 0.0158015 0)
(0.341918 0.0114812 0)
(0.340104 0.00724163 0)
(0.337893 0.00308041 0)
(0.335283 -0.00100483 0)
(0.332273 -0.00501617 0)
(0.32886 -0.00895614 0)
(0.325044 -0.0128273 0)
(0.320822 -0.0166325 0)
(0.316194 -0.0203751 0)
(0.311159 -0.0240592 0)
(0.305715 -0.02769 0)
(0.299865 -0.0312743 0)
(0.293608 -0.0348207 0)
(0.286948 -0.0383405 0)
(0.279888 -0.0418486 0)
(0.272432 -0.0453644 0)
(0.335677 0.0708853 0)
(0.339438 0.0658926 0)
(0.342757 0.0609871 0)
(0.345638 0.0561719 0)
(0.348089 0.0514486 0)
(0.350114 0.0468181 0)
(0.351718 0.0422806 0)
(0.352905 0.0378357 0)
(0.353679 0.0334822 0)
(0.354042 0.0292188 0)
(0.353998 0.025044 0)
(0.353548 0.020956 0)
(0.352695 0.0169528 0)
(0.351439 0.0130324 0)
(0.349782 0.00919279 0)
(0.347724 0.00543189 0)
(0.345268 0.00174744 0)
(0.342412 -0.00186262 0)
(0.339158 -0.00540077 0)
(0.335507 -0.00886971 0)
(0.33146 -0.0122726 0)
(0.327017 -0.0156129 0)
(0.322181 -0.0188954 0)
(0.316953 -0.022126 0)
(0.311336 -0.025312 0)
(0.305333 -0.0284629 0)
(0.298949 -0.031591 0)
(0.292188 -0.034712 0)
(0.285055 -0.0378465 0)
(0.34104 0.0667141 0)
(0.345173 0.0621776 0)
(0.348846 0.0577218 0)
(0.352064 0.0533499 0)
(0.354835 0.0490641 0)
(0.357165 0.0448657 0)
(0.35906 0.0407552 0)
(0.360525 0.0367326 0)
(0.361566 0.0327974 0)
(0.362187 0.0289485 0)
(0.362394 0.0251849 0)
(0.36219 0.0215051 0)
(0.361579 0.0179074 0)
(0.360565 0.0143903 0)
(0.359151 0.0109517 0)
(0.35734 0.00758991 0)
(0.355135 0.00430275 0)
(0.35254 0.00108791 0)
(0.349558 -0.00205701 0)
(0.346191 -0.00513488 0)
(0.342443 -0.00814915 0)
(0.338318 -0.0111031 0)
(0.333819 -0.0140021 0)
(0.32895 -0.0168527 0)
(0.323715 -0.0196627 0)
(0.31812 -0.0224419 0)
(0.312168 -0.0252031 0)
(0.305866 -0.0279626 0)
(0.299218 -0.0307412 0)
(0.345519 0.0621485 0)
(0.350063 0.0580845 0)
(0.354135 0.0540938 0)
(0.35774 0.0501797 0)
(0.360888 0.0463447 0)
(0.363586 0.0425901 0)
(0.365841 0.0389169 0)
(0.367662 0.0353254 0)
(0.369054 0.0318152 0)
(0.370024 0.0283858 0)
(0.37058 0.0250363 0)
(0.370726 0.0217655 0)
(0.370469 0.0185721 0)
(0.369815 0.0154546 0)
(0.36877 0.0124113 0)
(0.367337 0.00944045 0)
(0.365523 0.00653999 0)
(0.363334 0.00370772 0)
(0.360773 0.00094112 0)
(0.357845 -0.00176273 0)
(0.354558 -0.00440803 0)
(0.350916 -0.00699704 0)
(0.346922 -0.00953585 0)
(0.342583 -0.0120311 0)
(0.337904 -0.0144907 0)
(0.332891 -0.0169249 0)
(0.327548 -0.0193462 0)
(0.32188 -0.0217709 0)
(0.315891 -0.0242193 0)
(0.349629 0.0571393 0)
(0.35466 0.053557 0)
(0.359214 0.0500397 0)
(0.363299 0.0465906 0)
(0.366924 0.043212 0)
(0.370098 0.0399057 0)
(0.372831 0.0366725 0)
(0.375129 0.0335131 0)
(0.377003 0.0304273 0)
(0.378461 0.0274149 0)
(0.37951 0.0244751 0)
(0.380158 0.0216071 0)
(0.380413 0.0188097 0)
(0.380282 0.0160816 0)
(0.379773 0.0134214 0)
(0.378891 0.0108273 0)
(0.377645 0.00829756 0)
(0.37604 0.00583003 0)
(0.374084 0.0034224 0)
(0.371781 0.00107182 0)
(0.36914 -0.00122429 0)
(0.366167 -0.00347321 0)
(0.362864 -0.00567767 0)
(0.35924 -0.00784334 0)
(0.3553 -0.00997855 0)
(0.351048 -0.0120933 0)
(0.346489 -0.0141998 0)
(0.341626 -0.0163135 0)
(0.336463 -0.0184541 0)
(0.354742 0.0515892 0)
(0.360393 0.0484895 0)
(0.36557 0.0454454 0)
(0.370282 0.04246 0)
(0.374539 0.0395356 0)
(0.378351 0.0366739 0)
(0.381727 0.0338761 0)
(0.384678 0.0311426 0)
(0.387212 0.0284738 0)
(0.38934 0.0258695 0)
(0.391069 0.0233293 0)
(0.392409 0.0208525 0)
(0.393368 0.0184382 0)
(0.393955 0.0160854 0)
(0.394177 0.0137928 0)
(0.394042 0.0115589 0)
(0.393558 0.00938211 0)
(0.392732 0.00726053 0)
(0.391571 0.00519203 0)
(0.390082 0.0031739 0)
(0.38827 0.00120408 0)
(0.386142 -0.000724272 0)
(0.383706 -0.00261494 0)
(0.380965 -0.00447218 0)
(0.377924 -0.00630379 0)
(0.374587 -0.00811906 0)
(0.370958 -0.00992947 0)
(0.367039 -0.0117493 0)
(0.36283 -0.0135967 0)
(0.363851 0.0453398 0)
(0.370299 0.0427162 0)
(0.376282 0.0401384 0)
(0.381807 0.0376093 0)
(0.386885 0.0351312 0)
(0.391525 0.0327057 0)
(0.395739 0.030334 0)
(0.399535 0.028017 0)
(0.402923 0.025755 0)
(0.405913 0.0235482 0)
(0.408513 0.0213963 0)
(0.410733 0.0192989 0)
(0.412581 0.0172554 0)
(0.414065 0.0152651 0)
(0.415194 0.0133269 0)
(0.415976 0.0114396 0)
(0.416418 0.00960195 0)
(0.416527 0.00781223 0)
(0.41631 0.00606852 0)
(0.415774 0.00436846 0)
(0.414925 0.00270869 0)
(0.413767 0.00108772 0)
(0.41231 -0.000500181 0)
(0.410556 -0.00206135 0)
(0.408508 -0.00360129 0)
(0.406171 -0.00512776 0)
(0.403547 -0.00665112 0)
(0.400635 -0.00818429 0)
(0.397435 -0.00974348 0)
(0.382465 0.0382019 0)
(0.38986 0.0360456 0)
(0.396797 0.0339258 0)
(0.403281 0.0318452 0)
(0.409322 0.0298059 0)
(0.41493 0.0278095 0)
(0.420114 0.0258574 0)
(0.424882 0.0239503 0)
(0.429245 0.0220889 0)
(0.433211 0.0202736 0)
(0.436788 0.0185042 0)
(0.439985 0.0167807 0)
(0.442811 0.0151027 0)
(0.445273 0.0134697 0)
(0.44738 0.0118809 0)
(0.44914 0.0103355 0)
(0.450558 0.00883225 0)
(0.451644 0.00736997 0)
(0.452403 0.00594699 0)
(0.452842 0.00456138 0)
(0.452966 0.00321069 0)
(0.452783 0.00189243 0)
(0.452296 0.000603452 0)
(0.451509 -0.000663492 0)
(0.450429 -0.00191274 0)
(0.449056 -0.00315053 0)
(0.447392 -0.00438587 0)
(0.445437 -0.00562996 0)
(0.443187 -0.00689677 0)
(0.419137 0.030073 0)
(0.42744 0.0283802 0)
(0.435283 0.0267159 0)
(0.442672 0.0250823 0)
(0.449614 0.0234814 0)
(0.45612 0.0219148 0)
(0.462196 0.0203837 0)
(0.467851 0.0188889 0)
(0.473094 0.0174311 0)
(0.477932 0.0160108 0)
(0.482375 0.0146281 0)
(0.486431 0.013283 0)
(0.490107 0.0119753 0)
(0.493413 0.0107046 0)
(0.496355 0.00947056 0)
(0.498942 0.00827231 0)
(0.501181 0.00710899 0)
(0.503079 0.00597951 0)
(0.504645 0.00488264 0)
(0.505884 0.00381698 0)
(0.506803 0.00278067 0)
(0.507409 0.00177083 0)
(0.507704 0.00078551 0)
(0.507695 -0.00018156 0)
(0.507388 -0.00113363 0)
(0.506784 -0.00207626 0)
(0.505885 -0.00301692 0)
(0.504688 -0.00396467 0)
(0.503193 -0.00493093 0)
(0.48468 0.0211404 0)
(0.493431 0.0199153 0)
(0.50172 0.0187118 0)
(0.509551 0.017532 0)
(0.516932 0.0163773 0)
(0.52387 0.0152489 0)
(0.530374 0.014148 0)
(0.536451 0.0130753 0)
(0.54211 0.0120312 0)
(0.547359 0.0110162 0)
(0.552208 0.0100305 0)
(0.556664 0.00907395 0)
(0.560737 0.00814654 0)
(0.564435 0.00724799 0)
(0.567767 0.0063779 0)
(0.570741 0.00553572 0)
(0.573366 0.00472062 0)
(0.57565 0.00393154 0)
(0.577602 0.00316711 0)
(0.57923 0.00242696 0)
(0.580538 0.0017097 0)
(0.581538 0.00101258 0)
(0.582229 0.000331389 0)
(0.582622 -0.000331229 0)
(0.582723 -0.00098142 0)
(0.582533 -0.00162528 0)
(0.582054 -0.00226838 0)
(0.581286 -0.00291728 0)
(0.580226 -0.00358054 0)
(0.589043 0.0120756 0)
(0.597183 0.011322 0)
(0.604878 0.0105837 0)
(0.612133 0.00986207 0)
(0.618954 0.00915817 0)
(0.625351 0.00847272 0)
(0.631332 0.00780633 0)
(0.636905 0.00715945 0)
(0.64208 0.00653237 0)
(0.646866 0.00592526 0)
(0.651272 0.00533815 0)
(0.655308 0.00477096 0)
(0.658984 0.00422352 0)
(0.662309 0.00369558 0)
(0.665293 0.00318681 0)
(0.667945 0.00269683 0)
(0.670275 0.0022251 0)
(0.672292 0.00177079 0)
(0.674005 0.00133166 0)
(0.675425 0.000907996 0)
(0.676556 0.000498298 0)
(0.677406 0.000102898 0)
(0.677984 -0.000281743 0)
(0.678301 -0.000653882 0)
(0.678353 -0.00101842 0)
(0.678148 -0.00137965 0)
(0.677688 -0.00174133 0)
(0.676974 -0.0021078 0)
(0.676003 -0.00248477 0)
(0.735383 0.00432508 0)
(0.7413 0.00400455 0)
(0.746852 0.00369275 0)
(0.752043 0.00339022 0)
(0.756883 0.00309736 0)
(0.761379 0.00281439 0)
(0.76554 0.00254145 0)
(0.769377 0.00227861 0)
(0.772897 0.00202589 0)
(0.77611 0.00178323 0)
(0.779026 0.00155052 0)
(0.781654 0.00132757 0)
(0.784005 0.00111417 0)
(0.786087 0.00091002 0)
(0.78791 0.000714833 0)
(0.789483 0.000528183 0)
(0.790814 0.000350154 0)
(0.791912 0.000180738 0)
(0.792786 2.16274e-05 0)
(0.793446 -0.000131294 0)
(0.793897 -0.000280371 0)
(0.794148 -0.000424251 0)
(0.794204 -0.000561427 0)
(0.79407 -0.000696531 0)
(0.793749 -0.000829721 0)
(0.793245 -0.000962088 0)
(0.79256 -0.00109566 0)
(0.791694 -0.00123287 0)
(0.790644 -0.00137677 0)
(0.912229 0.000505948 0)
(0.914301 0.000444262 0)
(0.916201 0.000385225 0)