/*--------------------------------*- C++ -*----------------------------------*\
  =========                 |
  \\      /  F ield         | OpenFOAM: The Open Source CFD Toolbox
   \\    /   O peration     | Website:  https://openfoam.org
    \\  /    A nd           | Version:  9
     \\/     M anipulation  |
\*---------------------------------------------------------------------------*/
FoamFile
{
    format      ascii;
    class       surfaceScalarField;
    location    "1.25";
    object      phi;
}
// * * * * * * * * * * * * * * * * * * * * * * * * * * * * * * * * * * * * * //

dimensions      [0 3 -1 0 0 0 0];

internalField   nonuniform List<scalar> 
2427
(
9.56099e-07
2.55641e-06
1.0131e-06
2.56744e-06
1.06815e-06
2.56734e-06
1.12068e-06
2.55588e-06
1.17025e-06
2.53315e-06
1.21652e-06
2.49953e-06
1.25929e-06
2.45564e-06
1.29847e-06
2.4023e-06
1.33409e-06
2.34046e-06
1.36626e-06
2.27116e-06
1.39518e-06
2.19543e-06
1.42109e-06
2.1143e-06
1.44427e-06
2.0287e-06
1.46498e-06
1.93948e-06
1.48349e-06
1.84734e-06
1.50003e-06
1.75287e-06
1.51477e-06
1.65653e-06
1.55866e-06
3.93196e-09
1.07565e-07
1.42288e-08
3.14211e-07
2.96124e-08
5.1069e-07
4.89465e-08
6.95263e-07
7.1223e-08
8.664e-07
9.55826e-08
1.02302e-06
1.21344e-07
1.16463e-06
1.48028e-07
1.29145e-06
1.75369e-07
1.4043e-06
2.03307e-07
1.50457e-06
2.31968e-07
1.59401e-06
2.61628e-07
1.67462e-06
2.92671e-07
1.74842e-06
3.25538e-07
1.81729e-06
3.60684e-07
1.88289e-06
3.98532e-07
1.9465e-06
4.39428e-07
2.009e-06
4.83614e-07
2.07081e-06
5.31201e-07
2.13193e-06
5.82151e-07
2.19195e-06
6.36276e-07
2.2501e-06
6.9324e-07
2.30536e-06
7.52572e-07
2.3565e-06
8.13685e-07
2.40221e-06
8.75909e-07
2.44118e-06
9.38513e-07
2.47219e-06
1.00078e-06
2.49415e-06
1.06197e-06
2.50625e-06
1.12142e-06
2.50789e-06
1.17852e-06
2.49878e-06
1.23277e-06
2.4789e-06
1.28378e-06
2.44852e-06
1.33129e-06
2.40813e-06
1.37516e-06
2.35843e-06
1.41535e-06
2.30027e-06
1.45194e-06
2.23457e-06
1.48506e-06
2.16231e-06
1.51492e-06
2.08443e-06
1.54177e-06
2.00185e-06
1.56586e-06
1.91539e-06
1.58743e-06
1.82576e-06
1.60673e-06
1.73357e-06
1.62394e-06
1.63932e-06
1.54337e-06
3.72388e-09
1.03841e-07
1.35551e-08
3.04379e-07
2.8371e-08
4.95874e-07
4.71747e-08
6.76459e-07
6.90724e-08
8.44502e-07
9.32879e-08
9.988e-07
1.1919e-07
1.13873e-06
1.4632e-07
1.26432e-06
1.74406e-07
1.37622e-06
2.03362e-07
1.47561e-06
2.33276e-07
1.5641e-06
2.64383e-07
1.64352e-06
2.97022e-07
1.71578e-06
3.31601e-07
1.78271e-06
3.68547e-07
1.84594e-06
4.08264e-07
1.90678e-06
4.51096e-07
1.96616e-06
4.97293e-07
2.02461e-06
5.4698e-07
2.08224e-06
6.00148e-07
2.13878e-06
6.56638e-07
2.19361e-06
7.16148e-07
2.24585e-06
7.78237e-07
2.29441e-06
8.42351e-07
2.3381e-06
9.07842e-07
2.37569e-06
9.74004e-07
2.40603e-06
1.04008e-06
2.42808e-06
1.10534e-06
2.44099e-06
1.16909e-06
2.44414e-06
1.2307e-06
2.43717e-06
1.28961e-06
2.41998e-06
1.34541e-06
2.39272e-06
1.39775e-06
2.35578e-06
1.44644e-06
2.30974e-06
1.49138e-06
2.25532e-06
1.53259e-06
2.19336e-06
1.57016e-06
2.12474e-06
1.60424e-06
2.05035e-06
1.63504e-06
1.97105e-06
1.66279e-06
1.88764e-06
1.68773e-06
1.80082e-06
1.71008e-06
1.71123e-06
1.73003e-06
1.61936e-06
1.52565e-06
3.46958e-09
1.00372e-07
1.27064e-08
2.95142e-07
2.67566e-08
4.81824e-07
4.47782e-08
6.58438e-07
6.60075e-08
8.23273e-07
8.97678e-08
9.7504e-07
1.15494e-07
1.11301e-06
1.42759e-07
1.23706e-06
1.71295e-07
1.34768e-06
2.00999e-07
1.44591e-06
2.31925e-07
1.53317e-06
2.64264e-07
1.61118e-06
2.98312e-07
1.68173e-06
3.34434e-07
1.74659e-06
3.73026e-07
1.80735e-06
4.14469e-07
1.86534e-06
4.59095e-07
1.92154e-06
5.07154e-07
1.97656e-06
5.58786e-07
2.03061e-06
6.14001e-07
2.08357e-06
6.72673e-07
2.13494e-06
7.34531e-07
2.18399e-06
7.99171e-07
2.22977e-06
8.66069e-07
2.2712e-06
9.34604e-07
2.30716e-06
1.00408e-06
2.33655e-06
1.07377e-06
2.35839e-06
1.14292e-06
2.37183e-06
1.21084e-06
2.37622e-06
1.27686e-06
2.37115e-06
1.34039e-06
2.35645e-06
1.40095e-06
2.33216e-06
1.45816e-06
2.29857e-06
1.51176e-06
2.25615e-06
1.56158e-06
2.2055e-06
1.60759e-06
2.14736e-06
1.6498e-06
2.08253e-06
1.68834e-06
2.01181e-06
1.72337e-06
1.93603e-06
1.75507e-06
1.85593e-06
1.78366e-06
1.77223e-06
1.80936e-06
1.68554e-06
1.83234e-06
1.59638e-06
1.5052e-06
3.16542e-09
9.72064e-08
1.16695e-08
2.86638e-07
2.47423e-08
4.68751e-07
4.17136e-08
6.41466e-07
6.19678e-08
8.03019e-07
8.49443e-08
9.52063e-07
1.10159e-07
1.08779e-06
1.37232e-07
1.20998e-06
1.6591e-07
1.319e-06
1.96078e-07
1.41574e-06
2.2776e-07
1.50149e-06
2.61107e-07
1.57783e-06
2.96368e-07
1.64647e-06
3.33863e-07
1.70909e-06
3.73948e-07
1.76726e-06
4.16975e-07
1.82231e-06
4.63258e-07
1.87525e-06
5.13041e-07
1.92677e-06
5.6647e-07
1.97718e-06
6.23574e-07
2.02646e-06
6.84251e-07
2.07426e-06
7.48265e-07
2.11997e-06
8.15248e-07
2.16278e-06
8.8471e-07
2.20174e-06
9.56061e-07
2.23581e-06
1.02863e-06
2.26398e-06
1.10171e-06
2.28531e-06
1.17457e-06
2.29897e-06
1.24647e-06
2.30432e-06
1.31675e-06
2.30088e-06
1.38478e-06
2.28842e-06
1.45004e-06
2.26691e-06
1.51209e-06
2.23652e-06
1.57061e-06
2.19762e-06
1.62539e-06
2.15072e-06
1.67631e-06
2.09644e-06
1.72334e-06
2.03549e-06
1.76654e-06
1.96861e-06
1.80602e-06
1.89655e-06
1.84194e-06
1.82002e-06
1.87447e-06
1.7397e-06
1.90379e-06
1.65621e-06
1.9301e-06
1.57007e-06
1.48174e-06
2.80697e-09
9.43994e-08
1.04281e-08
2.79017e-07
2.22956e-08
4.56884e-07
3.79309e-08
6.25831e-07
5.68859e-08
7.84064e-07
7.87342e-08
9.30215e-07
1.03089e-07
1.06344e-06
1.2963e-07
1.18344e-06
1.58129e-07
1.2905e-06
1.88468e-07
1.3854e-06
2.20646e-07
1.46931e-06
2.54773e-07
1.54371e-06
2.9105e-07
1.61019e-06
3.2975e-07
1.67039e-06
3.71181e-07
1.72583e-06
4.15659e-07
1.77783e-06
4.63474e-07
1.82744e-06
5.14854e-07
1.87539e-06
5.69948e-07
1.92209e-06
6.28794e-07
1.96761e-06
6.91315e-07
2.01174e-06
7.57304e-07
2.05399e-06
8.26429e-07
2.09366e-06
8.98237e-07
2.12993e-06
9.72175e-07
2.16187e-06
1.04761e-06
2.18855e-06
1.12384e-06
2.20908e-06
1.20015e-06
2.22266e-06
1.27582e-06
2.22865e-06
1.35016e-06
2.22654e-06
1.42252e-06
2.21605e-06
1.49234e-06
2.19708e-06
1.55915e-06
2.16971e-06
1.62256e-06
2.13421e-06
1.6823e-06
2.09098e-06
1.73819e-06
2.04055e-06
1.79014e-06
1.98354e-06
1.83815e-06
1.9206e-06
1.88228e-06
1.85242e-06
1.92263e-06
1.77967e-06
1.95934e-06
1.70299e-06
1.99257e-06
1.62298e-06
2.02248e-06
1.54015e-06
1.45499e-06
2.38756e-09
9.20118e-08
8.9592e-09
2.72446e-07
1.93719e-08
4.46471e-07
3.33633e-08
6.1184e-07
5.06742e-08
7.66753e-07
7.10324e-08
9.09857e-07
9.41644e-08
1.0403e-06
1.19823e-07
1.15778e-06
1.47816e-07
1.26251e-06
1.7803e-07
1.35519e-06
2.10441e-07
1.4369e-06
2.4512e-07
1.50903e-06
2.8222e-07
1.57309e-06
3.21959e-07
1.63065e-06
3.64596e-07
1.6832e-06
4.10404e-07
1.73202e-06
4.59638e-07
1.77821e-06
5.12506e-07
1.82252e-06
5.69148e-07
1.86545e-06
6.2961e-07
1.90715e-06
6.9383e-07
1.94752e-06
7.61627e-07
1.98619e-06
8.32704e-07
2.02258e-06
9.06647e-07
2.05598e-06
9.8294e-07
2.08558e-06
1.06098e-06
2.11051e-06
1.14011e-06
2.12995e-06
1.21961e-06
2.14316e-06
1.29879e-06
2.14947e-06
1.37695e-06
2.14839e-06
1.45342e-06
2.13958e-06
1.52762e-06
2.12288e-06
1.59903e-06
2.0983e-06
1.66722e-06
2.06602e-06
1.73186e-06
2.02634e-06
1.79271e-06
1.97971e-06
1.84962e-06
1.92663e-06
1.90252e-06
1.8677e-06
1.95142e-06
1.80353e-06
1.99636e-06
1.73472e-06
2.03746e-06
1.6619e-06
2.07483e-06
1.58561e-06
2.1086e-06
1.50638e-06
1.42468e-06
1.89768e-09
9.01141e-08
7.23058e-09
2.67113e-07
1.59105e-08
4.37791e-07
2.79208e-08
5.99829e-07
4.32181e-08
7.51455e-07
6.17047e-08
8.9137e-07
8.32378e-08
1.01877e-06
1.07656e-07
1.13336e-06
1.34813e-07
1.23536e-06
1.64604e-07
1.3254e-06
1.96988e-07
1.40452e-06
2.31997e-07
1.47402e-06
2.69732e-07
1.53535e-06
3.10357e-07
1.59003e-06
3.54073e-07
1.63948e-06
4.01102e-07
1.685e-06
4.51658e-07
1.72765e-06
5.05921e-07
1.76826e-06
5.64016e-07
1.80735e-06
6.25985e-07
1.84518e-06
6.91777e-07
1.88173e-06
7.61236e-07
1.91673e-06
8.34092e-07
1.94973e-06
9.0997e-07
1.98011e-06
9.88391e-07
2.00715e-06
1.06879e-06
2.03011e-06
1.15054e-06
2.0482e-06
1.23297e-06
2.06073e-06
1.31537e-06
2.06706e-06
1.39707e-06
2.06669e-06
1.47739e-06
2.05926e-06
1.55572e-06
2.04455e-06
1.63152e-06
2.02251e-06
1.7043e-06
1.99323e-06
1.7737e-06
1.95694e-06
1.83942e-06
1.91399e-06
1.90124e-06
1.86481e-06
1.95905e-06
1.8099e-06
2.01278e-06
1.7498e-06
2.06243e-06
1.68507e-06
2.10806e-06
1.61627e-06
2.14974e-06
1.54392e-06
2.18758e-06
1.46854e-06
1.39056e-06
1.32431e-09
8.87898e-08
5.19872e-09
2.63238e-07
1.18295e-08
4.3116e-07
2.14849e-08
5.90174e-07
3.43679e-08
7.38572e-07
5.05796e-08
8.75159e-07
7.01246e-08
9.99226e-07
9.29396e-08
1.11055e-06
1.1893e-07
1.20936e-06
1.48007e-07
1.29632e-06
1.80114e-07
1.37241e-06
2.15241e-07
1.43889e-06
2.53439e-07
1.49716e-06
2.94808e-07
1.54866e-06
3.3949e-07
1.5948e-06
3.87649e-07
1.63684e-06
4.39449e-07
1.67585e-06
4.95036e-07
1.71267e-06
5.54507e-07
1.74788e-06
6.17899e-07
1.78179e-06
6.85162e-07
1.81447e-06
7.56156e-07
1.84574e-06
8.30639e-07
1.87524e-06
9.08269e-07
1.90248e-06
9.88605e-07
1.92682e-06
1.07112e-06
1.94759e-06
1.15523e-06
1.96409e-06
1.24029e-06
1.97567e-06
1.32562e-06
1.98173e-06
1.41054e-06
1.98177e-06
1.4944e-06
1.9754e-06
1.57657e-06
1.96238e-06
1.65648e-06
1.9426e-06
1.73362e-06
1.91609e-06
1.80758e-06
1.88299e-06
1.878e-06
1.84357e-06
1.94462e-06
1.79819e-06
2.00725e-06
1.74726e-06
2.06579e-06
1.69126e-06
2.12017e-06
1.63069e-06
2.1704e-06
1.56604e-06
2.21651e-06
1.49781e-06
2.25857e-06
1.42648e-06
1.35248e-06
6.515e-10
8.81383e-08
2.80536e-09
2.61084e-07
7.01928e-09
4.26946e-07
1.3899e-08
5.83294e-07
2.39303e-08
7.28541e-07
3.74391e-08
8.6165e-07
5.45946e-08
9.8207e-07
7.54417e-08
1.0897e-06
9.99447e-08
1.18486e-06
1.2803e-07
1.26823e-06
1.59624e-07
1.34082e-06
1.94679e-07
1.40384e-06
2.33186e-07
1.45865e-06
2.7518e-07
1.50667e-06
3.20735e-07
1.54924e-06
3.69952e-07
1.58762e-06
4.22941e-07
1.62286e-06
4.798e-07
1.65581e-06
5.40597e-07
1.68709e-06
6.0535e-07
1.71704e-06
6.74006e-07
1.74581e-06
7.46436e-07
1.77331e-06
8.22417e-07
1.79926e-06
9.01637e-07
1.82326e-06
9.83695e-07
1.84476e-06
1.0681e-06
1.86318e-06
1.15431e-06
1.87789e-06
1.2417e-06
1.88828e-06
1.32964e-06
1.89379e-06
1.41747e-06
1.89394e-06
1.50454e-06
1.88833e-06
1.59021e-06
1.8767e-06
1.67391e-06
1.8589e-06
1.75511e-06
1.83489e-06
1.83334e-06
1.80476e-06
1.90823e-06
1.76869e-06
1.97944e-06
1.72697e-06
2.04675e-06
1.67995e-06
2.10999e-06
1.62802e-06
2.16905e-06
1.57163e-06
2.22387e-06
1.51122e-06
2.27445e-06
1.44724e-06
2.3208e-06
1.38013e-06
1.31031e-06
-1.59771e-10
8.82981e-08
-5.24458e-11
2.60977e-07
1.3285e-09
4.25566e-07
4.95811e-09
5.79664e-07
1.1656e-08
7.21843e-07
2.20064e-08
8.513e-07
3.63609e-08
9.67716e-07
5.488e-08
1.07118e-06
7.75881e-08
1.16215e-06
1.04427e-07
1.2414e-06
1.35302e-07
1.30994e-06
1.70119e-07
1.36902e-06
2.08809e-07
1.41996e-06
2.51335e-07
1.46414e-06
2.97698e-07
1.50288e-06
3.47929e-07
1.53739e-06
4.02074e-07
1.56872e-06
4.60181e-07
1.59771e-06
5.22278e-07
1.62499e-06
5.88356e-07
1.65096e-06
6.58355e-07
1.67581e-06
7.32146e-07
1.69951e-06
8.09524e-07
1.72188e-06
8.90201e-07
1.74258e-06
9.73807e-07
1.76115e-06
1.0599e-06
1.77709e-06
1.14795e-06
1.78983e-06
1.23741e-06
1.79883e-06
1.32765e-06
1.80355e-06
1.41805e-06
1.80354e-06
1.50797e-06
1.79842e-06
1.59679e-06
1.78789e-06
1.68392e-06
1.77177e-06
1.76882e-06
1.74999e-06
1.851e-06
1.72257e-06
1.93004e-06
1.68965e-06
2.00558e-06
1.65143e-06
2.07734e-06
1.60819e-06
2.14509e-06
1.56027e-06
2.20868e-06
1.50804e-06
2.268e-06
1.4519e-06
2.32299e-06
1.39225e-06
2.37362e-06
1.3295e-06
1.26402e-06
-1.11526e-09
8.94133e-08
-3.42041e-09
2.63282e-07
-5.4117e-09
4.27557e-07
-5.59856e-09
5.79851e-07
-2.77329e-09
7.19018e-07
3.93351e-09
8.44593e-07
1.50686e-08
9.56581e-07
3.09105e-08
1.05534e-06
5.15424e-08
1.14152e-06
7.69116e-08
1.21603e-06
1.06898e-07
1.27996e-06
1.41353e-07
1.33456e-06
1.80138e-07
1.38117e-06
2.2314e-07
1.42114e-06
2.70278e-07
1.45574e-06
3.21508e-07
1.48616e-06
3.76807e-07
1.51342e-06
4.36163e-07
1.53835e-06
4.99559e-07
1.56159e-06
5.66956e-07
1.58356e-06
6.38275e-07
1.60449e-06
7.13382e-07
1.62441e-06
7.92083e-07
1.64318e-06
8.74111e-07
1.66055e-06
9.59124e-07
1.67614e-06
1.04671e-06
1.6895e-06
1.1364e-06
1.70015e-06
1.22765e-06
1.70757e-06
1.31989e-06
1.71131e-06
1.41253e-06
1.71091e-06
1.50494e-06
1.706e-06
1.59653e-06
1.6963e-06
1.68671e-06
1.68159e-06
1.77493e-06
1.66177e-06
1.86068e-06
1.63682e-06
1.94351e-06
1.60682e-06
2.02305e-06
1.5719e-06
2.09894e-06
1.53229e-06
2.17095e-06
1.48827e-06
2.23884e-06
1.44015e-06
2.30248e-06
1.38826e-06
2.36175e-06
1.33298e-06
2.41658e-06
1.27466e-06
1.21366e-06
-2.28355e-09
9.16969e-08
-7.50437e-09
2.68503e-07
-1.3476e-08
4.33529e-07
-1.81198e-08
5.84495e-07
-1.97655e-08
7.20664e-07
-1.72175e-08
8.42045e-07
-9.71961e-09
9.49083e-07
3.12361e-09
1.0425e-06
2.14315e-08
1.12321e-06
4.51556e-08
1.1923e-06
7.41341e-08
1.25098e-06
1.08154e-07
1.30054e-06
1.46996e-07
1.34233e-06
1.9046e-07
1.37767e-06
2.38382e-07
1.40782e-06
2.90632e-07
1.43391e-06
3.47113e-07
1.45694e-06
4.07751e-07
1.47771e-06
4.72477e-07
1.49687e-06
5.41212e-07
1.51483e-06
6.13855e-07
1.53185e-06
6.90263e-07
1.548e-06
7.70244e-07
1.5632e-06
8.53546e-07
1.57725e-06
9.39853e-07
1.58983e-06
1.02879e-06
1.60057e-06
1.1199e-06
1.60903e-06
1.21272e-06
1.61476e-06
1.30668e-06
1.61734e-06
1.40124e-06
1.61635e-06
1.4958e-06
1.61144e-06
1.58978e-06
1.60231e-06
1.68261e-06
1.58876e-06
1.77374e-06
1.57064e-06
1.86265e-06
1.54791e-06
1.94888e-06
1.52058e-06
2.03202e-06
1.48876e-06
2.11169e-06
1.45261e-06
2.18761e-06
1.41235e-06
2.25952e-06
1.36824e-06
2.32721e-06
1.32057e-06
2.39055e-06
1.26964e-06
2.44941e-06
1.2158e-06
1.15934e-06
-3.7221e-09
9.5419e-08
-1.24746e-08
2.77256e-07
-2.31933e-08
4.44247e-07
-3.30546e-08
5.94356e-07
-3.98403e-08
7.27449e-07
-4.19924e-08
8.44197e-07
-3.85424e-08
9.45633e-07
-2.89929e-08
1.03295e-06
-1.3189e-08
1.10741e-06
8.78441e-09
1.17033e-06
3.67019e-08
1.22306e-06
7.02775e-08
1.26697e-06
1.09198e-07
1.30341e-06
1.53168e-07
1.3337e-06
2.01928e-07
1.35906e-06
2.55262e-07
1.38058e-06
3.12993e-07
1.39921e-06
3.74977e-07
1.41573e-06
4.4109e-07
1.43075e-06
5.11212e-07
1.44471e-06
5.85212e-07
1.45785e-06
6.62932e-07
1.47028e-06
7.4418e-07
1.48195e-06
8.28711e-07
1.49272e-06
9.16232e-07
1.50231e-06
1.00639e-06
1.51041e-06
1.09878e-06
1.51664e-06
1.19294e-06
1.5206e-06
1.28838e-06
1.5219e-06
1.38457e-06
1.52016e-06
1.48095e-06
1.51506e-06
1.57696e-06
1.5063e-06
1.67205e-06
1.49367e-06
1.76567e-06
1.47702e-06
1.85732e-06
1.45626e-06
1.94652e-06
1.43138e-06
2.03284e-06
1.40245e-06
2.11589e-06
1.36957e-06
2.19533e-06
1.33291e-06
2.27089e-06
1.29268e-06
2.34232e-06
1.24914e-06
2.40944e-06
1.20253e-06
2.47208e-06
1.15315e-06
1.10127e-06
-5.51913e-09
1.00938e-07
-1.85966e-08
2.90333e-07
-3.50072e-08
4.60658e-07
-5.09833e-08
6.10333e-07
-6.36547e-08
7.40121e-07
-7.10667e-08
8.51609e-07
-7.20443e-08
9.4661e-07
-6.6014e-08
1.02692e-06
-5.28312e-08
1.09423e-06
-3.26355e-08
1.15013e-06
-5.73491e-09
1.19616e-06
2.74683e-08
1.23376e-06
6.65624e-08
1.26432e-06
1.11146e-07
1.28912e-06
1.60857e-07
1.30935e-06
2.15385e-07
1.32605e-06
2.74471e-07
1.34012e-06
3.37901e-07
1.3523e-06
4.05491e-07
1.36316e-06
4.77075e-07
1.37312e-06
5.52491e-07
1.38243e-06
6.31564e-07
1.39121e-06
7.14092e-07
1.39943e-06
7.99839e-07
1.40697e-06
8.88526e-07
1.41363e-06
9.79824e-07
1.41911e-06
1.07336e-06
1.4231e-06
1.16871e-06
1.42525e-06
1.2654e-06
1.4252e-06
1.36296e-06
1.42261e-06
1.46085e-06
1.41717e-06
1.55856e-06
1.4086e-06
1.65553e-06
1.3967e-06
1.75125e-06
1.38129e-06
1.84522e-06
1.36229e-06
1.93696e-06
1.33965e-06
2.02602e-06
1.31338e-06
2.11201e-06
1.28358e-06
2.19456e-06
1.25036e-06
2.27337e-06
1.21388e-06
2.34816e-06
1.17434e-06
2.41871e-06
1.13198e-06
2.48483e-06
1.08703e-06
1.03973e-06
-7.80063e-09
1.08739e-07
-2.62349e-08
3.08767e-07
-4.9513e-08
4.83936e-07
-7.26621e-08
6.33482e-07
-9.20408e-08
7.595e-07
-1.05273e-07
8.64841e-07
-1.11004e-07
9.52342e-07
-1.08633e-07
1.02455e-06
-9.80726e-08
1.08367e-06
-7.95664e-08
1.13163e-06
-5.35476e-08
1.17014e-06
-2.05371e-08
1.20075e-06
1.89177e-08
1.22486e-06
6.4297e-08
1.24374e-06
1.15134e-07
1.25851e-06
1.7102e-07
1.27016e-06
2.31612e-07
1.27953e-06
2.96622e-07
1.28729e-06
3.65808e-07
1.29398e-06
4.38959e-07
1.29997e-06
5.15877e-07
1.30551e-06
5.96366e-07
1.31072e-06
6.80217e-07
1.31558e-06
7.67195e-07
1.31999e-06
8.5703e-07
1.32379e-06
9.49417e-07
1.32673e-06
1.04401e-06
1.32852e-06
1.14041e-06
1.32885e-06
1.23819e-06
1.32742e-06
1.3369e-06
1.3239e-06
1.43605e-06
1.31802e-06
1.53514e-06
1.30951e-06
1.63366e-06
1.29818e-06
1.73111e-06
1.28385e-06
1.82699e-06
1.2664e-06
1.92084e-06
1.24579e-06
2.01222e-06
1.22201e-06
2.10071e-06
1.19509e-06
2.18593e-06
1.16513e-06
2.26757e-06
1.13224e-06
2.34531e-06
1.0966e-06
2.41892e-06
1.05837e-06
2.48817e-06
1.01778e-06
9.75015e-07
-1.07492e-08
1.19488e-07
-3.58981e-08
3.33916e-07
-6.75141e-08
5.15552e-07
-9.90782e-08
6.65046e-07
-1.26049e-07
7.8647e-07
-1.45628e-07
8.8442e-07
-1.56342e-07
9.63056e-07
-1.57638e-07
1.02584e-06
-1.49557e-07
1.07559e-06
-1.32508e-07
1.11458e-06
-1.07088e-07
1.14472e-06
-7.3983e-08
1.16765e-06
-3.38809e-08
1.18476e-06
1.25674e-08
1.19729e-06
6.47759e-08
1.2063e-06
1.22242e-07
1.2127e-06
1.84536e-07
1.21723e-06
2.513e-07
1.22053e-06
3.22235e-07
1.22304e-06
3.97082e-07
1.22512e-06
4.75613e-07
1.22698e-06
5.57609e-07
1.22872e-06
6.4285e-07
1.23033e-06
7.311e-07
1.23174e-06
8.22099e-07
1.23279e-06
9.15558e-07
1.23327e-06
1.01115e-06
1.23292e-06
1.10851e-06
1.23149e-06
1.20725e-06
1.22867e-06
1.30695e-06
1.22421e-06
1.40714e-06
1.21783e-06
1.50736e-06
1.20929e-06
1.60713e-06
1.19841e-06
1.70597e-06
1.185e-06
1.80341e-06
1.16896e-06
1.89899e-06
1.15021e-06
1.99228e-06
1.12873e-06
2.08285e-06
1.10452e-06
2.17033e-06
1.07765e-06
2.25437e-06
1.0482e-06
2.33466e-06
1.0163e-06
2.41094e-06
9.82102e-07
2.48295e-06
9.45765e-07
9.07472e-07
-1.46362e-08
1.34124e-07
-4.83081e-08
3.67588e-07
-9.01037e-08
5.57347e-07
-1.31521e-07
7.06463e-07
-1.66998e-07
8.21947e-07
-1.93361e-07
9.10783e-07
-2.09126e-07
9.78821e-07
-2.13903e-07
1.03062e-06
-2.07965e-07
1.06965e-06
-1.91953e-07
1.09857e-06
-1.6669e-07
1.11946e-06
-1.33052e-07
1.13401e-06
-9.18949e-08
1.14361e-06
-4.40097e-08
1.14941e-06
9.90345e-09
1.15239e-06
6.92369e-08
1.15336e-06
1.33484e-07
1.15299e-06
2.02221e-07
1.15179e-06
2.75092e-07
1.15017e-06
3.518e-07
1.14842e-06
4.32084e-07
1.1467e-06
5.15706e-07
1.1451e-06
6.02433e-07
1.14361e-06
6.9203e-07
1.14215e-06
7.84244e-07
1.14058e-06
8.78797e-07
1.13871e-06
9.75385e-07
1.13634e-06
1.07367e-06
1.1332e-06
1.17329e-06
1.12905e-06
1.27385e-06
1.12365e-06
1.37493e-06
1.11675e-06
1.47609e-06
1.10813e-06
1.57688e-06
1.09761e-06
1.67685e-06
1.08503e-06
1.77555e-06
1.07026e-06
1.87253e-06
1.05323e-06
1.96737e-06
1.03389e-06
2.05966e-06
1.01223e-06
2.14902e-06
9.88288e-07
2.2351e-06
9.62122e-07
2.31758e-06
9.33825e-07
2.39617e-06
9.03512e-07
2.47062e-06
8.71319e-07
8.37394e-07
-1.98775e-08
1.54002e-07
-6.45089e-08
4.1222e-07
-1.18784e-07
6.11622e-07
-1.71676e-07
7.59355e-07
-2.16525e-07
8.66796e-07
-2.49917e-07
9.44175e-07
-2.7054e-07
9.99444e-07
-2.78335e-07
1.03841e-06
-2.73933e-07
1.06525e-06
-2.58301e-07
1.08293e-06
-2.32538e-07
1.0937e-06
-1.9775e-07
1.09922e-06
-1.54977e-07
1.10083e-06
-1.05156e-07
1.09959e-06
-4.91056e-08
1.09634e-06
1.24777e-08
1.09178e-06
7.90074e-08
1.08646e-06
1.50001e-07
1.0808e-06
2.25059e-07
1.07511e-06
3.03845e-07
1.06963e-06
3.86075e-07
1.06447e-06
4.71491e-07
1.05968e-06
5.59853e-07
1.05524e-06
6.50924e-07
1.05108e-06
7.44457e-07
1.04705e-06
8.40186e-07
1.04299e-06
9.37827e-07
1.0387e-06
1.03707e-06
1.03396e-06
1.13756e-06
1.02856e-06
1.23895e-06
1.02226e-06
1.34085e-06
1.01485e-06
1.44285e-06
1.00614e-06
1.54453e-06
9.95937e-07
1.64546e-06
9.841e-07
1.74521e-06
9.70508e-07
1.84337e-06
9.55071e-07
1.93952e-06
9.37736e-07
2.03328e-06
9.1848e-07
2.12425e-06
8.97312e-07
2.2121e-06
8.74271e-07
2.29651e-06
8.4942e-07
2.37717e-06
8.22846e-07
2.45384e-06
7.94655e-07
7.64967e-07
-2.71316e-08
1.81133e-07
-8.60403e-08
4.71128e-07
-1.55631e-07
6.81213e-07
-2.21724e-07
8.25448e-07
-2.76608e-07
9.2168e-07
-3.16907e-07
9.84474e-07
-3.41774e-07
1.02431e-06
-3.51708e-07
1.04835e-06
-3.47852e-07
1.06139e-06
-3.316e-07
1.06668e-06
-3.04386e-07
1.06648e-06
-2.67574e-07
1.06241e-06
-2.22397e-07
1.05566e-06
-1.69942e-07
1.04713e-06
-1.11136e-07
1.03753e-06
-4.67632e-08
1.02741e-06
2.2529e-08
1.01716e-06
9.62065e-08
1.00712e-06
1.73832e-07
9.97489e-07
2.55042e-07
9.8842e-07
3.39531e-07
9.79981e-07
4.27031e-07
9.72183e-07
5.17293e-07
9.64982e-07
6.10082e-07
9.58287e-07
7.05157e-07
9.51972e-07
8.02264e-07
9.45877e-07
9.01137e-07
9.39823e-07
1.00148e-06
9.33616e-07
1.10299e-06
9.27052e-07
1.20531e-06
9.19932e-07
1.30811e-06
9.12061e-07
1.41099e-06
9.03257e-07
1.51357e-06
8.93356e-07
1.61545e-06
8.82217e-07
1.71624e-06
8.69723e-07
1.81552e-06
8.55782e-07
1.91293e-06
8.40332e-07
2.00807e-06
8.23339e-07
2.10059e-06
8.04794e-07
2.19014e-06
7.84715e-07
2.27642e-06
7.63142e-07
2.35913e-06
7.40136e-07
2.43801e-06
7.15777e-07
6.90156e-07
-3.74817e-08
2.18615e-07
-1.15219e-07
5.48866e-07
-2.0352e-07
7.69514e-07
-2.84424e-07
9.06352e-07
-3.49488e-07
9.86744e-07
-3.9589e-07
1.03088e-06
-4.23678e-07
1.0521e-06
-4.34201e-07
1.05887e-06
-4.29294e-07
1.05648e-06
-4.10874e-07
1.04826e-06
-3.80761e-07
1.03637e-06
-3.40594e-07
1.02224e-06
-2.91805e-07
1.00687e-06
-2.3562e-07
9.90945e-07
-1.73068e-07
9.74981e-07
-1.05002e-07
9.5934e-07
-3.21247e-08
9.44286e-07
4.49941e-08
9.29999e-07
1.25888e-07
9.16595e-07
2.10176e-07
9.04132e-07
2.97536e-07
8.92621e-07
3.87694e-07
8.82025e-07
4.804e-07
8.72276e-07
5.7542e-07
8.63267e-07
6.72522e-07
8.5487e-07
7.71466e-07
8.46933e-07
8.72001e-07
8.39288e-07
9.73858e-07
8.31759e-07
1.07675e-06
8.24162e-07
1.18036e-06
8.16317e-07
1.28438e-06
8.08048e-07
1.38844e-06
7.9919e-07
1.49221e-06
7.89592e-07
1.5953e-06
7.79121e-07
1.69736e-06
7.67665e-07
1.79801e-06
7.55131e-07
1.89689e-06
7.41452e-07
1.99365e-06
7.26583e-07
2.08794e-06
7.10503e-07
2.17944e-06
6.9321e-07
2.26786e-06
6.74726e-07
2.35291e-06
6.55088e-07
2.43434e-06
6.34351e-07
6.12583e-07
-5.27773e-08
2.71392e-07
-1.5559e-07
6.51679e-07
-2.66373e-07
8.80297e-07
-3.63038e-07
1.00302e-06
-4.37267e-07
1.06097e-06
-4.87666e-07
1.08127e-06
-5.15775e-07
1.08021e-06
-5.24139e-07
1.06724e-06
-5.15467e-07
1.04781e-06
-4.92287e-07
1.02508e-06
-4.5684e-07
1.00092e-06
-4.11049e-07
9.76451e-07
-3.5654e-07
9.52357e-07
-2.94665e-07
9.29071e-07
-2.26541e-07
9.06857e-07
-1.5308e-07
8.8588e-07
-7.50228e-08
8.66228e-07
7.03297e-09
8.47943e-07
9.26022e-08
8.31025e-07
1.81291e-07
8.15444e-07
2.72773e-07
8.01139e-07
3.66769e-07
7.88029e-07
4.63034e-07
7.7601e-07
5.61341e-07
7.64961e-07
6.61468e-07
7.54743e-07
7.63193e-07
7.45208e-07
8.66285e-07
7.36196e-07
9.70501e-07
7.27543e-07
1.07558e-06
7.19083e-07
1.18125e-06
7.10651e-07
1.2872e-06
7.02089e-07
1.39315e-06
6.93245e-07
1.49876e-06
6.83982e-07
1.60371e-06
6.74174e-07
1.70766e-06
6.63714e-07
1.81028e-06
6.52512e-07
1.91123e-06
6.40495e-07
2.01021e-06
6.27613e-07
2.10688e-06
6.13831e-07
2.20095e-06
5.99136e-07
2.29215e-06
5.83529e-07
2.38021e-06
5.6703e-07
2.46488e-06
5.49672e-07
5.31502e-07
-7.62939e-08
3.47686e-07
-2.12625e-07
7.8801e-07
-3.49298e-07
1.01697e-06
-4.60712e-07
1.11443e-06
-5.40555e-07
1.14082e-06
-5.90235e-07
1.13095e-06
-6.1354e-07
1.10351e-06
-6.14592e-07
1.06829e-06
-5.9715e-07
1.03037e-06
-5.64435e-07
9.92368e-07
-5.19135e-07
9.55622e-07
-4.63465e-07
9.2078e-07
-3.99234e-07
8.88126e-07
-3.27915e-07
8.57751e-07
-2.50698e-07
8.2964e-07
-1.68541e-07
8.03723e-07
-8.22116e-08
7.79899e-07
7.67576e-09
7.58056e-07
1.00629e-07
7.38073e-07
1.96251e-07
7.19821e-07
2.94219e-07
7.03171e-07
3.94262e-07
6.87986e-07
4.96146e-07
6.74126e-07
5.99659e-07
6.61448e-07
7.04602e-07
6.49801e-07
8.10777e-07
6.39033e-07
9.17983e-07
6.2899e-07
1.02601e-06
6.19516e-07
1.13463e-06
6.10458e-07
1.24362e-06
6.01664e-07
1.35272e-06
5.9299e-07
1.46167e-06
5.84299e-07
1.57019e-06
5.75462e-07
1.67799e-06
5.66365e-07
1.7848e-06
5.56905e-07
1.89032e-06
5.46994e-07
1.99426e-06
5.3656e-07
2.09632e-06
5.25545e-07
2.19624e-06
5.1391e-07
2.29375e-06
5.01627e-07
2.3886e-06
4.88686e-07
2.48054e-06
4.7509e-07
2.56935e-06
4.60854e-07
4.46007e-07
-1.14023e-07
4.61709e-07
-2.94693e-07
9.6868e-07
-4.57946e-07
1.18022e-06
-5.77997e-07
1.23448e-06
-6.54248e-07
1.21707e-06
-6.92899e-07
1.16961e-06
-7.00911e-07
1.11152e-06
-6.8441e-07
1.05179e-06
-6.48411e-07
9.94369e-07
-5.96924e-07
9.4088e-07
-5.33122e-07
8.91821e-07
-4.59519e-07
8.47177e-07
-3.781e-07
8.06707e-07
-2.90432e-07
7.70084e-07
-1.97755e-07
7.36963e-07
-1.01041e-07
7.07009e-07
-1.05699e-09
6.79915e-07
1.01596e-07
6.55403e-07
2.06448e-07
6.3322e-07
3.13129e-07
6.1314e-07
4.21346e-07
5.94954e-07
5.3086e-07
5.78472e-07
6.41474e-07
5.63512e-07
7.53016e-07
5.49905e-07
8.6533e-07
5.37487e-07
9.78265e-07
5.26098e-07
1.09167e-06
5.15585e-07
1.20539e-06
5.05799e-07
1.31925e-06
4.96595e-07
1.43308e-06
4.87835e-07
1.54668e-06
4.79386e-07
1.65986e-06
4.71122e-07
1.77239e-06
4.6293e-07
1.88406e-06
4.54701e-07
1.99462e-06
4.46343e-07
2.10384e-06
4.3777e-07
2.21149e-06
4.28914e-07
2.31732e-06
4.19716e-07
2.4211e-06
4.10131e-07
2.5226e-06
4.00126e-07
2.6216e-06
3.89681e-07
2.71791e-06
3.78788e-07
2.81131e-06
3.67449e-07
3.55677e-07
-1.77329e-07
6.39038e-07
-4.13794e-07
1.20514e-06
-5.94347e-07
1.36078e-06
-7.03815e-07
1.34395e-06
-7.54113e-07
1.26737e-06
-7.59036e-07
1.17453e-06
-7.29914e-07
1.0824e-06
-6.75433e-07
9.97307e-07
-6.0212e-07
9.21056e-07
-5.1484e-07
8.536e-07
-4.1722e-07
7.94202e-07
-3.11977e-07
7.41934e-07
-2.01152e-07
6.95882e-07
-8.62852e-08
6.55217e-07
3.14644e-08
6.19213e-07
1.51224e-07
5.87249e-07
2.72341e-07
5.58799e-07
3.94329e-07
5.33415e-07
5.1683e-07
5.10719e-07
6.39582e-07
4.90387e-07
7.62396e-07
4.72141e-07
8.85133e-07
4.55735e-07
1.00769e-06
4.40953e-07
1.13e-06
4.27602e-07
1.25198e-06
4.15505e-07
1.37358e-06
4.04499e-07
1.49473e-06
3.94431e-07
1.61537e-06
3.8516e-07
1.73541e-06
3.76551e-07
1.85477e-06
3.68479e-07
1.97333e-06
3.60824e-07
2.09098e-06
3.53478e-07
2.20757e-06
3.46338e-07
2.32296e-06
3.3931e-07
2.43699e-06
3.32312e-07
2.54949e-06
3.25268e-07
2.66029e-06
3.18115e-07
2.76921e-06
3.108e-07
2.87606e-06
3.03278e-07
2.98067e-06
2.95515e-07
3.08286e-06
2.87489e-07
3.18247e-06
2.79184e-07
3.27932e-06
2.70594e-07
2.61726e-07
-2.8871e-07
9.27748e-07
-5.8077e-07
1.4972e-06
-7.3609e-07
1.5161e-06
-7.81323e-07
1.38918e-06
-7.52885e-07
1.23893e-06
-6.76e-07
1.09764e-06
-5.67492e-07
9.73893e-07
-4.38717e-07
8.68532e-07
-2.97341e-07
7.7968e-07
-1.48489e-07
7.04748e-07
4.41621e-09
6.41296e-07
1.59073e-07
5.87277e-07
3.13929e-07
5.41026e-07
4.67947e-07
5.01199e-07
6.20448e-07
4.66713e-07
7.71001e-07
4.36696e-07
9.19353e-07
4.10446e-07
1.06538e-06
3.87392e-07
1.20903e-06
3.67067e-07
1.35033e-06
3.49087e-07
1.48934e-06
3.33131e-07
1.62614e-06
3.1893e-07
1.76084e-06
3.06254e-07
1.89354e-06
2.94905e-07
2.02434e-06
2.84708e-07
2.15333e-06
2.75509e-07
2.28059e-06
2.67169e-07
2.40619e-06
2.59562e-07
2.53017e-06
2.52572e-07
2.65255e-06
2.46092e-07
2.77335e-06
2.40027e-07
2.89254e-06
2.34285e-07
3.0101e-06
2.28785e-07
3.12595e-06
2.23452e-07
3.24004e-06
2.18221e-07
3.35228e-06
2.13032e-07
3.46256e-06
2.07833e-07
3.57078e-06
2.02582e-07
3.67682e-06
1.97242e-07
3.78055e-06
1.91786e-07
3.88184e-06
1.86193e-07
3.98058e-06
1.80447e-07
4.07663e-06
1.74541e-07
1.68477e-07
-4.91864e-07
1.41961e-06
-7.50354e-07
1.75569e-06
-7.3022e-07
1.49596e-06
-5.75659e-07
1.23462e-06
-3.6163e-07
1.0249e-06
-1.22244e-07
8.58258e-07
1.25527e-07
7.26122e-07
3.72216e-07
6.21842e-07
6.12745e-07
5.39151e-07
8.44703e-07
4.7279e-07
1.06715e-06
4.18854e-07
1.27989e-06
3.7453e-07
1.48317e-06
3.37747e-07
1.67743e-06
3.0694e-07
1.86322e-06
2.80922e-07
2.04114e-06
2.58779e-07
2.21178e-06
2.39805e-07
2.37573e-06
2.23445e-07
2.53353e-06
2.09262e-07
2.68571e-06
1.96905e-07
2.83275e-06
1.86091e-07
2.97509e-06
1.76589e-07
3.11314e-06
1.68207e-07
3.24726e-06
1.60782e-07
3.37779e-06
1.5418e-07
3.50502e-06
1.4828e-07
3.62921e-06
1.42982e-07
3.75058e-06
1.38192e-07
3.86932e-06
1.3383e-07
3.98559e-06
1.29824e-07
4.09951e-06
1.26107e-07
4.21117e-06
1.22621e-07
4.32064e-06
1.19312e-07
4.42796e-06
1.16132e-07
4.53315e-06
1.13039e-07
4.63618e-06
1.09997e-07
4.73704e-06
1.06972e-07
4.83568e-06
1.0394e-07
4.93205e-06
1.00876e-07
5.02607e-06
9.77647e-08
5.11767e-06
9.4592e-08
5.20677e-06
9.13502e-08
5.29328e-06
8.80324e-08
8.46415e-08
-6.75963e-07
2.09557e-06
-3.77596e-07
1.45733e-06
1.9669e-07
9.21676e-07
7.46914e-07
6.84398e-07
1.24149e-06
5.30324e-07
1.68522e-06
4.14525e-07
2.08225e-06
3.29097e-07
2.43709e-06
2.67002e-07
2.75514e-06
2.21095e-07
3.04169e-06
1.86248e-07
3.3013e-06
1.59238e-07
3.53785e-06
1.37977e-07
3.75458e-06
1.21016e-07
3.95421e-06
1.0731e-07
4.13903e-06
9.61034e-08
4.31097e-06
8.68421e-08
4.47166e-06
7.91163e-08
4.62249e-06
7.26171e-08
4.76464e-06
6.71084e-08
4.89914e-06
6.24073e-08
5.02686e-06
5.83709e-08
5.14856e-06
5.48855e-08
5.26491e-06
5.18597e-08
5.37647e-06
4.92191e-08
5.48375e-06
4.69019e-08
5.58717e-06
4.48563e-08
5.68712e-06
4.30385e-08
5.7839e-06
4.14103e-08
5.87779e-06
3.99388e-08
5.96902e-06
3.8595e-08
6.05777e-06
3.73534e-08
6.1442e-06
3.61914e-08
6.22843e-06
3.50893e-08
6.31053e-06
3.40295e-08
6.39057e-06
3.2997e-08
6.46859e-06
3.19789e-08
6.5446e-06
3.09643e-08
6.61859e-06
2.99444e-08
6.69056e-06
2.89122e-08
6.76046e-06
2.78627e-08
6.82826e-06
2.67919e-08
6.89391e-06
2.56987e-08
6.95736e-06
2.45809e-08
2.34405e-08
2.09557e-06
3.5529e-06
4.47458e-06
5.15898e-06
5.6893e-06
6.10383e-06
6.43292e-06
6.69993e-06
6.92102e-06
7.10727e-06
7.26651e-06
7.40448e-06
7.5255e-06
7.63281e-06
7.72891e-06
7.81576e-06
7.89487e-06
7.96749e-06
8.0346e-06
8.09701e-06
8.15538e-06
8.21026e-06
8.26212e-06
8.31134e-06
8.35824e-06
8.4031e-06
8.44614e-06
8.48755e-06
8.52749e-06
8.56608e-06
8.60343e-06
8.63963e-06
8.67472e-06
8.70874e-06
8.74174e-06
8.77372e-06
8.80468e-06
8.83463e-06
8.86354e-06
8.8914e-06
8.9182e-06
8.94389e-06
8.96848e-06
)
;

boundaryField
{
    movingWall
    {
        type            calculated;
        value           uniform 0;
    }
    fixedWalls
    {
        type            calculated;
        value           uniform 0;
    }
    frontAndBack
    {
        type            empty;