/*--------------------------------*- C++ -*----------------------------------*\
  =========                 |
  \\      /  F ield         | OpenFOAM: The Open Source CFD Toolbox
   \\    /   O peration     | Website:  https://openfoam.org
    \\  /    A nd           | Version:  9
     \\/     M anipulation  |
\*---------------------------------------------------------------------------*/
FoamFile
{
    format      ascii;
    class       volVectorField;
    location    "1.25";
    object      U;
}
// * * * * * * * * * * * * * * * * * * * * * * * * * * * * * * * * * * * * * //

dimensions      [0 1 -1 0 0 0 0];

internalField   nonuniform List<vector> 
1250
(
(0.092714 0.258664 0)
(0.098493 0.259705 0)
(0.10411 0.259602 0)
(0.1095 0.258334 0)
(0.114614 0.255916 0)
(0.119412 0.25239 0)
(0.123868 0.247826 0)
(0.127966 0.242311 0)
(0.131704 0.235945 0)
(0.13509 0.228838 0)
(0.13814 0.221097 0)
(0.140877 0.212827 0)
(0.143325 0.204124 0)
(0.145514 0.19507 0)
(0.147469 0.185739 0)
(0.149217 0.176185 0)
(0.150777 0.166454 0)
(0.152167 0.156578 0)
(0.000114935 0.0109492 0)
(0.000756344 0.0319268 0)
(0.00207354 0.0518274 0)
(0.00384403 0.0704837 0)
(0.00594831 0.0877487 0)
(0.00829946 0.103521 0)
(0.0108206 0.11776 0)
(0.0134526 0.130495 0)
(0.0161581 0.14182 0)
(0.0189213 0.151883 0)
(0.0217463 0.160869 0)
(0.0246542 0.168985 0)
(0.0276792 0.176436 0)
(0.0308636 0.183418 0)
(0.0342536 0.190094 0)
(0.0378941 0.196591 0)
(0.0418242 0.202995 0)
(0.0460741 0.209343 0)
(0.0506619 0.215628 0)
(0.0555914 0.221801 0)
(0.0608513 0.22778 0)
(0.0664151 0.233452 0)
(0.0722419 0.23869 0)
(0.0782784 0.243357 0)
(0.0844611 0.247317 0)
(0.0907195 0.250444 0)
(0.0969768 0.252627 0)
(0.103167 0.253792 0)
(0.109214 0.253875 0)
(0.115053 0.252852 0)
(0.12063 0.250726 0)
(0.1259 0.247528 0)
(0.130831 0.243316 0)
(0.135402 0.238163 0)
(0.139605 0.232161 0)
(0.143442 0.225408 0)
(0.146924 0.218003 0)
(0.150068 0.210047 0)
(0.152898 0.201631 0)
(0.155439 0.192839 0)
(0.157717 0.183743 0)
(0.159756 0.174402 0)
(0.161578 0.164864 0)
(0.1632 0.155166 0)
(0.000107848 0.0105654 0)
(0.000716892 0.0309174 0)
(0.00197831 0.0503127 0)
(0.00369032 0.0685709 0)
(0.00574677 0.0855331 0)
(0.00807028 0.101084 0)
(0.0105905 0.115169 0)
(0.0132519 0.127797 0)
(0.0160174 0.139042 0)
(0.0188697 0.149032 0)
(0.0218093 0.157934 0)
(0.0248532 0.165941 0)
(0.0280313 0.173247 0)
(0.0313819 0.180041 0)
(0.034948 0.186484 0)
(0.038772 0.192709 0)
(0.0428924 0.198804 0)
(0.0473393 0.204819 0)
(0.0521322 0.210759 0)
(0.0572769 0.21659 0)
(0.0627652 0.222243 0)
(0.0685738 0.227622 0)
(0.0746652 0.232612 0)
(0.0809892 0.237089 0)
(0.0874848 0.240925 0)
(0.0940835 0.244 0)
(0.100712 0.246209 0)
(0.107295 0.247467 0)
(0.11376 0.247714 0)
(0.120041 0.246916 0)
(0.126078 0.245067 0)
(0.131823 0.242189 0)
(0.137235 0.238325 0)
(0.142291 0.233538 0)
(0.146973 0.227908 0)
(0.15128 0.221523 0)
(0.155216 0.214474 0)
(0.158794 0.206856 0)
(0.162034 0.198755 0)
(0.164957 0.190254 0)
(0.167586 0.181424 0)
(0.169946 0.172327 0)
(0.172057 0.163013 0)
(0.173938 0.153522 0)
(9.95203e-05 0.0102046 0)
(0.000668386 0.0299607 0)
(0.00185727 0.0488644 0)
(0.0034878 0.0667233 0)
(0.00546897 0.0833696 0)
(0.00773443 0.0986779 0)
(0.010222 0.11258 0)
(0.012881 0.12507 0)
(0.0156763 0.136204 0)
(0.0185892 0.146093 0)
(0.0216178 0.154887 0)
(0.024775 0.162764 0)
(0.0280861 0.16991 0)
(0.0315852 0.176503 0)
(0.0353114 0.182706 0)
(0.0393044 0.188649 0)
(0.0436008 0.19443 0)
(0.0482304 0.200106 0)
(0.0532131 0.205692 0)
(0.0585569 0.211169 0)
(0.064256 0.216483 0)
(0.0702903 0.221552 0)
(0.0766259 0.226274 0)
(0.083216 0.230536 0)
(0.0900026 0.234221 0)
(0.0969192 0.237215 0)
(0.103894 0.239417 0)
(0.110853 0.240742 0)
(0.117722 0.241126 0)
(0.124432 0.240532 0)
(0.130922 0.238943 0)
(0.137136 0.23637 0)
(0.143032 0.232847 0)
(0.148577 0.228426 0)
(0.153751 0.223173 0)
(0.158542 0.217167 0)
(0.162952 0.210491 0)
(0.166987 0.203231 0)
(0.170661 0.195471 0)
(0.173993 0.187289 0)
(0.177004 0.178756 0)
(0.179714 0.169934 0)
(0.182143 0.160875 0)
(0.184312 0.151622 0)
(8.98509e-05 0.00987157 0)
(0.000610113 0.0290701 0)
(0.00170847 0.0475028 0)
(0.00323302 0.0649667 0)
(0.00510972 0.0812875 0)
(0.00728499 0.0963325 0)
(0.00970647 0.110024 0)
(0.0123297 0.122344 0)
(0.0151225 0.133335 0)
(0.0180663 0.143091 0)
(0.0211569 0.15175 0)
(0.0244035 0.159474 0)
(0.0278267 0.166439 0)
(0.0314562 0.172817 0)
(0.0353265 0.178767 0)
(0.0394739 0.184422 0)
(0.0439326 0.189881 0)
(0.0487311 0.19521 0)
(0.0538896 0.200435 0)
(0.0594171 0.205549 0)
(0.0653102 0.210511 0)
(0.0715518 0.215253 0)
(0.0781116 0.219687 0)
(0.0849462 0.223712 0)
(0.0920013 0.22722 0)
(0.0992133 0.230106 0)
(0.106512 0.232272 0)
(0.113825 0.233635 0)
(0.121079 0.23413 0)
(0.128203 0.233712 0)
(0.135131 0.232361 0)
(0.141806 0.230077 0)
(0.14818 0.226883 0)
(0.154215 0.22282 0)
(0.159884 0.217944 0)
(0.165171 0.212324 0)
(0.170068 0.206033 0)
(0.174578 0.19915 0)
(0.17871 0.191753 0)
(0.182476 0.183916 0)
(0.185894 0.175708 0)
(0.188983 0.167191 0)
(0.191761 0.158419 0)
(0.194246 0.149435 0)
(7.87144e-05 0.00957158 0)
(0.000541193 0.02826 0)
(0.00152958 0.04625 0)
(0.00292186 0.0633291 0)
(0.00466316 0.0793187 0)
(0.00671439 0.0940825 0)
(0.00903471 0.107536 0)
(0.0115875 0.119655 0)
(0.0143447 0.130468 0)
(0.0172886 0.140058 0)
(0.0204134 0.14855 0)
(0.0237249 0.156094 0)
(0.0272392 0.162856 0)
(0.0309808 0.169003 0)
(0.0349795 0.174688 0)
(0.0392675 0.180043 0)
(0.0438758 0.185173 0)
(0.0488309 0.190148 0)
(0.0541523 0.195005 0)
(0.0598498 0.199747 0)
(0.0659215 0.204346 0)
(0.0723533 0.208748 0)
(0.0791181 0.212876 0)
(0.0861764 0.216642 0)
(0.0934774 0.219949 0)
(0.100961 0.222699 0)
(0.10856 0.2248 0)
(0.116204 0.22617 0)
(0.123819 0.226745 0)
(0.131334 0.226476 0)
(0.138683 0.225337 0)
(0.145804 0.223319 0)
(0.152645 0.220437 0)
(0.159163 0.216722 0)
(0.165326 0.212218 0)
(0.171111 0.206984 0)
(0.176504 0.201086 0)
(0.181502 0.194593 0)
(0.186107 0.187577 0)
(0.190328 0.180109 0)
(0.194178 0.172253 0)
(0.197672 0.164071 0)
(0.200826 0.155615 0)
(0.203656 0.146933 0)
(6.59042e-05 0.0093103 0)
(0.000460336 0.0275461 0)
(0.00131728 0.0451296 0)
(0.00254872 0.0618399 0)
(0.00412149 0.0774966 0)
(0.00601294 0.091963 0)
(0.00819552 0.105153 0)
(0.0106419 0.117036 0)
(0.0133294 0.127635 0)
(0.0162421 0.137023 0)
(0.0193731 0.145314 0)
(0.022725 0.152648 0)
(0.0263093 0.159183 0)
(0.0301452 0.165077 0)
(0.0342574 0.170481 0)
(0.0386731 0.175525 0)
(0.0434194 0.180318 0)
(0.0485201 0.184933 0)
(0.0539934 0.189416 0)
(0.0598487 0.193779 0)
(0.0660856 0.198006 0)
(0.0726921 0.202054 0)
(0.0796441 0.205861 0)
(0.0869059 0.209349 0)
(0.0944305 0.212432 0)
(0.102162 0.215019 0)
(0.110036 0.217025 0)
(0.117983 0.218373 0)
(0.125933 0.218996 0)
(0.133815 0.218845 0)
(0.141561 0.217888 0)
(0.149107 0.216113 0)
(0.156399 0.213522 0)
(0.163387 0.210138 0)
(0.170035 0.205997 0)
(0.176314 0.201146 0)
(0.182204 0.195643 0)
(0.187696 0.189549 0)
(0.192786 0.182929 0)
(0.197477 0.175848 0)
(0.201777 0.168368 0)
(0.205697 0.160547 0)
(0.209252 0.152438 0)
(0.212454 0.144087 0)
(5.1111e-05 0.00909425 0)
(0.000365717 0.026946 0)
(0.00106701 0.0441678 0)
(0.00210604 0.0605311 0)
(0.00347436 0.0758568 0)
(0.00516804 0.090011 0)
(0.00717466 0.10291 0)
(0.00947772 0.114523 0)
(0.0120609 0.124869 0)
(0.0149109 0.134016 0)
(0.0180202 0.142068 0)
(0.0213883 0.149158 0)
(0.0250222 0.155436 0)
(0.0289356 0.161055 0)
(0.0331471 0.16616 0)
(0.0376789 0.170881 0)
(0.0425531 0.175326 0)
(0.0477903 0.179574 0)
(0.0534061 0.183677 0)
(0.0594093 0.187655 0)
(0.0657998 0.191502 0)
(0.0725673 0.195188 0)
(0.0796906 0.198661 0)
(0.0871372 0.201854 0)
(0.0948641 0.204691 0)
(0.102819 0.207091 0)
(0.110942 0.208975 0)
(0.119166 0.210269 0)
(0.127423 0.210909 0)
(0.135644 0.210845 0)
(0.143759 0.210041 0)
(0.151704 0.208479 0)
(0.159422 0.206155 0)
(0.166861 0.203084 0)
(0.173979 0.199291 0)
(0.18074 0.194815 0)
(0.187121 0.189705 0)
(0.193105 0.184013 0)
(0.198682 0.177799 0)
(0.203851 0.17112 0)
(0.208614 0.164035 0)
(0.212978 0.156598 0)
(0.216952 0.148862 0)
(0.220548 0.140872 0)
(3.38994e-05 0.008931 0)
(0.000254835 0.02648 0)
(0.000772602 0.0433941 0)
(0.00158368 0.0594382 0)
(0.00270819 0.0744375 0)
(0.00416345 0.0882659 0)
(0.00595414 0.100846 0)
(0.008076 0.112152 0)
(0.01052 0.122203 0)
(0.0132762 0.131065 0)
(0.0163367 0.138837 0)
(0.0196981 0.145646 0)
(0.0233625 0.151635 0)
(0.0273376 0.156952 0)
(0.0316361 0.161737 0)
(0.0362738 0.16612 0)
(0.0412678 0.170206 0)
(0.046634 0.17408 0)
(0.0523852 0.177797 0)
(0.0585283 0.181385 0)
(0.0650632 0.184847 0)
(0.0719806 0.188163 0)
(0.0792612 0.19129 0)
(0.0868759 0.194174 0)
(0.0947854 0.196747 0)
(0.102941 0.198939 0)
(0.111287 0.200675 0)
(0.11976 0.201887 0)
(0.128294 0.202514 0)
(0.136822 0.202506 0)
(0.145276 0.201824 0)
(0.153591 0.200446 0)
(0.161707 0.198362 0)
(0.16957 0.19558 0)
(0.177134 0.192117 0)
(0.18436 0.188003 0)
(0.191217 0.183278 0)
(0.197684 0.177988 0)
(0.203744 0.172184 0)
(0.209391 0.165918 0)
(0.214622 0.159243 0)
(0.219438 0.152211 0)
(0.223845 0.144871 0)
(0.227851 0.137266 0)
(1.37081e-05 0.00882961 0)
(0.000124371 0.0261718 0)
(0.000425796 0.0428423 0)
(0.000968187 0.0586006 0)
(0.00180521 0.0732807 0)
(0.00297827 0.086769 0)
(0.00451126 0.0990013 0)
(0.00641345 0.10996 0)
(0.008684 0.119671 0)
(0.0113164 0.1282 0)
(0.0143025 0.135646 0)
(0.0176358 0.142132 0)
(0.0213135 0.147797 0)
(0.0253369 0.152781 0)
(0.0297119 0.157223 0)
(0.0344476 0.161249 0)
(0.039555 0.164966 0)
(0.0450451 0.168457 0)
(0.0509268 0.171782 0)
(0.0572045 0.174977 0)
(0.063877 0.17805 0)
(0.0709354 0.180989 0)
(0.0783621 0.183764 0)
(0.0861305 0.186328 0)
(0.0942046 0.188623 0)
(0.10254 0.190587 0)
(0.111084 0.192153 0)
(0.119778 0.193257 0)
(0.12856 0.193843 0)
(0.137363 0.193859 0)
(0.146122 0.193269 0)
(0.154773 0.192044 0)
(0.163255 0.190173 0)
(0.171511 0.187654 0)
(0.179492 0.184499 0)
(0.187156 0.180731 0)
(0.194467 0.17638 0)
(0.201399 0.171486 0)
(0.20793 0.166091 0)
(0.214047 0.160243 0)
(0.219742 0.153989 0)
(0.225012 0.147377 0)
(0.229858 0.140451 0)
(0.234284 0.133256 0)
(-1.01505e-05 0.00880186 0)
(-3.01782e-05 0.0260506 0)
(1.53982e-05 0.0425515 0)
(0.000241782 0.0580628 0)
(0.000742339 0.0724319 0)
(0.00158581 0.0855646 0)
(0.00281749 0.0974156 0)
(0.00446132 0.107983 0)
(0.00652501 0.117303 0)
(0.0090055 0.125448 0)
(0.0118942 0.132518 0)
(0.015181 0.138635 0)
(0.0188576 0.143934 0)
(0.0229185 0.148553 0)
(0.0273622 0.152626 0)
(0.0321905 0.156276 0)
(0.0374078 0.159609 0)
(0.0430191 0.162708 0)
(0.0490288 0.165638 0)
(0.0554382 0.168435 0)
(0.0622442 0.171116 0)
(0.0694376 0.173677 0)
(0.0770017 0.176094 0)
(0.0849121 0.17833 0)
(0.0931357 0.180336 0)
(0.101632 0.182057 0)
(0.110351 0.183433 0)
(0.11924 0.184408 0)
(0.128239 0.184926 0)
(0.137286 0.184939 0)
(0.146316 0.18441 0)
(0.155267 0.18331 0)
(0.164077 0.181621 0)
(0.17269 0.179339 0)
(0.181055 0.176469 0)
(0.189125 0.173026 0)
(0.196862 0.169034 0)
(0.204233 0.164525 0)
(0.211213 0.159535 0)
(0.217783 0.154106 0)
(0.223931 0.148278 0)
(0.229648 0.142096 0)
(0.23493 0.135601 0)
(0.239777 0.128833 0)
(-3.90411e-05 0.00886158 0)
(-0.000216327 0.0261504 0)
(-0.000474272 0.0425686 0)
(-0.000618411 0.0578763 0)
(-0.000509949 0.0719421 0)
(-4.77839e-05 0.0846996 0)
(0.000837164 0.0961309 0)
(0.00218427 0.106256 0)
(0.00400968 0.115129 0)
(0.00631328 0.122832 0)
(0.00908509 0.129471 0)
(0.0123109 0.135169 0)
(0.0159759 0.140059 0)
(0.0200672 0.144276 0)
(0.0245752 0.147951 0)
(0.029494 0.151203 0)
(0.0348203 0.154137 0)
(0.0405531 0.156836 0)
(0.0466911 0.159363 0)
(0.053232 0.161761 0)
(0.0601701 0.16405 0)
(0.0674952 0.166231 0)
(0.075191 0.168288 0)
(0.0832344 0.170192 0)
(0.0915951 0.171902 0)
(0.100235 0.173368 0)
(0.109111 0.174541 0)
(0.11817 0.175366 0)
(0.127358 0.175794 0)
(0.136616 0.175779 0)
(0.145882 0.175284 0)
(0.155096 0.174279 0)
(0.164197 0.172745 0)
(0.173129 0.170673 0)
(0.181839 0.168062 0)
(0.190278 0.164922 0)
(0.198405 0.16127 0)
(0.206183 0.157133 0)
(0.213584 0.152539 0)
(0.220583 0.147524 0)
(0.227163 0.142124 0)
(0.233311 0.136378 0)
(0.239018 0.130323 0)
(0.24428 0.123997 0)
(-7.47222e-05 0.00902636 0)
(-0.000441766 0.0265141 0)
(-0.00106219 0.0429506 0)
(-0.00164328 0.0581013 0)
(-0.00199035 0.071868 0)
(-0.00196557 0.0842242 0)
(-0.00147405 0.0951892 0)
(-0.000460832 0.104815 0)
(0.0010981 0.113177 0)
(0.00320422 0.120374 0)
(0.00584478 0.126521 0)
(0.00900017 0.131744 0)
(0.0126482 0.136177 0)
(0.0167675 0.139953 0)
(0.0213398 0.143199 0)
(0.0263506 0.14603 0)
(0.0317888 0.148549 0)
(0.0376461 0.150837 0)
(0.0439157 0.152958 0)
(0.0505906 0.154956 0)
(0.0576623 0.156853 0)
(0.0651186 0.158655 0)
(0.0729432 0.160354 0)
(0.0811139 0.161924 0)
(0.0896024 0.163333 0)
(0.0983738 0.164539 0)
(0.107387 0.165496 0)
(0.116595 0.166157 0)
(0.125947 0.166476 0)
(0.135386 0.166411 0)
(0.144855 0.165926 0)
(0.154296 0.164991 0)
(0.163649 0.163584 0)
(0.172859 0.161694 0)
(0.181872 0.159317 0)
(0.19064 0.156457 0)
(0.199117 0.153126 0)
(0.207266 0.149343 0)
(0.215052 0.145133 0)
(0.222449 0.140525 0)
(0.229433 0.135549 0)
(0.235988 0.13024 0)
(0.2421 0.124632 0)
(0.247763 0.118758 0)
(-0.000119396 0.00931994 0)
(-0.000718315 0.0271969 0)
(-0.00177495 0.0437655 0)
(-0.00287274 0.0588073 0)
(-0.00374823 0.0722729 0)
(-0.00422179 0.0841913 0)
(-0.00417105 0.0946323 0)
(-0.0035259 0.103689 0)
(-0.0022568 0.111468 0)
(-0.000362853 0.118088 0)
(0.00213881 0.123676 0)
(0.00522124 0.128365 0)
(0.00885322 0.132291 0)
(0.013004 0.135583 0)
(0.0176457 0.138367 0)
(0.0227545 0.140754 0)
(0.0283111 0.142841 0)
(0.0342996 0.144709 0)
(0.0407071 0.146419 0)
(0.0475216 0.148015 0)
(0.0547309 0.149522 0)
(0.0623209 0.15095 0)
(0.0702743 0.152292 0)
(0.0785695 0.153532 0)
(0.0871796 0.15464 0)
(0.0960723 0.155582 0)
(0.10521 0.156317 0)
(0.114548 0.156803 0)
(0.12404 0.157 0)
(0.133634 0.156867 0)
(0.143275 0.156371 0)
(0.152907 0.155482 0)
(0.162474 0.154178 0)
(0.171922 0.152446 0)
(0.181197 0.150277 0)
(0.19025 0.147673 0)
(0.199036 0.144641 0)
(0.207512 0.141195 0)
(0.215645 0.137354 0)
(0.223401 0.133141 0)
(0.230756 0.128583 0)
(0.237687 0.123709 0)
(0.244179 0.118548 0)
(0.250219 0.113131 0)
(-0.000176366 0.0097732 0)
(-0.00106248 0.0282682 0)
(-0.00264855 0.0450979 0)
(-0.00435935 0.0600766 0)
(-0.00584689 0.0732275 0)
(-0.00688424 0.0846563 0)
(-0.00732088 0.0945003 0)
(-0.00707361 0.102905 0)
(-0.0061105 0.110017 0)
(-0.00443459 0.11598 0)
(-0.00207081 0.120937 0)
(0.00094438 0.12503 0)
(0.00456923 0.128394 0)
(0.00876187 0.131159 0)
(0.0134841 0.133447 0)
(0.0187022 0.135364 0)
(0.0243881 0.137004 0)
(0.0305182 0.138441 0)
(0.037073 0.139736 0)
(0.0440353 0.140932 0)
(0.0513892 0.142053 0)
(0.059118 0.143112 0)
(0.067203 0.144105 0)
(0.0756228 0.145018 0)
(0.0843515 0.145829 0)
(0.0933588 0.146507 0)
(0.102609 0.147018 0)
(0.112064 0.147324 0)
(0.121677 0.147387 0)
(0.131401 0.147174 0)
(0.141186 0.146649 0)
(0.150978 0.145787 0)
(0.160723 0.144565 0)
(0.17037 0.142968 0)
(0.179866 0.140985 0)
(0.189162 0.138615 0)
(0.198212 0.13586 0)
(0.206973 0.132731 0)
(0.215408 0.129242 0)
(0.223483 0.125411 0)
(0.231169 0.121261 0)
(0.238442 0.116815 0)
(0.245279 0.1121 0)
(0.251668 0.107142 0)
(-0.000250548 0.0104274 0)
(-0.00149737 0.0298177 0)
(-0.00373182 0.0470526 0)
(-0.00617262 0.0620066 0)
(-0.00836768 0.0748104 0)
(-0.0100377 0.085676 0)
(-0.0110051 0.0948295 0)
(-0.0111779 0.102484 0)
(-0.0105268 0.108832 0)
(-0.00906374 0.114049 0)
(-0.00682527 0.118297 0)
(-0.00386092 0.121725 0)
(-0.000225215 0.124472 0)
(0.00402791 0.126667 0)
(0.00884871 0.128425 0)
(0.0141933 0.129849 0)
(0.0200242 0.131024 0)
(0.0263101 0.132023 0)
(0.033025 0.132901 0)
(0.0401464 0.133698 0)
(0.0476543 0.134439 0)
(0.0555294 0.135136 0)
(0.0637516 0.135787 0)
(0.0722988 0.136383 0)
(0.0811461 0.136903 0)
(0.0902647 0.137322 0)
(0.0996219 0.13761 0)
(0.109181 0.137733 0)
(0.1189 0.137659 0)
(0.128735 0.137355 0)
(0.13864 0.136791 0)
(0.148563 0.13594 0)
(0.158455 0.134782 0)
(0.168265 0.133299 0)
(0.177943 0.131482 0)
(0.18744 0.129324 0)
(0.196711 0.126827 0)
(0.205714 0.123995 0)
(0.214408 0.120841 0)
(0.222758 0.117377 0)
(0.230734 0.113622 0)
(0.238308 0.109596 0)
(0.245455 0.10532 0)
(0.252159 0.100819 0)
(-0.000349387 0.0113388 0)
(-0.00205604 0.031963 0)
(-0.00509192 0.0497607 0)
(-0.00840487 0.0647122 0)
(-0.011415 0.0771075 0)
(-0.0137874 0.0873058 0)
(-0.0153217 0.0956488 0)
(-0.0159246 0.102433 0)
(-0.0155774 0.107906 0)
(-0.0143072 0.11228 0)
(-0.0121677 0.115734 0)
(-0.00922496 0.118429 0)
(-0.00554892 0.120504 0)
(-0.00120732 0.122084 0)
(0.00373796 0.123281 0)
(0.00923237 0.124188 0)
(0.0152293 0.124886 0)
(0.0216896 0.12544 0)
(0.0285808 0.1259 0)
(0.0358754 0.126302 0)
(0.0435495 0.12667 0)
(0.0515809 0.127014 0)
(0.059948 0.127335 0)
(0.0686283 0.127623 0)
(0.0775971 0.127862 0)
(0.0868271 0.12803 0)
(0.0962874 0.1281 0)
(0.105944 0.128043 0)
(0.115758 0.12783 0)
(0.12569 0.127431 0)
(0.135694 0.126819 0)
(0.145726 0.125969 0)
(0.155736 0.12486 0)
(0.165678 0.123476 0)
(0.175503 0.121806 0)
(0.185165 0.119842 0)
(0.194618 0.117583 0)
(0.203819 0.115031 0)
(0.212731 0.112194 0)
(0.221315 0.109082 0)
(0.229539 0.105708 0)
(0.237374 0.10209 0)
(0.244793 0.0982467 0)
(0.251777 0.0941964 0)
(-0.000484538 0.0125859 0)
(-0.00278684 0.0348595 0)
(-0.00682241 0.0533863 0)
(-0.0111794 0.0683275 0)
(-0.0151227 0.0802103 0)
(-0.0182628 0.0895959 0)
(-0.0203866 0.0969752 0)
(-0.0214113 0.102745 0)
(-0.0213397 0.107218 0)
(-0.0202233 0.110641 0)
(-0.0181387 0.113215 0)
(-0.0151729 0.115105 0)
(-0.0114139 0.116453 0)
(-0.00694459 0.117379 0)
(-0.00183986 0.117985 0)
(0.00383517 0.118357 0)
(0.010025 0.118567 0)
(0.016683 0.118672 0)
(0.0237709 0.118716 0)
(0.0312562 0.11873 0)
(0.0391116 0.118734 0)
(0.0473123 0.118737 0)
(0.0558352 0.118739 0)
(0.0646571 0.118733 0)
(0.0737537 0.118703 0)
(0.0830987 0.11863 0)
(0.0926631 0.118491 0)
(0.102415 0.11826 0)
(0.112319 0.117911 0)
(0.122337 0.117416 0)
(0.132428 0.116752 0)
(0.14255 0.115895 0)
(0.152658 0.114826 0)
(0.162707 0.113529 0)
(0.172651 0.111992 0)
(0.182445 0.110206 0)
(0.192045 0.108168 0)
(0.201411 0.105879 0)
(0.210502 0.103342 0)
(0.219283 0.100566 0)
(0.227718 0.0975597 0)
(0.235778 0.0943377 0)
(0.243435 0.0909146 0)
(0.250669 0.0873067 0)
(-0.000674947 0.01428 0)
(-0.00376228 0.0387159 0)
(-0.00905544 0.0581353 0)
(-0.0146614 0.0730069 0)
(-0.0196612 0.0842105 0)
(-0.0236205 0.0925837 0)
(-0.0263323 0.0988055 0)
(-0.0277427 0.103391 0)
(-0.0278908 0.106721 0)
(-0.0268631 0.10908 0)
(-0.0247666 0.110684 0)
(-0.0217137 0.111703 0)
(-0.0178125 0.112274 0)
(-0.0131625 0.112509 0)
(-0.00785147 0.1125 0)
(-0.00195515 0.112323 0)
(0.00446276 0.112038 0)
(0.0113491 0.111694 0)
(0.0186602 0.111327 0)
(0.0263596 0.110962 0)
(0.0344167 0.110614 0)
(0.0428047 0.110291 0)
(0.0514992 0.10999 0)
(0.0604765 0.109704 0)
(0.0697126 0.10942 0)
(0.079182 0.109119 0)
(0.0888573 0.108782 0)
(0.0987087 0.108386 0)
(0.108704 0.107906 0)
(0.118806 0.107319 0)
(0.12898 0.106603 0)
(0.139184 0.105736 0)
(0.149377 0.1047 0)
(0.159517 0.103481 0)
(0.169561 0.102065 0)
(0.179467 0.100444 0)
(0.189192 0.0986131 0)
(0.198696 0.0965708 0)
(0.207941 0.094319 0)
(0.21689 0.0918626 0)
(0.225511 0.0892092 0)
(0.233771 0.0863688 0)
(0.241643 0.0833535 0)
(0.249105 0.0801766 0)
(-0.000952744 0.0165846 0)
(-0.00509413 0.0438151 0)
(-0.0119802 0.0642641 0)
(-0.0190725 0.0789213 0)
(-0.0252438 0.08919 0)
(-0.0300425 0.0962807 0)
(-0.0332994 0.101104 0)
(-0.0350163 0.104307 0)
(-0.0352878 0.10634 0)
(-0.0342477 0.107517 0)
(-0.0320409 0.108064 0)
(-0.0288089 0.10815 0)
(-0.0246823 0.107901 0)
(-0.0197773 0.107417 0)
(-0.0141945 0.106776 0)
(-0.00801907 0.106042 0)
(-0.00132217 0.105262 0)
(0.00583756 0.104474 0)
(0.013412 0.103705 0)
(0.0213616 0.102973 0)
(0.0296533 0.102289 0)
(0.0382587 0.101655 0)
(0.0471525 0.101068 0)
(0.0563107 0.100519 0)
(0.0657095 0.0999972 0)
(0.0753246 0.0994848 0)
(0.08513 0.0989634 0)
(0.0950977 0.0984125 0)
(0.105198 0.097811 0)
(0.115397 0.0971377 0)
(0.125661 0.096372 0)
(0.135953 0.0954951 0)
(0.146235 0.0944899 0)
(0.156468 0.0933418 0)
(0.16661 0.0920387 0)
(0.176623 0.0905719 0)
(0.186467 0.0889353 0)
(0.196102 0.087126 0)
(0.205494 0.085144 0)
(0.214605 0.0829919 0)
(0.223404 0.0806749 0)
(0.23186 0.0782003 0)
(0.239946 0.0755774 0)
(0.247638 0.0728165 0)
(-0.00137482 0.019747 0)
(-0.00695973 0.050545 0)
(-0.0158702 0.072087 0)
(-0.0247064 0.0862459 0)
(-0.0321267 0.0951994 0)
(-0.0377206 0.100651 0)
(-0.0414081 0.103784 0)
(-0.0432827 0.105381 0)
(-0.0435171 0.105952 0)
(-0.0423056 0.105832 0)
(-0.0398378 0.105243 0)
(-0.0362876 0.104342 0)
(-0.0318087 0.10324 0)
(-0.0265337 0.102019 0)
(-0.020575 0.10074 0)
(-0.0140261 0.0994494 0)
(-0.00696413 0.0981808 0)
(0.000547778 0.0969596 0)
(0.00845837 0.0958027 0)
(0.0167257 0.0947205 0)
(0.0253151 0.0937171 0)
(0.0341972 0.0927914 0)
(0.0433461 0.0919377 0)
(0.0527379 0.0911466 0)
(0.0623494 0.0904051 0)
(0.0721573 0.089698 0)
(0.0821372 0.089008 0)
(0.0922631 0.0883166 0)
(0.102507 0.0876046 0)
(0.11284 0.0868531 0)
(0.123229 0.0860436 0)
(0.13364 0.0851588 0)
(0.14404 0.084183 0)
(0.154391 0.0831025 0)
(0.164657 0.0819057 0)
(0.174801 0.0805836 0)
(0.184786 0.0791295 0)
(0.194576 0.0775394 0)
(0.204136 0.0758117 0)
(0.213433 0.0739473 0)
(0.222436 0.071949 0)
(0.231116 0.0698218 0)
(0.239445 0.0675722 0)
(0.247403 0.0652083 0)
(-0.00204616 0.024156 0)
(-0.00964843 0.0594406 0)
(-0.0211229 0.0819723 0)
(-0.0319395 0.0951272 0)
(-0.0405856 0.102215 0)
(-0.0468015 0.105567 0)
(-0.0506737 0.106665 0)
(-0.0524326 0.106413 0)
(-0.0523538 0.105359 0)
(-0.0507041 0.103833 0)
(-0.0477234 0.102042 0)
(-0.0436197 0.100116 0)
(-0.0385697 0.0981427 0)
(-0.0327216 0.0961793 0)
(-0.026198 0.0942655 0)
(-0.0190994 0.0924283 0)
(-0.0115078 0.0906859 0)
(-0.00348943 0.0890497 0)
(0.00490219 0.0875255 0)
(0.0136237 0.0861151 0)
(0.0226394 0.0848159 0)
(0.0319195 0.0836223 0)
(0.0414382 0.0825256 0)
(0.051172 0.0815146 0)
(0.0610988 0.0805761 0)
(0.0711966 0.0796951 0)
(0.0814429 0.0788555 0)
(0.0918139 0.0780401 0)
(0.102285 0.0772318 0)
(0.112828 0.0764133 0)
(0.123416 0.0755679 0)
(0.134018 0.07468 0)
(0.144603 0.073735 0)
(0.155139 0.0727202 0)
(0.165591 0.0716243 0)
(0.175927 0.0704385 0)
(0.186113 0.0691555 0)
(0.196117 0.0677707 0)
(0.205906 0.066281 0)
(0.215451 0.0646858 0)
(0.224721 0.0629861 0)
(0.23369 0.0611846 0)
(0.242332 0.0592857 0)
(0.250627 0.057295 0)
(-0.00316739 0.0304482 0)
(-0.013644 0.0712381 0)
(-0.0283085 0.0943073 0)
(-0.0412087 0.105602 0)
(-0.0508163 0.110051 0)
(-0.0572162 0.110728 0)
(-0.0607682 0.109399 0)
(-0.0618911 0.107046 0)
(-0.060988 0.104209 0)
(-0.0584098 0.101187 0)
(-0.0544509 0.0981445 0)
(-0.0493548 0.0951751 0)
(-0.043321 0.0923296 0)
(-0.0365121 0.0896358 0)
(-0.02906 0.0871072 0)
(-0.0210709 0.084749 0)
(-0.0126302 0.0825615 0)
(-0.00380624 0.080541 0)
(0.00534638 0.0786818 0)
(0.0147838 0.0769761 0)
(0.0244704 0.0754145 0)
(0.034377 0.0739862 0)
(0.0444787 0.0726792 0)
(0.0547533 0.0714801 0)
(0.0651807 0.0703749 0)
(0.0757411 0.0693484 0)
(0.0864148 0.0683851 0)
(0.0971812 0.0674692 0)
(0.108019 0.0665846 0)
(0.118905 0.0657158 0)
(0.129815 0.0648476 0)
(0.140723 0.0639656 0)
(0.151602 0.0630565 0)
(0.162425 0.0621085 0)
(0.173162 0.0611108 0)
(0.183785 0.0600546 0)
(0.194264 0.0589327 0)
(0.204571 0.0577396 0)
(0.214677 0.0564714 0)
(0.224554 0.055126 0)
(0.234178 0.053703 0)
(0.243523 0.0522033 0)
(0.252565 0.0506293 0)
(0.261288 0.0489846 0)
(-0.0051326 0.0397201 0)
(-0.0197685 0.0869251 0)
(-0.0382031 0.109365 0)
(-0.05286 0.117403 0)
(-0.0625996 0.118155 0)
(-0.0681732 0.115465 0)
(-0.070349 0.111284 0)
(-0.0697915 0.10658 0)
(-0.0670585 0.101827 0)
(-0.0625984 0.0972479 0)
(-0.0567662 0.0929411 0)
(-0.0498424 0.0889436 0)
(-0.042049 0.0852605 0)
(-0.0335612 0.0818819 0)
(-0.0245176 0.0787909 0)
(-0.0150273 0.0759681 0)
(-0.00517611 0.0733935 0)
(0.00496861 0.0710478 0)
(0.0153541 0.0689125 0)
(0.0259388 0.0669699 0)
(0.0366901 0.0652032 0)
(0.0475819 0.0635961 0)
(0.0585927 0.0621326 0)
(0.0697043 0.060797 0)
(0.0809006 0.0595737 0)
(0.0921664 0.0584473 0)
(0.103487 0.0574023 0)
(0.114846 0.0564235 0)
(0.126229 0.0554963 0)
(0.137617 0.0546059 0)
(0.148993 0.0537388 0)
(0.160337 0.0528816 0)
(0.171627 0.0520224 0)
(0.182842 0.0511499 0)
(0.193958 0.0502542 0)
(0.204953 0.0493269 0)
(0.215801 0.0483605 0)
(0.226481 0.0473494 0)
(0.236966 0.0462891 0)
(0.247236 0.0451766 0)
(0.257266 0.0440101 0)
(0.267036 0.0427894 0)
(0.276525 0.0415151 0)
(0.285719 0.0401893 0)
(-0.00873604 0.0539822 0)
(-0.0294257 0.107719 0)
(-0.0516568 0.126933 0)
(-0.066492 0.129506 0)
(-0.0741684 0.125176 0)
(-0.0766112 0.118326 0)
(-0.075161 0.110867 0)
(-0.0707983 0.103614 0)
(-0.0642713 0.0968853 0)
(-0.0561394 0.0907751 0)
(-0.0468182 0.0852814 0)
(-0.0366179 0.0803629 0)
(-0.0257715 0.0759649 0)
(-0.0144544 0.0720313 0)
(-0.0027991 0.0685094 0)
(0.00909479 0.0653518 0)
(0.0211524 0.0625169 0)
(0.0333179 0.0599682 0)
(0.0455499 0.0576742 0)
(0.0578181 0.055607 0)
(0.0701004 0.053742 0)
(0.0823808 0.0520574 0)
(0.0946477 0.050533 0)
(0.106892 0.0491506 0)
(0.119108 0.047893 0)
(0.131288 0.0467441 0)
(0.143427 0.0456884 0)
(0.155518 0.0447113 0)
(0.167554 0.0437989 0)
(0.179525 0.0429378 0)
(0.191423 0.0421154 0)
(0.203236 0.04132 0)
(0.214951 0.0405406 0)
(0.226553 0.0397671 0)
(0.238027 0.0389905 0)
(0.249358 0.0382029 0)
(0.260526 0.0373973 0)
(0.271516 0.0365681 0)
(0.282309 0.0357107 0)
(0.292886 0.0348217 0)
(0.30323 0.0338988 0)
(0.313324 0.0329405 0)
(0.32315 0.0319466 0)
(0.332696 0.030918 0)
(-0.0155947 0.0770036 0)
(-0.0448583 0.134573 0)
(-0.0684098 0.145293 0)
(-0.0781503 0.139032 0)
(-0.0782116 0.127888 0)
(-0.0724119 0.11611 0)
(-0.0628015 0.105143 0)
(-0.0507075 0.0954095 0)
(-0.0370453 0.0869348 0)
(-0.0224303 0.0796041 0)
(-0.00727282 0.073266 0)
(0.00815225 0.0677742 0)
(0.0236595 0.0629996 0)
(0.0391242 0.0588323 0)
(0.0544637 0.0551805 0)
(0.0696248 0.0519679 0)
(0.0845748 0.0491315 0)
(0.0992957 0.046619 0)
(0.11378 0.0443868 0)
(0.128026 0.0423983 0)
(0.14204 0.0406226 0)
(0.155829 0.0390332 0)
(0.169401 0.0376071 0)
(0.182768 0.036324 0)
(0.19594 0.035166 0)
(0.208927 0.0341168 0)
(0.221738 0.0331614 0)
(0.234379 0.0322862 0)
(0.246856 0.0314784 0)
(0.259173 0.0307262 0)
(0.271332 0.0300186 0)
(0.283331 0.0293454 0)
(0.295169 0.0286974 0)
(0.30684 0.0280659 0)
(0.318339 0.0274432 0)
(0.329657 0.0268227 0)
(0.340785 0.0261982 0)
(0.351712 0.0255649 0)
(0.362427 0.0249185 0)
(0.372919 0.0242559 0)
(0.383172 0.0235746 0)
(0.393178 0.0228731 0)
(0.402919 0.0221503 0)
(0.412389 0.0214067 0)
(-0.0286492 0.115396 0)
(-0.0675427 0.16447 0)
(-0.078716 0.155854 0)
(-0.0677267 0.136377 0)
(-0.0479237 0.117535 0)
(-0.024625 0.101343 0)
(6.20967e-05 0.0879197 0)
(0.0249656 0.0769279 0)
(0.0494194 0.0679187 0)
(0.0730873 0.0604841 0)
(0.0958239 0.0543004 0)
(0.117585 0.0491176 0)
(0.138379 0.0447416 0)
(0.158245 0.0410202 0)
(0.177234 0.0378342 0)
(0.195405 0.0350897 0)
(0.212819 0.0327122 0)
(0.229535 0.0306422 0)
(0.245609 0.0288316 0)
(0.261097 0.0272416 0)
(0.276046 0.02584 0)
(0.290505 0.0246003 0)
(0.304514 0.0235001 0)
(0.318114 0.0225204 0)
(0.331339 0.0216447 0)
(0.344219 0.0208589 0)
(0.356784 0.0201501 0)
(0.369056 0.0195072 0)
(0.381057 0.0189199 0)
(0.392803 0.018379 0)
(0.404309 0.017876 0)
(0.415585 0.0174034 0)
(0.42664 0.0169541 0)
(0.437478 0.0165219 0)
(0.448103 0.0161013 0)
(0.458513 0.0156873 0)
(0.468708 0.0152756 0)
(0.478684 0.0148625 0)
(0.488436 0.0144452 0)
(0.497957 0.0140211 0)
(0.507239 0.0135884 0)
(0.516277 0.0131459 0)
(0.525058 0.0126927 0)
(0.533579 0.0122291 0)
(-0.0500898 0.200084 0)
(-0.0664779 0.177828 0)
(-0.0109359 0.128442 0)
(0.0477158 0.100053 0)
(0.100325 0.0802705 0)
(0.147326 0.0649623 0)
(0.189349 0.0532305 0)
(0.226869 0.0443522 0)
(0.260413 0.0375587 0)
(0.290538 0.0322519 0)
(0.317751 0.0280314 0)
(0.342478 0.0246293 0)
(0.365073 0.0218557 0)
(0.385831 0.0195707 0)
(0.405003 0.0176701 0)
(0.422798 0.0160756 0)
(0.439393 0.0147274 0)
(0.454937 0.0135797 0)
(0.46956 0.0125966 0)
(0.483369 0.0117497 0)
(0.49646 0.0110165 0)
(0.508913 0.0103786 0)
(0.5208 0.00982124 0)
(0.532183 0.009332 0)
(0.543113 0.00890057 0)
(0.553638 0.00851818 0)
(0.563797 0.00817728 0)
(0.573625 0.00787131 0)
(0.583152 0.00759452 0)
(0.592402 0.00734181 0)
(0.601396 0.00710864 0)
(0.610152 0.006891 0)
(0.618681 0.0066853 0)
(0.626995 0.00648836 0)
(0.6351 0.00629742 0)
(0.643002 0.00611006 0)
(0.650702 0.00592423 0)
(0.658202 0.00573822 0)
(0.6655 0.00555066 0)
(0.672594 0.00536049 0)
(0.67948 0.00516689 0)
(0.686154 0.00496947 0)
(0.692609 0.00476779 0)
(0.698845 0.00456204 0)
(0.22953 0.139983 0)
(0.277978 0.113046 0)
(0.393409 0.0759681 0)
(0.483447 0.0531957 0)
(0.545832 0.0387227 0)
(0.592022 0.0285976 0)
(0.628408 0.0213547 0)
(0.657839 0.0162072 0)
(0.682004 0.0125388 0)
(0.70217 0.00988779 0)
(0.719282 0.00794054 0)
(0.73402 0.00648918 0)
(0.746879 0.00539271 0)
(0.758225 0.00455319 0)
(0.768342 0.00390183 0)
(0.777446 0.00338999 0)
(0.78571 0.00298294 0)
(0.793269 0.00265559 0)
(0.800233 0.0023896 0)
(0.80669 0.00217139 0)
(0.812714 0.00199079 0)
(0.818364 0.0018401 0)
(0.823691 0.00171338 0)
(0.828736 0.00160601 0)
(0.833534 0.00151434 0)
(0.838115 0.00143542 0)
(0.842505 0.00136685 0)
(0.846722 0.00130663 0)
(0.850786 0.00125311 0)
(0.854709 0.00120485 0)
(0.858503 0.00116066 0)
(0.862178 0.0011195 0)
(0.865741 0.00108048 0)
(0.869195 0.00104284 0)
(0.872545 0.00100594 0)
(0.875793 0.000969255 0)
(0.87894 0.000932359 0)
(0.881985 0.00089492 0)
(0.884928 0.000856685 0)
(0.887767 0.000817509 0)
(0.8905 0.000777269 0)
(0.893125 0.000735995 0)
(0.895639 0.000693668 0)
(0.898041 0.000650365 0)
)
;

boundaryField
{
    movingWall
    {
        type            fixedValue;
        value           uniform (1 0 0);
    }
    fixedWalls
    {
        type            noSlip;
    }
    frontAndBack
    {
        type            empty;
    }
    procBoundary2to3
    {
        type            processor;
        value           nonuniform List<vector> 
45
(
(0.0879289 0.264292 0)
(0.0932913 0.265194 0)
(0.0984707 0.264886 0)