/*--------------------------------*- C++ -*----------------------------------*\
  =========                 |
  \\      /  F ield         | OpenFOAM: The Open Source CFD Toolbox
   \\    /   O peration     | Website:  https://openfoam.org
    \\  /    A nd           | Version:  9
     \\/     M anipulation  |
\*---------------------------------------------------------------------------*/
FoamFile
{
    format      ascii;
    class       surfaceScalarField;
    location    "0.25";
    object      phi;
}
// * * * * * * * * * * * * * * * * * * * * * * * * * * * * * * * * * * * * * //

dimensions      [0 3 -1 0 0 0 0];

internalField   nonuniform List<scalar> 
2402
(
-3.09898e-07
1.9868e-08
-3.11737e-07
1.19297e-08
-3.13198e-07
3.7609e-09
-3.14259e-07
-4.63567e-09
-1.32593e-08
-3.1785e-07
2.23204e-08
-3.1994e-07
1.40192e-08
-3.2164e-07
5.46099e-09
-3.22923e-07
-3.3521e-09
-3.2377e-07
-1.24124e-08
-2.17206e-08
-2.61045e-07
-1.75315e-07
-2.5181e-07
-1.84799e-07
-2.41991e-07
-1.9392e-07
-2.31618e-07
-2.02622e-07
-2.20729e-07
-2.10846e-07
-2.09365e-07
-2.18532e-07
-1.97575e-07
-2.25612e-07
-1.85412e-07
-2.32017e-07
-1.72935e-07
-2.37668e-07
-1.6021e-07
-2.42474e-07
-1.47305e-07
-2.46333e-07
-1.34297e-07
-2.49127e-07
-1.21269e-07
-2.50716e-07
-1.08309e-07
-2.50939e-07
-9.5513e-08
-2.49612e-07
-8.2984e-08
-2.46522e-07
-7.08339e-08
-2.4143e-07
-5.91829e-08
-2.34073e-07
-4.81605e-08
-2.24165e-07
-3.7905e-08
-2.11406e-07
-2.85628e-08
-1.9549e-07
-2.02866e-08
-1.76118e-07
-1.32319e-08
-1.53023e-07
-7.55102e-09
-1.25993e-07
-3.38405e-09
-9.4912e-08
-8.44583e-10
-5.98201e-08
-2.09862e-08
-3.26181e-07
2.50494e-08
-3.28543e-07
1.63811e-08
-3.3051e-07
7.42784e-09
-3.32053e-07
-1.80895e-09
-3.33142e-07
-1.1324e-08
-3.33753e-07
-2.11088e-08
-3.33868e-07
-3.11589e-08
-3.3346e-07
-4.14629e-08
-3.32499e-07
-5.1998e-08
-3.30961e-07
-6.27383e-08
-3.28818e-07
-7.3656e-08
-3.26049e-07
-8.47207e-08
-3.2263e-07
-9.58987e-08
-3.18545e-07
-1.07153e-07
-3.13779e-07
-1.18442e-07
-3.0832e-07
-1.29723e-07
-3.02162e-07
-1.40947e-07
-2.95305e-07
-1.52065e-07
-2.8775e-07
-1.63022e-07
-2.79507e-07
-1.73762e-07
-2.7059e-07
-1.84231e-07
-2.61018e-07
-1.94371e-07
-2.50818e-07
-2.04121e-07
-2.40022e-07
-2.13418e-07
-2.28673e-07
-2.22195e-07
-2.16818e-07
-2.30387e-07
-2.04508e-07
-2.37922e-07
-1.91805e-07
-2.44721e-07
-1.78772e-07
-2.507e-07
-1.65482e-07
-2.55764e-07
-1.52012e-07
-2.59804e-07
-1.38444e-07
-2.62694e-07
-1.24869e-07
-2.64291e-07
-1.11381e-07
-2.64427e-07
-9.80835e-08
-2.6291e-07
-8.50857e-08
-2.5952e-07
-7.25051e-08
-2.54011e-07
-6.04669e-08
-2.46111e-07
-4.91048e-08
-2.35527e-07
-3.85606e-08
-2.2195e-07
-2.89829e-08
-2.05068e-07
-2.05254e-08
-1.84576e-07
-1.33426e-08
-1.60206e-07
-7.58333e-09
-1.31752e-07
-3.38079e-09
-9.91146e-08
-8.3676e-10
-6.23642e-08
-2.1823e-08
-3.34876e-07
2.80769e-08
-3.37535e-07
1.90403e-08
-3.39795e-07
9.68776e-09
-3.41626e-07
2.18594e-11
-3.42995e-07
-9.95501e-09
-3.43872e-07
-2.02315e-08
-3.44231e-07
-3.08003e-08
-3.44044e-07
-4.16491e-08
-3.43284e-07
-5.27585e-08
-3.41919e-07
-6.41033e-08
-3.3992e-07
-7.56545e-08
-3.37261e-07
-8.73797e-08
-3.33917e-07
-9.9243e-08
-3.29866e-07
-1.11204e-07
-3.2509e-07
-1.23218e-07
-3.19575e-07
-1.35238e-07
-3.13313e-07
-1.4721e-07
-3.063e-07
-1.59078e-07
-2.98537e-07
-1.70785e-07
-2.90032e-07
-1.82267e-07
-2.80799e-07
-1.93464e-07
-2.7086e-07
-2.0431e-07
-2.60246e-07
-2.14736e-07
-2.48992e-07
-2.24671e-07
-2.37144e-07
-2.34044e-07
-2.24753e-07
-2.42778e-07
-2.11878e-07
-2.50796e-07
-1.98586e-07
-2.58013e-07
-1.84948e-07
-2.64338e-07
-1.71044e-07
-2.69668e-07
-1.56959e-07
-2.73889e-07
-1.42784e-07
-2.76869e-07
-1.28617e-07
-2.78458e-07
-1.14561e-07
-2.78483e-07
-1.00726e-07
-2.76745e-07
-8.72279e-08
-2.73018e-07
-7.41908e-08
-2.67048e-07
-6.17451e-08
-2.58557e-07
-5.00288e-08
-2.47244e-07
-3.91868e-08
-2.32792e-07
-2.93699e-08
-2.14884e-07
-2.0732e-08
-1.93214e-07
-1.34257e-08
-1.67512e-07
-7.59556e-09
-1.37582e-07
-3.36609e-09
-1.03344e-07
-8.25156e-10
-6.49051e-08
-2.26481e-08
-3.43936e-07
3.14304e-08
-3.4692e-07
2.20243e-08
-3.49502e-07
1.2269e-08
-3.51646e-07
2.16601e-09
-3.53321e-07
-8.27938e-09
-3.54494e-07
-1.90588e-08
-3.55131e-07
-3.01631e-08
-3.55201e-07
-4.15791e-08
-3.54672e-07
-5.32883e-08
-3.53509e-07
-6.52658e-08
-3.51681e-07
-7.74823e-08
-3.49157e-07
-8.9904e-08
-3.45908e-07
-1.02492e-07
-3.41908e-07
-1.15204e-07
-3.37135e-07
-1.27991e-07
-3.31573e-07
-1.408e-07
-3.25208e-07
-1.53574e-07
-3.18036e-07
-1.66251e-07
-3.10055e-07
-1.78766e-07
-3.01272e-07
-1.9105e-07
-2.91704e-07
-2.03033e-07
-2.81373e-07
-2.1464e-07
-2.70313e-07
-2.25796e-07
-2.58563e-07
-2.36421e-07
-2.46172e-07
-2.46434e-07
-2.33199e-07
-2.55752e-07
-2.19707e-07
-2.64287e-07
-2.05772e-07
-2.71948e-07
-1.91474e-07
-2.78636e-07
-1.76902e-07
-2.84241e-07
-1.62148e-07
-2.88642e-07
-1.47314e-07
-2.91703e-07
-1.32507e-07
-2.93266e-07
-1.17839e-07
-2.93152e-07
-1.03427e-07
-2.91157e-07
-8.93959e-08
-2.87049e-07
-7.58754e-08
-2.80568e-07
-6.30018e-08
-2.71431e-07
-5.09172e-08
-2.59328e-07
-3.97698e-08
-2.4394e-07
-2.97117e-08
-2.24943e-07
-2.08965e-08
-2.02029e-07
-1.34742e-08
-1.74935e-07
-7.58308e-09
-1.43473e-07
-3.33755e-09
-1.0759e-07
-8.0905e-10
-6.74336e-08
-2.34572e-08
-3.53367e-07
3.51372e-08
-3.56705e-07
2.53615e-08
-3.59635e-07
1.51999e-08
-3.62124e-07
4.65476e-09
-3.64136e-07
-6.26785e-09
-3.65633e-07
-1.75612e-08
-3.6658e-07
-2.92162e-08
-3.66939e-07
-4.12198e-08
-3.66674e-07
-5.35535e-08
-3.65747e-07
-6.6193e-08
-3.64121e-07
-7.91086e-08
-3.6176e-07
-9.22648e-08
-3.58631e-07
-1.05621e-07
-3.54704e-07
-1.19131e-07
-3.49952e-07
-1.32743e-07
-3.44353e-07
-1.46398e-07
-3.37893e-07
-1.60034e-07
-3.30562e-07
-1.73582e-07
-3.22357e-07
-1.8697e-07
-3.13286e-07
-2.00121e-07
-3.03362e-07
-2.12956e-07
-2.92613e-07
-2.2539e-07
-2.81072e-07
-2.37337e-07
-2.68784e-07
-2.48709e-07
-2.55804e-07
-2.59415e-07
-2.42194e-07
-2.69361e-07
-2.28029e-07
-2.78452e-07
-2.13392e-07
-2.86586e-07
-1.98372e-07
-2.93656e-07
-1.83068e-07
-2.99545e-07
-1.67585e-07
-3.04125e-07
-1.52035e-07
-3.07253e-07
-1.36534e-07
-3.08767e-07
-1.21204e-07
-3.08481e-07
-1.06173e-07
-3.06187e-07
-9.1573e-08
-3.01649e-07
-7.75407e-08
-2.94601e-07
-6.42182e-08
-2.84753e-07
-5.1752e-08
-2.71794e-07
-4.02928e-08
-2.55399e-07
-2.99938e-08
-2.35242e-07
-2.10072e-08
-2.11016e-07
-1.3479e-08
-1.82463e-07
-7.54009e-09
-1.49412e-07
-3.29219e-09
-1.11837e-07
-7.8752e-10
-6.99383e-08
-2.42447e-08
-3.59084e-07
4.89591e-08
-3.63175e-07
3.92283e-08
-3.66895e-07
2.9081e-08
-3.70205e-07
1.85102e-08
-3.73071e-07
7.51995e-09
-3.75452e-07
-3.8863e-09
-3.7731e-07
-1.57036e-08
-3.78602e-07
-2.79236e-08
-3.79288e-07
-4.05341e-08
-3.79325e-07
-5.35169e-08
-3.7867e-07
-6.68482e-08
-3.7728e-07
-8.04977e-08
-3.75116e-07
-9.44292e-08
-3.72138e-07
-1.086e-07
-3.68309e-07
-1.2296e-07
-3.63599e-07
-1.37453e-07
-3.57981e-07
-1.52016e-07
-3.51435e-07
-1.6658e-07
-3.43948e-07
-1.8107e-07
-3.35515e-07
-1.95403e-07
-3.26142e-07
-2.09495e-07
-3.15843e-07
-2.23255e-07
-3.04645e-07
-2.36588e-07
-2.92585e-07
-2.49397e-07
-2.79713e-07
-2.61581e-07
-2.66089e-07
-2.73039e-07
-2.51784e-07
-2.83666e-07
-2.36881e-07
-2.93355e-07
-2.21472e-07
-3.01995e-07
-2.05661e-07
-3.09468e-07
-1.89556e-07
-3.1565e-07
-1.73276e-07
-3.20406e-07
-1.56943e-07
-3.23585e-07
-1.40688e-07
-3.25022e-07
-1.24644e-07
-3.24526e-07
-1.08947e-07
-3.21884e-07
-9.37392e-08
-3.16856e-07
-7.91651e-08
-3.09175e-07
-6.53724e-08
-2.98546e-07
-5.2512e-08
-2.84655e-07
-4.07366e-08
-2.67174e-07
-3.01995e-08
-2.45779e-07
-2.10506e-08
-2.20165e-07
-1.34304e-08
-1.90083e-07
-7.46014e-09
-1.55382e-07
-3.22665e-09
-1.16071e-07
-7.59564e-10
-7.24053e-08
-2.50043e-08
-3.68858e-07
5.37933e-08
-3.7336e-07
4.37306e-08
-3.77492e-07
3.32121e-08
-3.81216e-07
2.22343e-08
-3.84494e-07
1.0798e-08
-3.87284e-07
-1.09622e-09
-3.89541e-07
-1.34458e-08
-3.91221e-07
-2.6244e-08
-3.92275e-07
-3.94797e-08
-3.92657e-07
-5.31359e-08
-3.92316e-07
-6.7189e-08
-3.91204e-07
-8.1609e-08
-3.89275e-07
-9.63583e-08
-3.86483e-07
-1.11392e-07
-3.82785e-07
-1.26658e-07
-3.78143e-07
-1.42094e-07
-3.72526e-07
-1.57634e-07
-3.65907e-07
-1.73199e-07
-3.58269e-07
-1.88707e-07
-3.49605e-07
-2.04068e-07
-3.39917e-07
-2.19183e-07
-3.2922e-07
-2.33952e-07
-3.17541e-07
-2.48266e-07
-3.04921e-07
-2.62017e-07
-2.91413e-07
-2.75089e-07
-2.77086e-07
-2.87367e-07
-2.62018e-07
-2.98734e-07
-2.46303e-07
-3.0907e-07
-2.30047e-07
-3.18251e-07
-2.13365e-07
-3.2615e-07
-1.9638e-07
-3.32635e-07
-1.79225e-07
-3.37561e-07
-1.62037e-07
-3.40773e-07
-1.44961e-07
-3.42098e-07
-1.28141e-07
-3.41346e-07
-1.11727e-07
-3.38298e-07
-9.58704e-08
-3.32713e-07
-8.0723e-08
-3.24322e-07
-6.64389e-08
-3.1283e-07
-5.31727e-08
-2.97921e-07
-4.10789e-08
-2.79268e-07
-3.03097e-08
-2.56548e-07
-2.10114e-08
-2.29463e-07
-1.33169e-08
-1.97778e-07
-7.33592e-09
-1.61363e-07
-3.13719e-09
-1.2027e-07
-7.24072e-10
-7.48185e-08
-2.57283e-08
-3.62346e-07
8.74815e-08
-3.68151e-07
7.84386e-08
-3.73706e-07
6.89748e-08
-3.78975e-07
5.90613e-08
-3.83915e-07
4.86712e-08
-3.88492e-07
3.77891e-08
-3.92668e-07
2.641e-08
-3.964e-07
1.45297e-08
-3.99641e-07
2.14554e-09
-4.02344e-07
-1.07427e-08
-4.04458e-07
-2.41306e-08
-4.05929e-07
-3.80089e-08
-4.06702e-07
-5.2362e-08
-4.06724e-07
-6.71674e-08
-4.05938e-07
-8.23952e-08
-4.04289e-07
-9.80072e-08
-4.01724e-07
-1.13957e-07
-3.98194e-07
-1.30188e-07
-3.93653e-07
-1.46635e-07
-3.88062e-07
-1.63225e-07
-3.81388e-07
-1.79873e-07
-3.73609e-07
-1.96486e-07
-3.64712e-07
-2.12964e-07
-3.54698e-07
-2.29197e-07
-3.4358e-07
-2.4507e-07
-3.31385e-07
-2.60461e-07
-3.18158e-07
-2.75244e-07
-3.03958e-07
-2.89289e-07
-2.88859e-07
-3.02466e-07
-2.72952e-07
-3.14641e-07
-2.56344e-07
-3.25678e-07
-2.39152e-07
-3.35442e-07
-2.21509e-07
-3.43794e-07
-2.03553e-07
-3.5059e-07
-1.85436e-07
-3.55678e-07
-1.67311e-07
-3.58898e-07
-1.49337e-07
-3.60072e-07
-1.31676e-07
-3.59007e-07
-1.14489e-07
-3.55485e-07
-9.79377e-08
-3.49264e-07
-8.21838e-08
-3.40076e-07
-6.7387e-08
-3.27627e-07
-5.37051e-08
-3.11603e-07
-4.12935e-08
-2.9168e-07
-3.03022e-08
-2.67539e-07
-2.08716e-08
-2.38894e-07
-1.31256e-08
-2.05524e-07
-7.15907e-09
-1.6733e-07
-3.01956e-09
-1.24409e-07
-6.7979e-10
-7.71582e-08
-2.64081e-08
-3.71431e-07
9.39376e-08
-3.7768e-07
8.46874e-08
-3.83687e-07
7.49816e-08
-3.89415e-07
6.47893e-08
-3.94828e-07
5.40846e-08
-3.99891e-07
4.28517e-08
-4.04561e-07
3.108e-08
-4.08792e-07
1.87607e-08
-4.12534e-07
5.88724e-09
-4.15733e-07
-7.54374e-09
-4.18332e-07
-2.1531e-08
-4.20274e-07
-3.60676e-08
-4.21495e-07
-5.11404e-08
-4.21934e-07
-6.67282e-08
-4.21528e-07
-8.2802e-08
-4.20212e-07
-9.93232e-08
-4.17925e-07
-1.16244e-07
-4.14608e-07
-1.33505e-07
-4.10206e-07
-1.51036e-07
-4.04673e-07
-1.68758e-07
-3.97967e-07
-1.86578e-07
-3.9006e-07
-2.04394e-07
-3.80933e-07
-2.22092e-07
-3.70581e-07
-2.39548e-07
-3.59018e-07
-2.56633e-07
-3.46271e-07
-2.73208e-07
-3.32386e-07
-2.89128e-07
-3.17429e-07
-3.04246e-07
-3.01484e-07
-3.18411e-07
-2.84653e-07
-3.31471e-07
-2.67056e-07
-3.43275e-07
-2.48829e-07
-3.53669e-07
-2.30121e-07
-3.62502e-07
-2.11093e-07
-3.69618e-07
-1.91913e-07
-3.74858e-07
-1.72757e-07
-3.78054e-07
-1.538e-07
-3.79028e-07
-1.35223e-07
-3.77585e-07
-1.172e-07
-3.73508e-07
-9.99062e-08
-3.66558e-07
-8.35111e-08
-3.56471e-07
-6.81806e-08
-3.42957e-07
-5.40754e-08
-3.25708e-07
-4.13502e-08
-3.04405e-07
-3.0151e-08
-2.78738e-07
-2.06109e-08
-2.48434e-07
-1.28415e-08
-2.13293e-07
-6.92008e-09
-1.73251e-07
-2.86895e-09
-1.2846e-07
-6.25306e-10
-7.94019e-08
-2.70334e-08
-3.8073e-07
1.00845e-07
-3.87444e-07
9.14017e-08
-3.93931e-07
8.14688e-08
-4.00157e-07
7.1015e-08
-4.06086e-07
6.00137e-08
-4.11679e-07
4.84446e-08
-4.16891e-07
3.62916e-08
-4.21671e-07
2.35412e-08
-4.25966e-07
1.01822e-08
-4.29717e-07
-3.79262e-09
-4.32862e-07
-1.83862e-08
-4.35335e-07
-3.35949e-08
-4.37067e-07
-4.94085e-08
-4.37987e-07
-6.58083e-08
-4.38022e-07
-8.27666e-08
-4.371e-07
-1.00245e-07
-4.35149e-07
-1.18195e-07
-4.32098e-07
-1.36555e-07
-4.27885e-07
-1.5525e-07
-4.22449e-07
-1.74194e-07
-4.15742e-07
-1.93285e-07
-4.07726e-07
-2.12411e-07
-3.98374e-07
-2.31443e-07
-3.87677e-07
-2.50245e-07
-3.75645e-07
-2.68666e-07
-3.62305e-07
-2.86548e-07
-3.47707e-07
-3.03726e-07
-3.31923e-07
-3.20031e-07
-3.15046e-07
-3.35288e-07
-2.97194e-07
-3.49324e-07
-2.78501e-07
-3.61967e-07
-2.59125e-07
-3.73046e-07
-2.39235e-07
-3.82392e-07
-2.19015e-07
-3.89837e-07
-1.98659e-07
-3.95214e-07
-1.78364e-07
-3.9835e-07
-1.58329e-07
-3.99064e-07
-1.38751e-07
-3.97162e-07
-1.19824e-07
-3.92435e-07
-1.01734e-07
-3.84648e-07
-8.46618e-08
-3.73544e-07
-6.87775e-08
-3.58842e-07
-5.42438e-08
-3.40242e-07
-4.12135e-08
-3.17435e-07
-2.98265e-08
-2.90125e-07
-2.02057e-08
-2.58055e-07
-1.24476e-08
-2.21051e-07
-6.60813e-09
-1.79091e-07
-2.67991e-09
-1.32389e-07
-5.59037e-10
-8.15228e-08
-2.75925e-08
-3.9021e-07
1.08225e-07
-3.97418e-07
9.86103e-08
-4.04422e-07
8.84728e-08
-4.11187e-07
7.77799e-08
-4.17676e-07
6.65022e-08
-4.23846e-07
5.46147e-08
-4.2965e-07
4.20957e-08
-4.35035e-07
2.89259e-08
-4.39941e-07
1.50889e-08
-4.44307e-07
5.7288e-10
-4.48062e-07
-1.46309e-08
-4.51135e-07
-3.05224e-08
-4.53448e-07
-4.70957e-08
-4.5492e-07
-6.43355e-08
-4.5547e-07
-8.22166e-08
-4.55013e-07
-1.00702e-07
-4.53466e-07
-1.19742e-07
-4.50747e-07
-1.39274e-07
-4.46779e-07
-1.59218e-07
-4.41491e-07
-1.79482e-07
-4.34821e-07
-1.99955e-07
-4.26721e-07
-2.20511e-07
-4.17156e-07
-2.41008e-07
-4.0611e-07
-2.61291e-07
-3.93586e-07
-2.81189e-07
-3.79613e-07
-3.00521e-07
-3.64242e-07
-3.19097e-07
-3.47552e-07
-3.36721e-07
-3.29648e-07
-3.53191e-07
-3.10663e-07
-3.6831e-07
-2.90752e-07
-3.81878e-07
-2.70094e-07
-3.93704e-07
-2.48887e-07
-4.03599e-07
-2.27341e-07
-4.11383e-07
-2.05677e-07
-4.16878e-07
-1.8412e-07
-4.19906e-07
-1.62896e-07
-4.20288e-07
-1.42224e-07
-4.17834e-07
-1.22316e-07
-4.12343e-07
-1.03373e-07
-4.0359e-07
-8.55853e-08
-3.91332e-07
-6.9128e-08
-3.75299e-07
-5.41643e-08
-3.55205e-07
-4.08426e-08
-3.30757e-07
-2.92944e-08
-3.01673e-07
-1.96291e-08
-2.6772e-07
-1.19246e-08
-2.28756e-07
-6.21103e-09
-1.84804e-07
-2.44632e-09
-1.36153e-07
-4.79208e-10
-8.34899e-08
-2.80717e-08
-3.99853e-07
1.16105e-07
-4.07587e-07
1.06344e-07
-4.15144e-07
9.60297e-08
-4.22488e-07
8.51243e-08
-4.29581e-07
7.3595e-08
-4.36378e-07
6.14116e-08
-4.42829e-07
4.85463e-08
-4.48876e-07
3.49736e-08
-4.54459e-07
2.06711e-08
-4.59506e-07
5.62039e-09
-4.63945e-07
-1.01923e-08
-4.67694e-07
-2.67735e-08
-4.70667e-07
-4.41223e-08
-4.72775e-07
-6.2228e-08
-4.73922e-07
-8.1069e-08
-4.74014e-07
-1.00611e-07
-4.72951e-07
-1.20804e-07
-4.7064e-07
-1.41585e-07
-4.66987e-07
-1.62871e-07
-4.61908e-07
-1.84562e-07
-4.55325e-07
-2.06537e-07
-4.47178e-07
-2.28658e-07
-4.37419e-07
-2.50767e-07
-4.26023e-07
-2.72687e-07
-4.12988e-07
-2.94225e-07
-3.98338e-07
-3.15171e-07
-3.82129e-07
-3.35306e-07
-3.64447e-07
-3.54403e-07
-3.45409e-07
-3.72229e-07
-3.25165e-07
-3.88553e-07
-3.03895e-07
-4.03148e-07
-2.81806e-07
-4.15794e-07
-2.59124e-07
-4.26281e-07
-2.36094e-07
-4.34413e-07
-2.12971e-07
-4.40001e-07
-1.90012e-07
-4.42865e-07
-1.67473e-07
-4.42827e-07
-1.456e-07
-4.39708e-07
-1.24625e-07
-4.33317e-07
-1.04767e-07
-4.23449e-07
-8.62236e-08
-4.09875e-07
-6.91757e-08
-3.92347e-07
-5.37845e-08
-3.70597e-07
-4.01915e-08
-3.4435e-07
-2.85163e-08
-3.13349e-07
-1.88512e-08
-2.77385e-07
-1.12509e-08
-2.36356e-07
-5.71524e-09
-1.9034e-07
-2.16143e-09
-1.39707e-07
-3.83866e-10
-8.52674e-08
-2.84555e-08
-4.09636e-07
1.2451e-07
-4.17927e-07
1.14636e-07
-4.26074e-07
1.04176e-07
-4.34038e-07
9.30891e-08
-4.41781e-07
8.1338e-08
-4.49256e-07
6.88866e-08
-4.56411e-07
5.57005e-08
-4.63184e-07
4.17473e-08
-4.69511e-07
2.69974e-08
-4.75315e-07
1.14251e-08
-4.80517e-07
-4.99022e-09
-4.85028e-07
-2.22629e-08
-4.88752e-07
-4.03984e-08
-4.91587e-07
-5.93923e-08
-4.93428e-07
-7.92281e-08
-4.94164e-07
-9.98752e-08
-4.93681e-07
-1.21287e-07
-4.91869e-07
-1.43398e-07
-4.88616e-07
-1.66124e-07
-4.83821e-07
-1.89357e-07
-4.77389e-07
-2.12969e-07
-4.69242e-07
-2.36806e-07
-4.59318e-07
-2.60691e-07
-4.4758e-07
-2.84426e-07
-4.34017e-07
-3.07788e-07
-4.18649e-07
-3.30538e-07
-4.01534e-07
-3.52422e-07
-3.82764e-07
-3.73173e-07
-3.62471e-07
-3.92522e-07
-3.40827e-07
-4.10198e-07
-3.18037e-07
-4.25937e-07
-2.94341e-07
-4.3949e-07
-2.70004e-07
-4.50619e-07
-2.45309e-07
-4.59108e-07
-2.20552e-07
-4.64758e-07
-1.96028e-07
-4.67388e-07
-1.7203e-07
-4.66826e-07
-1.48833e-07
-4.62905e-07
-1.26696e-07
-4.55455e-07
-1.05852e-07
-4.44292e-07
-8.65119e-08
-4.29215e-07
-6.88574e-08
-4.10001e-07
-5.3046e-08
-3.86408e-07
-3.92088e-08
-3.58187e-07
-2.74495e-08
-3.25108e-07
-1.78387e-08
-2.86996e-07
-1.0403e-08
-2.43791e-07
-5.10602e-09
-1.95637e-07
-1.81792e-09
-1.42995e-07
-2.70896e-10
-8.68145e-08
-2.87264e-08
-4.19528e-07
1.3347e-07
-4.2841e-07
1.23518e-07
-4.37182e-07
1.12948e-07
-4.45809e-07
1.01716e-07
-4.5425e-07
8.97787e-08
-4.62457e-07
7.70933e-08
-4.70375e-07
6.36184e-08
-4.77941e-07
4.93139e-08
-4.85086e-07
3.41419e-08
-4.91729e-07
1.8068e-08
-4.97782e-07
1.06348e-09
-5.03149e-07
-1.68961e-08
-5.07724e-07
-3.58235e-08
-5.11394e-07
-5.57228e-08
-5.14037e-07
-7.65846e-08
-5.15528e-07
-9.83841e-08
-5.15737e-07
-1.21078e-07
-5.14531e-07
-1.44604e-07
-5.11782e-07
-1.68873e-07
-5.07364e-07
-1.93775e-07
-5.01163e-07
-2.1917e-07
-4.93079e-07
-2.44889e-07
-4.83033e-07
-2.70737e-07
-4.70971e-07
-2.96488e-07
-4.5687e-07
-3.21889e-07
-4.40745e-07
-3.46663e-07
-4.22651e-07
-3.70515e-07
-4.0269e-07
-3.93134e-07
-3.8101e-07
-4.14202e-07
-3.57804e-07
-4.33403e-07
-3.33312e-07
-4.5043e-07
-3.0781e-07
-4.64991e-07
-2.81608e-07
-4.7682e-07
-2.55038e-07
-4.85678e-07
-2.28443e-07
-4.91354e-07
-2.02166e-07
-4.93665e-07
-1.7654e-07
-4.92451e-07
-1.51879e-07
-4.87566e-07
-1.2847e-07
-4.78865e-07
-1.06564e-07
-4.66198e-07
-8.63815e-08
-4.49398e-07
-6.81057e-08
-4.28277e-07
-5.18862e-08
-4.02627e-07
-3.78397e-08
-3.72234e-07
-2.60487e-08
-3.36899e-07
-1.65565e-08
-2.96488e-07
-9.35594e-09
-2.50992e-07
-4.36785e-09
-2.00625e-07
-1.40812e-09
-1.45955e-07
-1.38041e-10
-8.80846e-08
-2.88645e-08
-4.29497e-07
1.43014e-07
-4.39001e-07
1.33022e-07
-4.48436e-07
1.22383e-07
-4.57767e-07
1.11047e-07
-4.66954e-07
9.89651e-08
-4.75947e-07
8.60868e-08
-4.84692e-07
7.23629e-08
-4.93122e-07
5.77444e-08
-5.01164e-07
4.2184e-08
-5.08734e-07
2.56373e-08
-5.15735e-07
8.06458e-09
-5.22063e-07
-1.05679e-08
-5.27602e-07
-3.02847e-08
-5.32225e-07
-5.10998e-08
-5.35796e-07
-7.30132e-08
-5.38172e-07
-9.60083e-08
-5.39202e-07
-1.20048e-07
-5.38732e-07
-1.45073e-07
-5.36609e-07
-1.70996e-07
-5.32683e-07
-1.97701e-07
-5.26814e-07
-2.25039e-07
-5.18877e-07
-2.52826e-07
-5.08769e-07
-2.80845e-07
-4.96416e-07
-3.08841e-07
-4.81778e-07
-3.36526e-07
-4.64861e-07
-3.6358e-07
-4.45719e-07
-3.89658e-07
-4.24458e-07
-4.14395e-07
-4.01244e-07
-4.37416e-07
-3.76298e-07
-4.58349e-07
-3.49895e-07
-4.76832e-07
-3.2236e-07
-4.92527e-07
-2.94053e-07
-5.05127e-07
-2.65364e-07
-5.14367e-07
-2.36694e-07
-5.20024e-07
-2.08443e-07
-5.21916e-07
-1.80995e-07
-5.19899e-07
-1.54708e-07
-5.13853e-07
-1.29898e-07
-5.03674e-07
-1.06842e-07
-4.89254e-07
-8.57668e-08
-4.70473e-07
-6.68545e-08
-4.47189e-07
-5.02432e-08
-4.19239e-07
-3.60293e-08
-3.86448e-07
-2.42682e-08
-3.4866e-07
-1.49694e-08
-3.05787e-07
-8.08475e-09
-2.57877e-07
-3.48522e-09
-2.05225e-07
-9.24495e-10
-1.48516e-07
1.59059e-11
-8.9025e-08
-2.88486e-08
-4.39504e-07
1.53168e-07
-4.49662e-07
1.43179e-07
-4.59795e-07
1.32517e-07
-4.69872e-07
1.21124e-07
-4.79852e-07
1.08946e-07
-4.89689e-07
9.59236e-08
-4.99325e-07
8.19991e-08
-5.08694e-07
6.71132e-08
-5.17718e-07
5.12078e-08
-5.26308e-07
3.4227e-08
-5.34362e-07
1.61187e-08
-5.41767e-07
-3.16318e-09
-5.48394e-07
-2.36569e-08
-5.54105e-07
-4.53888e-08
-5.58747e-07
-6.83714e-08
-5.62156e-07
-9.25992e-08
-5.6416e-07
-1.18045e-07
-5.64579e-07
-1.44654e-07
-5.63232e-07
-1.72343e-07
-5.5994e-07
-2.00993e-07
-5.54531e-07
-2.30447e-07
-5.4685e-07
-2.60507e-07
-5.36764e-07
-2.90931e-07
-5.24174e-07
-3.21432e-07
-5.09018e-07
-3.51682e-07
-4.91287e-07
-3.81311e-07
-4.71029e-07
-4.09916e-07
-4.48358e-07
-4.37066e-07
-4.23455e-07
-4.62319e-07
-3.96573e-07
-4.85231e-07
-3.6803e-07
-5.05376e-07
-3.38203e-07
-5.22354e-07
-3.07516e-07
-5.35814e-07
-2.76427e-07
-5.45456e-07
-2.45408e-07
-5.51043e-07
-2.14926e-07
-5.52398e-07
-1.85428e-07
-5.49397e-07
-1.5732e-07
-5.4196e-07
-1.30961e-07
-5.30033e-07
-1.06648e-07
-5.13567e-07
-8.4619e-08
-4.92502e-07
-6.50506e-08
-4.66758e-07
-4.80643e-08
-4.36225e-07
-3.37299e-08
-4.00782e-07
-2.20678e-08
-3.60322e-07
-1.30459e-08
-3.14809e-07
-6.56702e-09
-2.64356e-07
-2.44415e-09
-2.09347e-07
-3.59566e-10
-1.506e-07
1.95415e-10
-8.95799e-08
-2.86532e-08
-4.49518e-07
1.63946e-07
-4.60351e-07
1.54012e-07
-4.71213e-07
1.43379e-07
-4.82074e-07
1.31985e-07
-4.92896e-07
1.19768e-07
-5.03633e-07
1.06661e-07
-5.14228e-07
9.25938e-08
-5.24613e-07
7.74978e-08
-5.34707e-07
6.13023e-08
-5.44418e-07
4.39383e-08
-5.53639e-07
2.53393e-08
-5.62246e-07
5.44421e-09
-5.70102e-07
-1.58009e-08
-5.77052e-07
-3.84387e-08
-5.82927e-07
-6.24971e-08
-5.8754e-07
-8.79855e-08
-5.90696e-07
-1.14889e-07
-5.92185e-07
-1.43165e-07
-5.91794e-07
-1.72734e-07
-5.89309e-07
-2.03479e-07
-5.84522e-07
-2.35235e-07
-5.77239e-07
-2.67789e-07
-5.67293e-07
-3.00877e-07
-5.54549e-07
-3.34176e-07
-5.38919e-07
-3.67312e-07
-5.20373e-07
-3.99857e-07
-4.9895e-07
-4.31339e-07
-4.74765e-07
-4.61251e-07
-4.48018e-07
-4.89065e-07
-4.18995e-07
-5.14255e-07
-3.88062e-07
-5.36309e-07
-3.55658e-07
-5.54758e-07
-3.22282e-07
-5.6919e-07
-2.88473e-07
-5.79265e-07
-2.54787e-07
-5.84729e-07
-2.21773e-07
-5.85411e-07
-1.89952e-07
-5.81218e-07
-1.59793e-07
-5.7212e-07
-1.31699e-07
-5.58127e-07
-1.05996e-07
-5.3927e-07
-8.29312e-08
-5.15567e-07
-6.26741e-08
-4.87015e-07
-4.53231e-08
-4.53576e-07
-3.09133e-08
-4.15192e-07
-1.94215e-08
-3.71814e-07
-1.07647e-08
-3.23465e-07
-4.78733e-09
-2.70333e-07
-1.23509e-09
-2.129e-07
2.89301e-10
-1.52125e-07
3.9902e-10
-8.96897e-08
-2.82541e-08
-4.59488e-07
1.75359e-07
-4.71014e-07
1.65539e-07
-4.82633e-07
1.54998e-07
-4.94316e-07
1.43668e-07
-5.06027e-07
1.31479e-07
-5.17721e-07
1.18354e-07
-5.29342e-07
1.04215e-07
-5.40822e-07
8.89779e-08
-5.5208e-07
7.25604e-08
-5.6302e-07
5.4878e-08
-5.73528e-07
3.58481e-08
-5.83476e-07
1.53916e-08
-5.92713e-07
-6.56389e-09
-6.01071e-07
-3.00809e-08
-6.08361e-07
-5.5207e-08
-6.14376e-07
-8.19706e-08
-6.1889e-07
-1.10375e-07
-6.21663e-07
-1.40391e-07
-6.22446e-07
-1.71952e-07
-6.20981e-07
-2.04943e-07
-6.1702e-07
-2.39196e-07
-6.10323e-07
-2.74486e-07
-6.00678e-07
-3.10522e-07
-5.87908e-07
-3.46946e-07
-5.7189e-07
-3.8333e-07
-5.52565e-07
-4.19182e-07
-5.29956e-07
-4.53948e-07
-5.04179e-07
-4.87029e-07
-4.75447e-07
-5.17796e-07
-4.44083e-07
-5.45619e-07
-4.10504e-07
-5.69887e-07
-3.75222e-07
-5.9004e-07
-3.3882e-07
-6.05592e-07
-3.01932e-07
-6.16153e-07
-2.65214e-07
-6.21448e-07
-2.29313e-07
-6.21312e-07
-1.94841e-07
-6.1569e-07
-1.62342e-07
-6.04619e-07
-1.32275e-07
-5.88194e-07
-1.05003e-07
-5.66542e-07
-8.07824e-08
-5.39787e-07
-5.97737e-08
-5.08024e-07
-4.20463e-08
-4.71303e-07
-2.7592e-08
-4.29646e-07
-1.63334e-08
-3.83073e-07
-8.12555e-09
-3.31673e-07
-2.74429e-09
-2.75714e-07
1.41973e-10
-2.15786e-07
1.02645e-09
-1.53009e-07
6.28519e-10
-8.92917e-08
-2.76256e-08
-4.69345e-07
1.87421e-07
-4.81587e-07
1.77781e-07
-4.9399e-07
1.67401e-07
-5.06531e-07
1.56209e-07
-5.19175e-07
1.44123e-07
-5.31881e-07
1.31061e-07
-5.44596e-07
1.16929e-07
-5.57252e-07
1.01635e-07
-5.6977e-07
8.50779e-08
-5.8205e-07
6.71583e-08
-5.93976e-07
4.77746e-08
-6.05412e-07
2.68271e-08
-6.16197e-07
4.22164e-09
-6.2615e-07
-2.01284e-08
-6.35062e-07
-4.62946e-08
-6.42703e-07
-7.43301e-08
-6.48817e-07
-1.04261e-07
-6.53128e-07
-1.3608e-07
-6.55345e-07
-1.69735e-07
-6.55165e-07
-2.05122e-07
-6.52287e-07
-2.42074e-07
-6.4642e-07
-2.80353e-07
-6.37299e-07
-3.19643e-07
-6.24695e-07
-3.59549e-07
-6.08439e-07
-3.99587e-07
-5.88434e-07
-4.39187e-07
-5.64679e-07
-4.77703e-07
-5.37282e-07
-5.14425e-07
-5.06471e-07
-5.48608e-07
-4.72598e-07
-5.79492e-07
-4.36139e-07
-6.06347e-07
-3.9768e-07
-6.28499e-07
-3.579e-07
-6.45372e-07
-3.17541e-07
-6.56512e-07
-2.77376e-07
-6.61613e-07
-2.3817e-07
-6.60518e-07
-2.00643e-07
-6.53218e-07
-1.65434e-07
-6.39828e-07
-1.33076e-07
-6.20552e-07
-1.03975e-07
-5.95643e-07
-7.8408e-08
-5.65354e-07
-5.6524e-08
-5.29908e-07
-3.83591e-08
-4.89468e-07
-2.38526e-08
-4.44153e-07
-1.28614e-08
-3.94064e-07
-5.16585e-09
-3.39369e-07
-4.59901e-10
-2.8042e-07
1.67899e-09
-2.17925e-07
1.84375e-09
-1.53174e-07
8.82076e-10
-8.83301e-08
-2.67435e-08
-4.7902e-07
2.00148e-07
-4.91995e-07
1.90756e-07
-5.05208e-07
1.80614e-07
-5.18638e-07
1.69639e-07
-5.32258e-07
1.57743e-07
-5.4603e-07
1.44832e-07
-5.59904e-07
1.30804e-07
-5.73818e-07
1.15549e-07
-5.87693e-07
9.89522e-08
-6.01429e-07
8.0895e-08
-6.1491e-07
6.12549e-08
-6.27992e-07
3.99089e-08
-6.40507e-07
1.67369e-08
-6.5226e-07
-8.37512e-09
-6.63026e-07
-3.55292e-08
-6.72547e-07
-6.48084e-08
-6.80539e-07
-9.62693e-08
-6.86687e-07
-1.29932e-07
-6.90653e-07
-1.65769e-07
-6.92083e-07
-2.03693e-07
-6.90616e-07
-2.43541e-07
-6.85903e-07
-2.85066e-07
-6.77613e-07
-3.27933e-07
-6.65459e-07
-3.71703e-07
-6.49212e-07
-4.15834e-07
-6.28728e-07
-4.59671e-07
-6.03971e-07
-5.0246e-07
-5.75031e-07
-5.43366e-07
-5.42139e-07
-5.815e-07
-5.05674e-07
-6.15957e-07
-4.66164e-07
-6.45857e-07
-4.24272e-07
-6.70391e-07
-3.80775e-07
-6.88868e-07
-3.36537e-07
-7.00751e-07
-2.92461e-07
-7.05688e-07
-2.49451e-07
-7.03527e-07
-2.08362e-07
-6.94307e-07
-1.69953e-07
-6.78237e-07
-1.34852e-07
-6.55653e-07
-1.03534e-07
-6.26961e-07
-7.63044e-08
-5.92584e-07
-5.33096e-08
-5.52902e-07
-3.45502e-08
-5.08228e-07
-1.99051e-08
-4.58798e-07
-9.15303e-09
-4.04816e-07
-1.985e-09
-3.46537e-07
2.0019e-09
-2.84407e-07
3.33495e-09
-2.19258e-07
2.72444e-09
-1.52563e-07
1.15482e-09
-8.67604e-08
-2.55887e-08
-4.88439e-07
2.13545e-07
-5.02161e-07
2.04479e-07
-5.16203e-07
1.94655e-07
-5.3055e-07
1.83986e-07
-5.45183e-07
1.72376e-07
-5.60069e-07
1.59719e-07
-5.75167e-07
1.45901e-07
-5.90417e-07
1.30799e-07
-6.05746e-07
1.14281e-07
-6.21057e-07
9.62061e-08
-6.36232e-07
7.64303e-08
-6.51127e-07
5.4804e-08
-6.65567e-07
3.11771e-08
-6.79346e-07
5.40378e-09
-6.92221e-07
-2.26543e-08
-7.03913e-07
-5.31167e-08
-7.14104e-07
-8.60783e-08
-7.2244e-07
-1.21596e-07
-7.28535e-07
-1.59675e-07
-7.31975e-07
-2.00253e-07
-7.32337e-07
-2.43179e-07
-7.29203e-07
-2.88201e-07
-7.22173e-07
-3.34963e-07
-7.10886e-07
-3.8299e-07
-6.95047e-07
-4.31674e-07
-6.74448e-07
-4.8027e-07
-6.49005e-07
-5.27903e-07
-6.18774e-07
-5.73596e-07
-5.83974e-07
-6.163e-07
-5.44996e-07
-6.54935e-07
-5.02403e-07
-6.8845e-07
-4.56924e-07
-7.15869e-07
-4.09434e-07
-7.36358e-07
-3.60915e-07
-7.49269e-07
-3.12419e-07
-7.54184e-07
-2.6501e-07
-7.50937e-07
-2.19706e-07
-7.39611e-07
-1.77425e-07
-7.20519e-07
-1.38928e-07
-6.94149e-07
-1.04791e-07
-6.61099e-07
-7.53758e-08
-6.21999e-07
-5.08428e-08
-5.77435e-07
-3.11628e-08
-5.27908e-07
-1.61499e-08
-4.73811e-07
-5.49286e-09
-4.15473e-07
1.22361e-09
-3.53253e-07
4.51822e-09
-2.87702e-07
5.04081e-09
-2.19781e-07
3.63547e-09
-1.51158e-07
1.43754e-09
-8.45625e-08
-2.41512e-08
-4.97525e-07
2.27614e-07
-5.12e-07
2.18954e-07
-5.26882e-07
2.09537e-07
-5.42167e-07
1.99271e-07
-5.57842e-07
1.88051e-07
-5.73886e-07
1.75763e-07
-5.90264e-07
1.62279e-07
-6.06926e-07
1.47461e-07
-6.23803e-07
1.31158e-07
-6.40806e-07
1.13209e-07
-6.57821e-07
9.34449e-08
-6.74703e-07
7.16859e-08
-6.91275e-07
4.77492e-08
-7.07322e-07
2.14509e-08
-7.22589e-07
-7.38728e-09
-7.36775e-07
-3.8931e-08
-7.49533e-07
-7.33203e-08
-7.6047e-07
-1.10659e-07
-7.69149e-07
-1.50996e-07
-7.75096e-07
-1.94305e-07
-7.7782e-07
-2.40455e-07
-7.7683e-07
-2.89191e-07
-7.71653e-07
-3.4014e-07
-7.61846e-07
-3.92796e-07
-7.47034e-07
-4.46487e-07
-7.26934e-07
-5.0037e-07
-7.01392e-07
-5.53445e-07
-6.70409e-07
-6.04579e-07
-6.34163e-07
-6.52546e-07
-5.93024e-07
-6.96075e-07
-5.4756e-07
-7.33913e-07
-4.98537e-07
-7.64892e-07
-4.46903e-07
-7.87993e-07
-3.93753e-07
-8.02419e-07
-3.4029e-07
-8.07648e-07
-2.87761e-07
-8.03465e-07
-2.37391e-07
-7.89981e-07
-1.90303e-07
-7.67607e-07
-1.47451e-07
-7.37001e-07
-1.09565e-07
-6.98985e-07
-7.71162e-08
-6.54448e-07
-5.03102e-08
-6.04241e-07
-2.91081e-08
-5.4911e-07
-1.32626e-08
-4.89656e-07
-2.36231e-09
-4.26373e-07
4.13302e-09
-3.59749e-07
6.88066e-09
-2.90449e-07
6.67719e-09
-2.19577e-07
4.52108e-09
-1.49002e-07
1.71472e-09
-8.17561e-08
-2.24365e-08
-5.06192e-07
2.42346e-07
-5.21416e-07
2.34177e-07
-5.37142e-07
2.25263e-07
-5.53376e-07
2.15505e-07
-5.70116e-07
2.04792e-07
-5.87352e-07
1.92999e-07
-6.05059e-07
1.79986e-07
-6.23199e-07
1.65601e-07
-6.41714e-07
1.49673e-07
-6.60524e-07
1.32019e-07
-6.79521e-07
1.12443e-07
-6.98568e-07
9.07325e-08
-7.17488e-07
6.66691e-08
-7.36063e-07
4.00263e-08
-7.54029e-07
1.0579e-08
-7.7107e-07
-2.18901e-08
-7.86814e-07
-5.7577e-08
-8.00832e-07
-9.66402e-08
-8.12643e-07
-1.39185e-07
-8.21713e-07
-1.85235e-07
-8.2748e-07
-2.34687e-07
-8.29385e-07
-2.87286e-07
-8.26879e-07
-3.42646e-07
-8.19437e-07
-4.00238e-07
-8.06591e-07
-4.59333e-07
-7.87966e-07
-5.18994e-07
-7.63316e-07
-5.78095e-07
-7.32549e-07
-6.35346e-07
-6.95756e-07
-6.89339e-07
-6.5323e-07
-7.38601e-07
-6.05487e-07
-7.81657e-07
-5.53272e-07
-8.17107e-07
-4.97558e-07
-8.43707e-07
-4.39526e-07
-8.60451e-07
-3.80525e-07
-8.66649e-07
-3.22008e-07
-8.61981e-07
-2.65452e-07
-8.46537e-07
-2.12258e-07
-8.20801e-07
-1.63656e-07
-7.85603e-07
-1.2062e-07
-7.42022e-07
-8.38061e-08
-6.91261e-07
-5.35326e-08
-6.34515e-07
-2.97898e-08
-5.72853e-07
-1.2286e-08
-5.0716e-07
-5.05062e-10
-4.38154e-07
6.23836e-09
-3.66492e-07
8.7693e-09
-2.9298e-07
8.06175e-09
-2.1887e-07
5.29647e-09
-1.46237e-07
1.96283e-09
-7.84225e-08
-2.04736e-08
-5.1435e-07
2.57721e-07
-5.30308e-07
2.50135e-07
-5.4687e-07
2.41824e-07
-5.64052e-07
2.32687e-07
-5.81867e-07
2.22607e-07
-6.00317e-07
2.11448e-07
-6.19392e-07
1.99061e-07
-6.39067e-07
1.85276e-07
-6.593e-07
1.69906e-07
-6.80024e-07
1.52743e-07
-7.01144e-07
1.33563e-07
-7.22533e-07
1.12121e-07
-7.44022e-07
8.81586e-08
-7.65399e-07
6.14028e-08
-7.86395e-07
3.15754e-08
-8.06688e-07
-1.59675e-09
-8.25889e-07
-3.83765e-08
-8.43546e-07
-7.89835e-08
-8.5914e-07
-1.23591e-07
-8.72089e-07
-1.72286e-07
-8.8177e-07
-2.25006e-07
-8.87562e-07
-2.81495e-07