/*--------------------------------*- C++ -*----------------------------------*\
  =========                 |
  \\      /  F ield         | OpenFOAM: The Open Source CFD Toolbox
   \\    /   O peration     | Website:  https://openfoam.org
    \\  /    A nd           | Version:  9
     \\/     M anipulation  |
\*---------------------------------------------------------------------------*/
FoamFile
{
    format      ascii;
    class       volVectorField;
    location    "0.25";
    object      U;
}
// * * * * * * * * * * * * * * * * * * * * * * * * * * * * * * * * * * * * * //

dimensions      [0 1 -1 0 0 0 0];

internalField   nonuniform List<vector> 
1240
(
(-0.0308883 0.00187114 0)
(-0.0310908 0.00109532 0)
(-0.0312566 0.000297607 0)
(-0.031383 -0.000521782 0)
(-0.0314683 -0.00136275 0)
(-0.0316708 0.00210302 0)
(-0.0318989 0.00129116 0)
(-0.032089 0.000455019 0)
(-0.032239 -0.00040516 0)
(-0.0323453 -0.001289 0)
(-0.032408 -0.00219656 0)
(-0.0265511 -0.0170931 0)
(-0.0256575 -0.0180101 0)
(-0.0247042 -0.018892 0)
(-0.0236937 -0.0197335 0)
(-0.0226297 -0.0205292 0)
(-0.0215159 -0.0212733 0)
(-0.020357 -0.0219594 0)
(-0.019158 -0.0225807 0)
(-0.0179245 -0.0231297 0)
(-0.0166627 -0.0235977 0)
(-0.0153794 -0.0239746 0)
(-0.0140819 -0.0242489 0)
(-0.012778 -0.024407 0)
(-0.0114763 -0.0244332 0)
(-0.0101861 -0.0243093 0)
(-0.00891714 -0.0240143 0)
(-0.0076803 -0.023525 0)
(-0.00648714 -0.0228152 0)
(-0.00535012 -0.021857 0)
(-0.00428266 -0.0206206 0)
(-0.00329899 -0.0190759 0)
(-0.00241417 -0.0171933 0)
(-0.00164382 -0.0149461 0)
(-0.00100333 -0.012313 0)
(-0.000505952 -0.00928166 0)
(-0.000167373 -0.00585463 0)
(-2.01282e-05 -0.00205638 0)
(-0.0324902 0.00236153 0)
(-0.0327458 0.00151312 0)
(-0.0329628 0.000637689 0)
(-0.033139 -0.000264585 0)
(-0.0332714 -0.00119304 0)
(-0.0333563 -0.00214731 0)
(-0.0333936 -0.00312705 0)
(-0.0333796 -0.00413077 0)
(-0.0333118 -0.00515619 0)
(-0.0331875 -0.0062007 0)
(-0.0330041 -0.00726158 0)
(-0.032759 -0.0083359 0)
(-0.0324501 -0.00942041 0)
(-0.0320753 -0.0105116 0)
(-0.031633 -0.0116054 0)
(-0.031122 -0.0126978 0)
(-0.0305413 -0.0137842 0)
(-0.0298906 -0.0148597 0)
(-0.0291698 -0.0159193 0)
(-0.0283796 -0.0169578 0)
(-0.0275212 -0.0179697 0)
(-0.0265964 -0.0189498 0)
(-0.025607 -0.0198922 0)
(-0.0245562 -0.0207911 0)
(-0.023448 -0.0216402 0)
(-0.0222865 -0.0224332 0)
(-0.0210769 -0.0231633 0)
(-0.0198248 -0.0238229 0)
(-0.0185363 -0.024404 0)
(-0.0172184 -0.0248973 0)
(-0.0158784 -0.0252922 0)
(-0.0145244 -0.0255765 0)
(-0.013165 -0.0257361 0)
(-0.0118094 -0.0257546 0)
(-0.0104675 -0.0256131 0)
(-0.0091499 -0.0252899 0)
(-0.00786796 -0.0247608 0)
(-0.00663379 -0.0239991 0)
(-0.00546033 -0.0229758 0)
(-0.00436137 -0.0216603 0)
(-0.00335146 -0.0200217 0)
(-0.00244579 -0.01803 0)
(-0.00166001 -0.0156581 0)
(-0.00100932 -0.0128851 0)
(-0.000506461 -0.0097003 0)
(-0.000166233 -0.00610896 0)
(-1.95492e-05 -0.00214052 0)
(-0.0333448 0.00264877 0)
(-0.0336303 0.00176356 0)
(-0.0338768 0.000848363 0)
(-0.034082 -9.67133e-05 0)
(-0.0342428 -0.00107097 0)
(-0.0343558 -0.00207369 0)
(-0.0344181 -0.0031042 0)
(-0.0344275 -0.00416131 0)
(-0.0343809 -0.00524295 0)
(-0.0342753 -0.00634653 0)
(-0.0341079 -0.00746923 0)
(-0.0338756 -0.00860788 0)
(-0.033576 -0.009759 0)
(-0.0332067 -0.0109187 0)
(-0.0327658 -0.0120828 0)
(-0.0322515 -0.0132466 0)
(-0.0316629 -0.0144052 0)
(-0.0309991 -0.0155532 0)
(-0.0302602 -0.016685 0)
(-0.0294465 -0.0177947 0)
(-0.0285593 -0.0188767 0)
(-0.0276001 -0.0199246 0)
(-0.0265716 -0.0209322 0)
(-0.0254772 -0.0218926 0)
(-0.0243209 -0.022799 0)
(-0.0231076 -0.0236444 0)
(-0.0218429 -0.0244212 0)
(-0.0205328 -0.0251214 0)
(-0.0191845 -0.0257362 0)
(-0.0178054 -0.0262557 0)
(-0.0164038 -0.0266686 0)
(-0.0149885 -0.0269624 0)
(-0.0135689 -0.0271221 0)
(-0.0121551 -0.0271307 0)
(-0.0107578 -0.0269687 0)
(-0.00938814 -0.0266138 0)
(-0.00805823 -0.0260411 0)
(-0.00678074 -0.0252228 0)
(-0.0055691 -0.0241293 0)
(-0.00443747 -0.0227294 0)
(-0.00340067 -0.0209913 0)
(-0.00247403 -0.0188848 0)
(-0.00167313 -0.0163827 0)
(-0.00101287 -0.0134648 0)
(-0.000505395 -0.0101221 0)
(-0.000164395 -0.00636338 0)
(-1.88291e-05 -0.00222369 0)
(-0.0342346 0.00296716 0)
(-0.0345526 0.00204506 0)
(-0.0348315 0.00108975 0)
(-0.0350685 0.000101359 0)
(-0.0352603 -0.000919466 0)
(-0.0354035 -0.00197196 0)
(-0.0354948 -0.0030552 0)
(-0.0355309 -0.00416792 0)
(-0.0355088 -0.00530824 0)
(-0.035425 -0.00647365 0)
(-0.0352762 -0.00766123 0)
(-0.0350593 -0.00886766 0)
(-0.0347713 -0.0100892 0)
(-0.0344095 -0.0113217 0)
(-0.0339713 -0.0125606 0)
(-0.0334549 -0.0138007 0)
(-0.0328588 -0.0150366 0)
(-0.0321821 -0.0162624 0)
(-0.0314243 -0.0174719 0)
(-0.0305859 -0.0186588 0)
(-0.0296679 -0.0198162 0)
(-0.0286723 -0.0209374 0)
(-0.0276019 -0.0220151 0)
(-0.0264603 -0.0230418 0)
(-0.025252 -0.0240098 0)
(-0.0239823 -0.0249114 0)
(-0.0226574 -0.0257382 0)
(-0.0212842 -0.0264814 0)
(-0.0198705 -0.0271315 0)
(-0.0184247 -0.027678 0)
(-0.016956 -0.0281091 0)
(-0.0154741 -0.0284114 0)
(-0.0139894 -0.0285695 0)
(-0.0125128 -0.0285658 0)
(-0.0110558 -0.02838 0)
(-0.00963049 -0.0279894 0)
(-0.0082496 -0.0273682 0)
(-0.00692641 -0.0264882 0)
(-0.00567486 -0.025319 0)
(-0.00450948 -0.0238286 0)
(-0.00344533 -0.021985 0)
(-0.00249779 -0.0197575 0)
(-0.00168232 -0.0171193 0)
(-0.00101339 -0.0140511 0)
(-0.000502411 -0.0105461 0)
(-0.000161725 -0.00661708 0)
(-1.79433e-05 -0.0023055 0)
(-0.03516 0.00331948 0)
(-0.0355135 0.00236042 0)
(-0.0358275 0.00136465 0)
(-0.0360993 0.000332363 0)
(-0.0363252 -0.000735852 0)
(-0.0365015 -0.00183923 0)
(-0.0366246 -0.00297681 0)
(-0.0366908 -0.0041473 0)
(-0.0366964 -0.00534883 0)
(-0.0366377 -0.00657896 0)
(-0.0365109 -0.00783471 0)
(-0.0363124 -0.00911264 0)
(-0.0360387 -0.0104088 0)
(-0.0356866 -0.0117187 0)
(-0.0352533 -0.0130372 0)
(-0.0347362 -0.014359 0)
(-0.0341336 -0.015678 0)
(-0.0334442 -0.0169876 0)
(-0.0326674 -0.0182811 0)
(-0.0318033 -0.0195511 0)
(-0.0308531 -0.0207903 0)
(-0.0298188 -0.0219907 0)
(-0.0287033 -0.0231442 0)
(-0.0275107 -0.0242426 0)
(-0.0262459 -0.0252771 0)
(-0.0249147 -0.0262392 0)
(-0.0235241 -0.0271195 0)
(-0.0220819 -0.0279084 0)
(-0.0205967 -0.0285958 0)
(-0.019078 -0.0291702 0)
(-0.0175361 -0.0296194 0)
(-0.0159816 -0.0299291 0)
(-0.0144261 -0.0300835 0)
(-0.0128815 -0.0300644 0)
(-0.0113603 -0.029851 0)
(-0.00987536 -0.02942 0)
(-0.00844027 -0.0287451 0)
(-0.00706891 -0.0277975 0)
(-0.00577574 -0.0265462 0)
(-0.00457564 -0.0249588 0)
(-0.00348385 -0.0230029 0)
(-0.00251575 -0.0206477 0)
(-0.00168655 -0.0178671 0)
(-0.00101017 -0.0146429 0)
(-0.000497086 -0.0109711 0)
(-0.000158049 -0.00686901 0)
(-1.68604e-05 -0.00238544 0)
(-0.0356947 0.00466516 0)
(-0.0361217 0.00370868 0)
(-0.0365135 0.00271253 0)
(-0.0368655 0.00167594 0)
(-0.0371752 0.00059924 0)
(-0.0374385 -0.000517062 0)
(-0.0376515 -0.00167236 0)
(-0.03781 -0.00286577 0)
(-0.0379099 -0.00409599 0)
(-0.0379471 -0.00536122 0)
(-0.0379172 -0.00665901 0)
(-0.037816 -0.00798639 0)
(-0.0376393 -0.00933975 0)
(-0.0373831 -0.0107149 0)
(-0.0370436 -0.0121071 0)
(-0.0366174 -0.0135109 0)
(-0.0361016 -0.0149202 0)
(-0.0354938 -0.0163285 0)
(-0.0347923 -0.0177286 0)
(-0.0339963 -0.0191128 0)
(-0.0331058 -0.0204731 0)
(-0.0321217 -0.0218008 0)
(-0.0310461 -0.0230873 0)
(-0.0298822 -0.0243233 0)
(-0.0286344 -0.0254994 0)
(-0.027308 -0.026606 0)
(-0.0259096 -0.0276333 0)
(-0.0244471 -0.0285711 0)
(-0.0229292 -0.0294089 0)
(-0.0213656 -0.0301355 0)
(-0.019767 -0.0307388 0)
(-0.0181448 -0.0312057 0)
(-0.0165111 -0.0315215 0)
(-0.0148785 -0.0316697 0)
(-0.0132602 -0.0316317 0)
(-0.0116696 -0.0313862 0)
(-0.0101209 -0.0309094 0)
(-0.00862813 -0.0301746 0)
(-0.00720605 -0.0291527 0)
(-0.00586957 -0.0278121 0)
(-0.00463391 -0.0261204 0)
(-0.00351443 -0.0240448 0)
(-0.0025264 -0.0215547 0)
(-0.00168465 -0.0186248 0)
(-0.00100239 -0.0152388 0)
(-0.000488944 -0.0113956 0)
(-0.000153181 -0.00711793 0)
(-1.5547e-05 -0.00246294 0)
(-0.0366515 0.00512744 0)
(-0.0371199 0.00413766 0)
(-0.0375523 0.00310429 0)
(-0.0379458 0.0020268 0)
(-0.0382969 0.000905472 0)
(-0.0386014 -0.000259465 0)
(-0.0388549 -0.00146761 0)
(-0.0390529 -0.00271821 0)
(-0.0391907 -0.00401006 0)
(-0.0392637 -0.00534142 0)
(-0.0392669 -0.00670989 0)
(-0.0391954 -0.00811245 0)
(-0.0390446 -0.00954541 0)
(-0.0388096 -0.0110044 0)
(-0.038486 -0.0124842 0)
(-0.0380699 -0.0139791 0)
(-0.0375577 -0.0154825 0)
(-0.0369464 -0.0169871 0)
(-0.0362339 -0.018485 0)
(-0.0354189 -0.0199676 0)
(-0.0345011 -0.0214258 0)
(-0.0334814 -0.02285 0)
(-0.0323618 -0.0242302 0)
(-0.0311458 -0.0255561 0)
(-0.0298379 -0.026817 0)
(-0.0284444 -0.028002 0)
(-0.0269725 -0.0291002 0)
(-0.025431 -0.0301001 0)
(-0.0238298 -0.0309901 0)
(-0.02218 -0.0317581 0)
(-0.0204935 -0.0323912 0)
(-0.0187832 -0.0328754 0)
(-0.0170626 -0.0331955 0)
(-0.0153459 -0.0333345 0)
(-0.0136474 -0.0332733 0)
(-0.011982 -0.0329903 0)
(-0.0103647 -0.0324615 0)
(-0.00881067 -0.0316598 0)
(-0.00733522 -0.0305559 0)
(-0.00595381 -0.0291182 0)
(-0.00468192 -0.0273138 0)
(-0.00353496 -0.0251102 0)
(-0.00252798 -0.0224774 0)
(-0.00167527 -0.019391 0)
(-0.000989112 -0.0158369 0)
(-0.000477451 -0.0118177 0)
(-0.000146909 -0.00736233 0)
(-1.3967e-05 -0.00253729 0)
(-0.0359384 0.00843679 0)
(-0.0365307 0.00754317 0)
(-0.0370994 0.00660905 0)
(-0.0376416 0.00563189 0)
(-0.0381532 0.00460905 0)
(-0.0386298 0.00353882 0)
(-0.0390684 0.00242082 0)
(-0.0394648 0.00125492 0)
(-0.0398147 4.10266e-05 0)
(-0.0401131 -0.00122071 0)
(-0.0403552 -0.00252974 0)
(-0.0405357 -0.00388502 0)
(-0.0406493 -0.0052849 0)
(-0.0406904 -0.00672708 0)
(-0.0406535 -0.00820853 0)
(-0.0405331 -0.00972547 0)
(-0.0403237 -0.0112733 0)
(-0.0400201 -0.0128466 0)
(-0.0396176 -0.0144391 0)
(-0.0391119 -0.0160436 0)
(-0.0384993 -0.0176522 0)
(-0.0377771 -0.0192561 0)
(-0.0369435 -0.0208456 0)
(-0.0359978 -0.0224106 0)
(-0.0349407 -0.0239402 0)
(-0.0337743 -0.025423 0)
(-0.032502 -0.0268472 0)
(-0.031129 -0.0282009 0)
(-0.0296621 -0.0294716 0)
(-0.0281095 -0.0306468 0)
(-0.026481 -0.031714 0)
(-0.024788 -0.0326602 0)
(-0.0230429 -0.033472 0)
(-0.0212594 -0.0341358 0)
(-0.0194521 -0.0346367 0)
(-0.0176361 -0.0349589 0)
(-0.0158273 -0.035085 0)
(-0.0140415 -0.0349955 0)
(-0.0122951 -0.0346689 0)
(-0.0106041 -0.0340807 0)
(-0.00898487 -0.033204 0)
(-0.00745334 -0.0320094 0)
(-0.00602545 -0.0304653 0)
(-0.0047169 -0.028539 0)
(-0.00354302 -0.0261985 0)
(-0.00251849 -0.0234143 0)
(-0.00165687 -0.0201636 0)
(-0.000969284 -0.0164349 0)
(-0.000462001 -0.0122353 0)
(-0.000138996 -0.00760045 0)
(-1.20799e-05 -0.00260767 0)
(-0.0368249 0.00906028 0)
(-0.0374614 0.0081453 0)
(-0.0380747 0.00718651 0)
(-0.0386625 0.00618092 0)
(-0.0392204 0.00512585 0)
(-0.0397451 0.00401979 0)
(-0.0402328 0.00286202 0)
(-0.040679 0.0016519 0)
(-0.0410789 0.000388982 0)
(-0.0414273 -0.00092689 0)
(-0.0417186 -0.00229543 0)
(-0.0419472 -0.00371579 0)
(-0.0421068 -0.00518653 0)
(-0.0421914 -0.00670545 0)
(-0.0421946 -0.00826957 0)
(-0.0421099 -0.00987505 0)
(-0.0419313 -0.0115171 0)
(-0.0416525 -0.0131901 0)
(-0.0412678 -0.0148872 0)
(-0.0407722 -0.0166007 0)
(-0.0401611 -0.0183218 0)
(-0.0394311 -0.0200407 0)
(-0.0385796 -0.0217468 0)
(-0.0376057 -0.0234286 0)
(-0.0365095 -0.0250736 0)
(-0.0352931 -0.0266691 0)
(-0.0339601 -0.0282015 0)
(-0.0325163 -0.0296571 0)
(-0.030969 -0.0310218 0)
(-0.0293275 -0.0322814 0)
(-0.027603 -0.0334218 0)
(-0.0258084 -0.0344284 0)
(-0.0239579 -0.0352869 0)
(-0.0220671 -0.0359822 0)
(-0.0201525 -0.0364989 0)
(-0.0182314 -0.0368205 0)
(-0.0163214 -0.0369292 0)
(-0.0144403 -0.0368055 0)
(-0.0126059 -0.0364277 0)
(-0.0108358 -0.0357716 0)
(-0.00914712 -0.0348105 0)
(-0.00755672 -0.0335152 0)
(-0.00608094 -0.0318544 0)
(-0.00473559 -0.029796 0)
(-0.00353577 -0.0273084 0)
(-0.0024956 -0.0243634 0)
(-0.00162768 -0.0209401 0)
(-0.000941691 -0.0170301 0)
(-0.000441901 -0.0126455 0)
(-0.000129174 -0.00783017 0)
(-9.84063e-06 -0.00267315 0)
(-0.0377319 0.00972791 0)
(-0.0384142 0.0087928 0)
(-0.0390749 0.00781043 0)
(-0.0397113 0.00677768 0)
(-0.04032 0.00569194 0)
(-0.0408971 0.00455145 0)
(-0.0414385 0.00335492 0)
(-0.0419393 0.00210121 0)
(-0.0423945 0.000789474 0)
(-0.0427983 -0.000580811 0)
(-0.0431446 -0.00200969 0)
(-0.0434271 -0.00349664 0)
(-0.043639 -0.00504044 0)
(-0.0437734 -0.00663909 0)
(-0.0438229 -0.00828974 0)
(-0.0437804 -0.00998852 0)
(-0.0436384 -0.0117306 0)
(-0.04339 -0.0135098 0)
(-0.0430283 -0.0153192 0)
(-0.0425472 -0.0171502 0)
(-0.0419412 -0.0189932 0)
(-0.0412058 -0.0208374 0)
(-0.0403378 -0.0226709 0)
(-0.0393355 -0.0244807 0)
(-0.0381986 -0.0262528 0)
(-0.0369291 -0.0279724 0)
(-0.0355308 -0.0296241 0)
(-0.0340098 -0.0311922 0)
(-0.0323742 -0.0326606 0)
(-0.0306347 -0.034013 0)
(-0.028804 -0.0352333 0)
(-0.0268966 -0.0363055 0)
(-0.0249289 -0.0372136 0)
(-0.0229189 -0.0379414 0)
(-0.0208854 -0.0384726 0)
(-0.0188479 -0.0387902 0)
(-0.0168265 -0.0388761 0)
(-0.014841 -0.038711 0)
(-0.012911 -0.0382733 0)
(-0.0110556 -0.0375393 0)
(-0.00929311 -0.0364829 0)
(-0.00764105 -0.0350754 0)
(-0.00611615 -0.0332862 0)
(-0.0047342 -0.0310839 0)
(-0.00350992 -0.0284382 0)
(-0.00245663 -0.0253222 0)
(-0.00158567 -0.0217173 0)
(-0.000904955 -0.017619 0)
(-0.000416372 -0.0130454 0)
(-0.000117143 -0.00804905 0)
(-7.19901e-06 -0.00273263 0)
(-0.0386557 0.0104417 0)
(-0.0393864 0.00948822 0)
(-0.0400977 0.00848413 0)
(-0.0407869 0.00742622 0)
(-0.0414505 0.00631174 0)
(-0.0420845 0.00513843 0)
(-0.0426845 0.00390443 0)
(-0.0432453 0.0026081 0)
(-0.0437613 0.00124808 0)
(-0.0442265 -0.000176581 0)
(-0.0446343 -0.00166635 0)
(-0.0449775 -0.00322111 0)
(-0.0452487 -0.00484 0)
(-0.0454399 -0.00652129 0)
(-0.0455431 -0.00826231 0)
(-0.0455498 -0.0100593 0)
(-0.0454516 -0.0119072 0)
(-0.0452402 -0.0137999 0)
(-0.0449077 -0.0157297 0)
(-0.0444465 -0.0176876 0)
(-0.04385 -0.019663 0)
(-0.0431126 -0.0216439 0)
(-0.04223 -0.0236171 0)
(-0.0411996 -0.0255677 0)
(-0.0400208 -0.0274799 0)
(-0.0386951 -0.0293369 0)
(-0.0372263 -0.031121 0)
(-0.0356211 -0.0328138 0)
(-0.0338886 -0.034397 0)
(-0.0320407 -0.0358519 0)
(-0.0300919 -0.0371602 0)
(-0.0280589 -0.0383037 0)
(-0.0259607 -0.0392648 0)
(-0.0238177 -0.040026 0)
(-0.0216518 -0.04057 0)
(-0.0194852 -0.0408794 0)
(-0.0173407 -0.0409361 0)
(-0.0152405 -0.0407209 0)
(-0.0132064 -0.0402129 0)
(-0.011259 -0.0393894 0)
(-0.00941782 -0.0382249 0)
(-0.00770126 -0.0366919 0)
(-0.00612624 -0.034761 0)
(-0.00470836 -0.0324019 0)
(-0.00346171 -0.0295856 0)
(-0.00239852 -0.0262874 0)
(-0.00152853 -0.0224915 0)
(-0.000857518 -0.0181978 0)
(-0.000384535 -0.013431 0)
(-0.000102565 -0.0082542 0)
(-4.09919e-06 -0.00278485 0)
(-0.0395945 0.011204 0)
(-0.0403763 0.0102346 0)
(-0.0411415 0.00921128 0)
(-0.0418874 0.00813068 0)
(-0.0426102 0.00698969 0)
(-0.0433059 0.00578556 0)
(-0.0439695 0.00451582 0)
(-0.0445959 0.00317825 0)
(-0.045179 0.00177093 0)
(-0.0457122 0.000292354 0)
(-0.0461884 -0.00125848 0)
(-0.0465998 -0.00288197 0)
(-0.0469381 -0.00457771 0)
(-0.0471944 -0.00634436 0)
(-0.0473594 -0.00817955 0)
(-0.0474237 -0.0100797 0)
(-0.0473776 -0.0120398 0)
(-0.0472112 -0.0140534 0)
(-0.0469151 -0.0161126 0)
(-0.0464805 -0.0182076 0)
(-0.0458992 -0.0203268 0)
(-0.045164 -0.0224572 0)
(-0.0442696 -0.0245837 0)
(-0.0432123 -0.0266898 0)
(-0.0419905 -0.0287573 0)
(-0.0406054 -0.0307669 0)
(-0.0390608 -0.0326982 0)
(-0.0373639 -0.0345301 0)
(-0.0355247 -0.0362412 0)
(-0.0335567 -0.03781 0)
(-0.0314764 -0.0392154 0)
(-0.0293031 -0.040437 0)
(-0.0270588 -0.041455 0)
(-0.0247672 -0.0422505 0)
(-0.0224533 -0.0428053 0)
(-0.0201429 -0.0431014 0)
(-0.0178618 -0.0431209 0)
(-0.0156352 -0.0428453 0)
(-0.0134872 -0.0422547 0)
(-0.0114403 -0.0413277 0)
(-0.00951544 -0.0400403 0)
(-0.00773154 -0.0383666 0)
(-0.0061057 -0.0362787 0)
(-0.0046531 -0.0337481 0)
(-0.00338688 -0.0307476 0)
(-0.00231782 -0.0272551 0)
(-0.00145369 -0.0232581 0)
(-0.000797648 -0.0187616 0)
(-0.000345417 -0.0137981 0)
(-8.507e-05 -0.00844231 0)
(-4.80045e-07 -0.00282836 0)
(-0.0405457 0.0120176 0)
(-0.0413817 0.0110351 0)
(-0.0422043 0.00999554 0)
(-0.0430106 0.00889513 0)
(-0.0437971 0.00773035 0)
(-0.0445592 0.00649788 0)
(-0.045292 0.00519464 0)
(-0.0459899 0.00381775 0)
(-0.0466466 0.00236464 0)
(-0.0472551 0.000833126 0)
(-0.0478075 -0.00077847 0)
(-0.0482953 -0.00247116 0)
(-0.0487094 -0.00424512 0)
(-0.0490399 -0.00609957 0)
(-0.0492764 -0.00803255 0)
(-0.0494079 -0.0100408 0)
(-0.0494233 -0.0121194 0)
(-0.0493113 -0.014262 0)
(-0.0490606 -0.01646 0)
(-0.0486606 -0.0187032 0)
(-0.0481014 -0.0209791 0)
(-0.0473742 -0.0232732 0)
(-0.0464719 -0.0255686 0)
(-0.0453895 -0.0278467 0)
(-0.0441244 -0.0300868 0)
(-0.042677 -0.0322666 0)
(-0.0410512 -0.0343626 0)
(-0.0392542 -0.0363502 0)
(-0.0372975 -0.0382045 0)
(-0.0351962 -0.0399005 0)
(-0.0329691 -0.0414141 0)
(-0.0306388 -0.0427216 0)
(-0.0282305 -0.0438011 0)
(-0.0257718 -0.0446318 0)
(-0.023292 -0.0451945 0)
(-0.0208207 -0.045471 0)
(-0.0183876 -0.0454438 0)
(-0.0160211 -0.0450954 0)
(-0.0137483 -0.0444076 0)
(-0.0115936 -0.0433608 0)
(-0.00957949 -0.0419333 0)
(-0.0077254 -0.0401012 0)
(-0.00604838 -0.037839 0)
(-0.00456287 -0.0351203 0)
(-0.00328069 -0.0319204 0)
(-0.00221075 -0.0282202 0)
(-0.00135833 -0.0240114 0)
(-0.000723454 -0.0193047 0)
(-0.000297965 -0.0141416 0)
(-6.42562e-05 -0.00860955 0)
(3.72448e-06 -0.00286149 0)
(-0.0415064 0.0128852 0)
(-0.0423996 0.011893 0)
(-0.0432829 0.0108406 0)
(-0.0441537 0.0097237 0)
(-0.0450082 0.00853836 0)
(-0.0458418 0.00728064 0)
(-0.0466494 0.00594675 0)
(-0.0474253 0.00453309 0)
(-0.0481627 0.00303633 0)
(-0.0488541 0.00145347 0)
(-0.0494911 -0.00021794 0)
(-0.0500646 -0.00197968 0)
(-0.0505644 -0.00383273 0)
(-0.0509794 -0.00577699 0)
(-0.0512981 -0.00781112 0)
(-0.0515079 -0.00993229 0)
(-0.0515961 -0.012136 0)
(-0.0515495 -0.0144157 0)
(-0.0513548 -0.0167628 0)
(-0.0509994 -0.0191663 0)
(-0.0504711 -0.0216128 0)
(-0.0497591 -0.0240863 0)
(-0.0488543 -0.0265682 0)
(-0.0477499 -0.0290371 0)
(-0.0464419 -0.0314697 0)
(-0.0449298 -0.0338401 0)
(-0.0432171 -0.0361211 0)
(-0.0413115 -0.0382839 0)
(-0.0392254 -0.0402995 0)
(-0.0369759 -0.0421387 0)
(-0.0345848 -0.0437732 0)
(-0.032078 -0.0451761 0)
(-0.0294851 -0.0463224 0)
(-0.0268383 -0.0471893 0)
(-0.0241716 -0.0477566 0)
(-0.0215196 -0.0480059 0)
(-0.0189165 -0.0479204 0)
(-0.0163947 -0.0474844 0)
(-0.0139844 -0.0466819 0)
(-0.0117127 -0.0454961 0)
(-0.00960316 -0.0439081 0)
(-0.00767595 -0.0418972 0)
(-0.00594771 -0.0394407 0)
(-0.00443176 -0.0365153 0)
(-0.0031381 -0.0330992 0)
(-0.00207325 -0.029177 0)
(-0.00123944 -0.024745 0)
(-0.000632939 -0.0198208 0)
(-0.00024107 -0.0144556 0)
(-3.97024e-05 -0.00875154 0)
(8.58602e-06 -0.00288239 0)
(-0.0424732 0.0138097 0)
(-0.0434266 0.0128115 0)
(-0.0443742 0.0117501 0)
(-0.0453133 0.0106206 0)
(-0.0462403 0.00941854 0)
(-0.0471505 0.00813929 0)
(-0.0480389 0.00677832 0)
(-0.0488993 0.00533119 0)
(-0.0497249 0.00379367 0)
(-0.0505076 0.00216188 0)
(-0.0512386 0.000432377 0)
(-0.0519077 -0.00139757 0)
(-0.052504 -0.00332989 0)
(-0.0530153 -0.0053654 0)
(-0.0534284 -0.00750355 0)
(-0.0537293 -0.00974222 0)
(-0.0539033 -0.0120774 0)
(-0.0539351 -0.0145027 0)
(-0.0538091 -0.0170096 0)
(-0.0535103 -0.0195864 0)
(-0.0530238 -0.0222189 0)
(-0.0523363 -0.0248895 0)
(-0.0514363 -0.0275774 0)
(-0.0503147 -0.0302587 0)
(-0.0489657 -0.0329066 0)
(-0.0473874 -0.0354913 0)
(-0.0455826 -0.0379809 0)
(-0.0435592 -0.040342 0)
(-0.041331 -0.0425403 0)
(-0.038917 -0.0445414 0)
(-0.0363424 -0.0463123 0)
(-0.0336372 -0.0478217 0)
(-0.030836 -0.0490412 0)
(-0.0279766 -0.0499456 0)
(-0.0250988 -0.0505134 0)
(-0.0222431 -0.0507262 0)
(-0.019449 -0.0505687 0)
(-0.0167538 -0.0500273 0)
(-0.0141915 -0.0490893 0)
(-0.0117919 -0.0477416 0)
(-0.00958002 -0.0459695 0)
(-0.00757649 -0.0437561 0)
(-0.00579719 -0.0410826 0)
(-0.00425384 -0.0379293 0)
(-0.00295405 -0.0342784 0)
(-0.00190128 -0.0301184 0)
(-0.00109402 -0.0254513 0)
(-0.000524111 -0.0203022 0)
(-0.000173634 -0.0147334 0)
(-1.09909e-05 -0.00886334 0)
(1.41777e-05 -0.00288899 0)
(-0.0434424 0.0147941 0)
(-0.0444591 0.0137939 0)
(-0.045474 0.0127277 0)
(-0.0464853 0.01159 0)
(-0.0474892 0.0103757 0)
(-0.0484813 0.00907942 0)
(-0.0494565 0.00769574 0)
(-0.0504085 0.00621931 0)
(-0.0513301 0.00464487 0)
(-0.0522131 0.00296747 0)
(-0.0530479 0.00118254 0)
(-0.0538238 -0.000713831 0)
(-0.0545287 -0.00272473 0)
(-0.0551492 -0.0048521 0)
(-0.0556706 -0.00709652 0)
(-0.0560773 -0.00945677 0)
(-0.0563522 -0.0119296 0)
(-0.0564777 -0.0145091 0)
(-0.0564357 -0.0171869 0)
(-0.056208 -0.019951 0)
(-0.055777 -0.0227861 0)
(-0.0551261 -0.0256732 0)
(-0.0542407 -0.0285892 0)
(-0.0531089 -0.0315073 0)
(-0.0517226 -0.0343967 0)
(-0.0500779 -0.037223 0)
(-0.0481767 -0.0399492 0)
(-0.0460268 -0.0425356 0)
(-0.043643 -0.0449419 0)
(-0.041047 -0.0471275 0)
(-0.0382674 -0.0490534 0)
(-0.0353392 -0.0506829 0)
(-0.0323028 -0.0519834 0)
(-0.0292027 -0.0529269 0)
(-0.0260858 -0.0534903 0)
(-0.0229995 -0.0536557 0)
(-0.0199899 -0.0534095 0)
(-0.0171 -0.0527416 0)
(-0.0143684 -0.0516434 0)
(-0.011828 -0.0501069 0)
(-0.00950555 -0.0481228 0)
(-0.00742174 -0.0456793 0)
(-0.00559141 -0.0427626 0)
(-0.00402402 -0.0393577 0)
(-0.00272409 -0.0354512 0)
(-0.00169121 -0.0310365 0)
(-0.000919379 -0.0261217 0)
(-0.000395173 -0.0207405 0)
(-9.46345e-05 -0.0149675 0)
(2.22038e-05 -0.00893949 0)
(2.04869e-05 -0.00287896 0)
(-0.0444113 0.0158403 0)
(-0.045493 0.0148429 0)
(-0.046578 0.0137767 0)
(-0.0476649 0.012636 0)
(-0.0487501 0.0114147 0)
(-0.0498293 0.0101067 0)
(-0.0508974 0.00870564 0)
(-0.0519482 0.00720506 0)
(-0.0529742 0.00559858 0)
(-0.0539669 0.00388 0)
(-0.0549163 0.00204344 0)
(-0.0558109 8.35954e-05 0)
(-0.0566376 -0.00200404 0)
(-0.0573818 -0.00422287 0)
(-0.0580273 -0.00657482 0)
(-0.0585564 -0.00905998 0)
(-0.0589498 -0.0116761 0)
(-0.0591871 -0.0144184 0)
(-0.0592473 -0.0172784 0)
(-0.0591086 -0.0202443 0)
(-0.0587499 -0.0233001 0)
(-0.0581509 -0.026425 0)
(-0.0572933 -0.0295938 0)
(-0.0561616 -0.0327762 0)
(-0.0547445 -0.0359371 0)
(-0.0530358 -0.0390368 0)
(-0.0510356 -0.0420318 0)
(-0.0487515 -0.0448757 0)
(-0.0461993 -0.0475202 0)
(-0.0434031 -0.0499173 0)
(-0.0403956 -0.0520205 0)
(-0.0372174 -0.0537868 0)
(-0.0339159 -0.0551781 0)
(-0.0305433 -0.056163 0)
(-0.027155 -0.0567168 0)
(-0.0238068 -0.0568221 0)
(-0.0205528 -0.0564678 0)
(-0.0174428 -0.0556482 0)
(-0.0145209 -0.0543607 0)
(-0.0118237 -0.0526037 0)
(-0.0093799 -0.0503748 0)
(-0.00721021 -0.0476693 0)
(-0.00532788 -0.0444794 0)
(-0.00373943 -0.0407958 0)
(-0.00244541 -0.0366105 0)
(-0.00144064 -0.0319225 0)
(-0.000713667 -0.0267468 0)
(-0.000244877 -0.0211265 0)
(-3.39189e-06 -0.01515 0)
(6.01982e-05 -0.00897417 0)
(2.76263e-05 -0.00284981 0)
(-0.0453753 0.0169495 0)
(-0.0465231 0.0159604 0)
(-0.0476807 0.0149 0)
(-0.0488464 0.0137623 0)
(-0.0500171 0.0125402 0)
(-0.0511886 0.0112269 0)
(-0.0523558 0.00981475 0)
(-0.0535127 0.00829632 0)
(-0.0546517 0.00666391 0)
(-0.0557641 0.00490989 0)
(-0.0568395 0.00302687 0)
(-0.0578657 0.0010079 0)
(-0.0588287 -0.00115325 0)
(-0.0597128 -0.00346173 0)
(-0.0605 -0.00592124 0)
(-0.0611705 -0.00853354 0)
(-0.0617026 -0.0112979 0)
(-0.062073 -0.0142107 0)
(-0.0622569 -0.0172644 0)
(-0.062229 -0.0204473 0)
(-0.0619637 -0.0237428 0)
(-0.0614363 -0.0271288 0)
(-0.0606241 -0.0305776 0)
(-0.0595071 -0.0340552 0)
(-0.0580701 -0.0375218 0)
(-0.0563036 -0.0409314 0)
(-0.0542055 -0.044233 0)
(-0.0517824 -0.0473718 0)
(-0.0490507 -0.0502904 0)
(-0.0460371 -0.0529314 0)
(-0.0427789 -0.0552393 0)
(-0.0393227 -0.057163 0)
(-0.0357238 -0.0586579 0)
(-0.0320435 -0.0596881 0)
(-0.0283472 -0.060227 0)
(-0.0247008 -0.0602579 0)
(-0.0211677 -0.0597732 0)
(-0.0178065 -0.0587728 0)
(-0.0146678 -0.0572617 0)
(-0.0117929 -0.0552469 0)
(-0.0092127 -0.0527352 0)
(-0.00694808 -0.0497302 0)
(-0.0050102 -0.0462324 0)
(-0.00340187 -0.0422393 0)
(-0.0021187 -0.0377492 0)
(-0.00114967 -0.0327676 0)
(-0.000476736 -0.0273169 0)
(-7.29923e-05 -0.0214507 0)
(0.000100185 -0.0152724 0)
(0.000102968 -0.0089612 0)
(3.56113e-05 -0.002799 0)
(-0.0463269 0.0181229 0)
(-0.0475429 0.0171483 0)
(-0.0487754 0.0161005 0)
(-0.0500232 0.0149726 0)
(-0.0512833 0.0137569 0)
(-0.052552 0.0124455 0)
(-0.0538245 0.0110299 0)
(-0.0550948 0.00950117 0)
(-0.0563557 0.00785032 0)
(-0.0575982 0.00606811 0)
(-0.0588116 0.00414541 0)
(-0.0599833 0.00207334 0)
(-0.0610985 -0.00015634 0)
(-0.0621401 -0.00255093 0)
(-0.0630886 -0.00511633 0)
(-0.0639222 -0.00785647 0)
(-0.0646163 -0.0107727 0)
(-0.0651445 -0.0138629 0)
(-0.0654781 -0.0171212 0)
(-0.0655873 -0.0205363 0)
(-0.0654417 -0.0240914 0)
(-0.0650113 -0.0277633 0)
(-0.064268 -0.0315217 0)
(-0.0631868 -0.035329 0)
(-0.0617472 -0.0391396 0)
(-0.0599355 -0.0429006 0)
(-0.0577465 -0.0465524 0)
(-0.0551852 -0.0500301 0)
(-0.052268 -0.0532653 0)
(-0.049024 -0.0561892 0)
(-0.0454948 -0.0587352 0)
(-0.0417337 -0.0608422 0)
(-0.0378046 -0.0624577 0)
(-0.0337792 -0.0635398 0)
(-0.0297342 -0.0640597 0)
(-0.0257473 -0.0640014 0)
(-0.0218936 -0.0633616 0)
(-0.0182421 -0.0621474 0)
(-0.0148517 -0.0603733 0)
(-0.0117699 -0.0580576 0)
(-0.00903079 -0.0552183 0)
(-0.00665553 -0.0518705 0)
(-0.00465302 -0.0480244 0)
(-0.00302165 -0.0436863 0)
(-0.00175098 -0.0388619 0)
(-0.00082287 -0.0335639 0)
(-0.000211417 -0.027823 0)
(0.00011867 -0.0217038 0)
(0.000215184 -0.0153266 0)
(0.000150295 -0.0088945 0)
(4.43735e-05 -0.00272397 0)
(-0.0472594 0.0193621 0)
(-0.0485453 0.0184087 0)
(-0.0498548 0.0173807 0)
(-0.0511874 0.0162703 0)
(-0.0525407 0.0150691 0)
(-0.0539113 0.0137681 0)
(-0.055295 0.0123577 0)
(-0.0566862 0.0108277 0)
(-0.0580778 0.00916751 0)
(-0.0594609 0.00736609 0)
(-0.0608249 0.00541236 0)
(-0.0621568 0.00329527 0)
(-0.063441 0.00100415 0)
(-0.0646596 -0.00147083 0)
(-0.0657913 -0.00413828 0)
(-0.0668122 -0.00700484 0)
(-0.0676952 -0.0100745 0)
(-0.0684101 -0.0133476 0)
(-0.0689242 -0.0168201 0)
(-0.0692027 -0.0204822 0)
(-0.0692095 -0.0243172 0)
(-0.0689088 -0.0283008 0)
(-0.0682663 -0.0324004 0)
(-0.0672506 -0.0365745 0)
(-0.0658353 -0.0407715 0)
(-0.0640012 -0.0449307 0)
(-0.0617388 -0.0489823 0)
(-0.0590504 -0.0528495 0)
(-0.0559518 -0.0564511 0)
(-0.0524733 -0.0597045 0)
(-0.0486604 -0.0625297 0)
(-0.0445731 -0.0648534 0)
(-0.0402839 -0.0666127 0)
(-0.0358757 -0.0677587 0)
(-0.0314378 -0.0682589 0)
(-0.0270618 -0.0680981 0)
(-0.0228367 -0.0672778 0)
(-0.0188442 -0.0658139 0)
(-0.0151545 -0.0637327 0)
(-0.0118234 -0.0610665 0)
(-0.0088898 -0.0578481 0)
(-0.00637626 -0.0541066 0)
(-0.0042896 -0.049865 0)
(-0.00262325 -0.0451403 0)
(-0.00135968 -0.0399473 0)
(-0.000472234 -0.0343066 0)
(7.43972e-05 -0.0282581 0)
(0.000325451 -0.0218784 0)
(0.000339215 -0.0153055 0)
(0.000201213 -0.00876885 0)
(5.37554e-05 -0.00262249 0)
(-0.048166 0.0206681 0)
(-0.0495226 0.0197434 0)
(-0.0509108 0.018743 0)
(-0.0523305 0.0176585 0)
(-0.0537801 0.0164808 0)
(-0.055257 0.0151999 0)
(-0.0567574 0.0138048 0)
(-0.0582764 0.012284 0)
(-0.0598074 0.0106253 0)
(-0.061342 0.00881558 0)
(-0.0628695 0.00684166 0)
(-0.0643769 0.00468996 0)
(-0.0658482 0.00234707 0)
(-0.0672646 -0.000199898 0)
(-0.0686036 -0.00296274 0)
(-0.0698392 -0.00595149 0)
(-0.0709414 -0.0091735 0)
(-0.0718768 -0.0126324 0)
(-0.072608 -0.0163269 0)
(-0.0730949 -0.0202491 0)
(-0.0732953 -0.0243833 0)
(-0.0731667 -0.0287044 0)
(-0.0726678 -0.0331778 0)
(-0.0717602 -0.0377578 0)
(-0.0704102 -0.0423869 0)
(-0.0685921 -0.0469951 0)
(-0.0662907 -0.0515015 0)
(-0.0635041 -0.0558158 0)
(-0.0602457 -0.0598414 0)
(-0.0565457 -0.0634799 0)
(-0.0524519 -0.0666351 0)
(-0.0480293 -0.0692187 0)
(-0.0433586 -0.0711551 0)
(-0.0385335 -0.072386 0)
(-0.0336569 -0.0728735 0)
(-0.0288358 -0.0726022 0)
(-0.0241759 -0.0715786 0)
(-0.0197754 -0.0698286 0)
(-0.0157192 -0.0673929 0)
(-0.0120751 -0.0643209 0)
(-0.00889025 -0.060664 0)
(-0.00619059 -0.0564693 0)
(-0.00398206 -0.0517763 0)
(-0.00225317 -0.0466153 0)
(-0.000978401 -0.0410124 0)
(-0.000121066 -0.0349976 0)
(0.000365389 -0.0286205 0)
(0.000538056 -0.0219706 0)
(0.000467432 -0.0152047 0)
(0.000253963 -0.00858068 0)
(6.3473e-05 -0.00249299 0)
(-0.0490392 0.0220415 0)
(-0.0504667 0.0211532 0)
(-0.0519344 0.0201889 0)
(-0.0534428 0.0191397 0)
(-0.0549913 0.0179956 0)
(-0.0565779 0.0167454 0)
(-0.0582001 0.0153772 0)
(-0.0598534 0.0138779 0)
(-0.0615323 0.0122333 0)
(-0.0632288 0.0104284 0)
(-0.0649328 0.00844761 0)
(-0.0666315 0.00627451 0)
(-0.0683089 0.00389255 0)
(-0.0699456 0.00128533 0)
(-0.071518 -0.00156276 0)
(-0.0729985 -0.00466581 0)
(-0.0743546 -0.00803541 0)
(-0.0755494 -0.0116793 0)
(-0.0765413 -0.0155999 0)
(-0.0772843 -0.0197926 0)
(-0.0777298 -0.024243 0)
(-0.0778283 -0.0289257 0)
(-0.0775311 -0.0338042 0)
(-0.076792 -0.0388292 0)
(-0.0755693 -0.0439367 0)
(-0.0738293 -0.0490474 0)
(-0.0715494 -0.0540677 0)
(-0.0687215 -0.0588923 0)
(-0.0653541 -0.0634077 0)
(-0.0614741 -0.0674969 0)
(-0.0571284 -0.0710452 0)
(-0.052384 -0.0739462 0)
(-0.0473268 -0.0761083 0)
(-0.0420598 -0.0774604 0)
(-0.0366993 -0.0779565 0)
(-0.0313691 -0.0775788 0)
(-0.0261948 -0.0763378 0)
(-0.0212954 -0.0742698 0)
(-0.0167766 -0.0714319 0)
(-0.0127237 -0.0678942 0)
(-0.00919756 -0.0637313 0)
(-0.00623185 -0.0590136 0)
(-0.00383433 -0.0538015 0)
(-0.00198967 -0.0481434 0)
(-0.000663924 -0.0420792 0)
(0.000191162 -0.0356504 0)
(0.000635613 -0.0289175 0)
(0.000740803 -0.0219834 0)
(0.000591696 -0.0150248 0)
(0.000305585 -0.00832955 0)
(7.30497e-05 -0.00233508 0)
(-0.0498708 0.0234819 0)
(-0.0513687 0.0226383 0)
(-0.0529158 0.0217193 0)
(-0.0545136 0.0207155 0)
(-0.0561624 0.0196159 0)
(-0.0578616 0.0184086 0)
(-0.0596095 0.0170803 0)
(-0.0614031 0.0156163 0)
(-0.0632375 0.0140007 0)
(-0.065106 0.0122163 0)
(-0.0669993 0.0102447 0)
(-0.0689053 0.00806656 0)
(-0.0708084 0.00566178 0)
(-0.072689 0.00301 0)
(-0.074523 9.11579e-05 0)
(-0.0762817 -0.00311362 0)
(-0.0779306 -0.00662101 0)
(-0.0794297 -0.0104439 0)
(-0.0807335 -0.0145896 0)
(-0.0817908 -0.0190577 0)
(-0.0825461 -0.0238365 0)
(-0.0829433 -0.0289002 0)
(-0.0829263 -0.0342106 0)
(-0.0824411 -0.0397159 0)
(-0.0814371 -0.0453457 0)
(-0.0798714 -0.0510111 0)
(-0.0777123 -0.0566055 0)
(-0.0749421 -0.0620077 0)
(-0.0715602 -0.0670858 0)
(-0.0675854 -0.071703 0)
(-0.0630577 -0.0757232 0)
(-0.0580399 -0.0790189 0)
(-0.0526181 -0.0814784 0)