/*--------------------------------*- C++ -*----------------------------------*\
  =========                 |
  \\      /  F ield         | OpenFOAM: The Open Source CFD Toolbox
   \\    /   O peration     | Website:  https://openfoam.org
    \\  /    A nd           | Version:  9
     \\/     M anipulation  |
\*---------------------------------------------------------------------------*/
FoamFile
{
    format      ascii;
    class       volScalarField;
    location    "3";
    object      p;
}
// * * * * * * * * * * * * * * * * * * * * * * * * * * * * * * * * * * * * * //

dimensions      [0 2 -2 0 0 0 0];

internalField   nonuniform List<scalar> 
1260
(
-0.097394
-0.0958012
-0.0941448
-0.0924301
-0.0906625
-0.0888479
-0.0869923
-0.0851014
-0.0831804
-0.081233
-0.0792607
-0.0772619
-0.0752306
-0.0731553
-0.0710181
-0.0687948
-0.0664558
-0.06397
-0.0613122
-0.0584748
-0.0554848
-0.0524216
-0.049429
-0.0467088
-0.0444848
-0.0429381
-0.0421322
-0.0419773
-0.0423238
-0.0431084
-0.0973988
-0.0958019
-0.0941421
-0.0924249
-0.090656
-0.0888417
-0.0869884
-0.0851026
-0.08319
-0.0812554
-0.0793018
-0.077329
-0.075333
-0.0733044
-0.0712276
-0.0690803
-0.0668345
-0.064459
-0.0619259
-0.0592216
-0.0563622
-0.0534129
-0.0505018
-0.0478193
-0.0455881
-0.0440016
-0.043145
-0.0429488
-0.0432753
-0.0440631
-0.0972847
-0.0956819
-0.0940169
-0.0922953
-0.0905231
-0.088707
-0.0868539
-0.0849706
-0.0830638
-0.0811393
-0.079201
-0.0772504
-0.0752852
-0.073298
-0.0712755
-0.0691976
-0.0670378
-0.0647658
-0.0623519
-0.0597776
-0.0570501
-0.054221
-0.051403
-0.0487735
-0.0465512
-0.0449382
-0.044039
-0.0438052
-0.0441118
-0.0449008
-0.0970518
-0.0954411
-0.0937688
-0.0920406
-0.090263
-0.0884428
-0.0865874
-0.0847043
-0.0828007
-0.0808832
-0.078957
-0.0770248
-0.0750859
-0.0731351
-0.071161
-0.0691459
-0.0670652
-0.0648894
-0.0625884
-0.0601399
-0.0575435
-0.0548385
-0.0521227
-0.0495595
-0.0473607
-0.0457341
-0.0448011
-0.0445336
-0.0448208
-0.0456094
-0.0967002
-0.0950795
-0.0933976
-0.0916606
-0.0898752
-0.0880485
-0.0861883
-0.0843027
-0.0823994
-0.0804859
-0.0785684
-0.0766508
-0.0747341
-0.0728147
-0.0708834
-0.0689247
-0.0669159
-0.0648292
-0.0626342
-0.0603062
-0.0578383
-0.0552592
-0.0526523
-0.0501665
-0.0480045
-0.0463765
-0.0454185
-0.0451218
-0.0453907
-0.0461776
-0.0962304
-0.0945974
-0.0929036
-0.0911553
-0.0893595
-0.0875237
-0.085656
-0.083765
-0.0818591
-0.0799466
-0.0780343
-0.0761277
-0.0742289
-0.072336
-0.070442
-0.0685334
-0.0665896
-0.0645845
-0.0624883
-0.0602745
-0.0579313
-0.055478
-0.0529845
-0.050585
-0.0484717
-0.0468539
-0.0458794
-0.0455582
-0.0458103
-0.0465947
-0.0956432
-0.0939956
-0.0922873
-0.0905251
-0.0887161
-0.0868684
-0.0849903
-0.083091
-0.0811794
-0.0792645
-0.0773541
-0.0754546
-0.0735694
-0.0716985
-0.0698363
-0.0679716
-0.066086
-0.0641551
-0.06215
-0.0600437
-0.0578201
-0.0554907
-0.0531132
-0.050807
-0.0487524
-0.0471554
-0.046173
-0.0458323
-0.0460694
-0.0468509
-0.0949397
-0.0932749
-0.0915496
-0.0897706
-0.0879457
-0.086083
-0.0841916
-0.0822807
-0.0803602
-0.0784395
-0.0765274
-0.0746311
-0.0727554
-0.0709016
-0.069066
-0.0672392
-0.065405
-0.0635408
-0.0616193
-0.0596129
-0.057503
-0.0552942
-0.0530332
-0.0508253
-0.0488379
-0.0472715
-0.0462893
-0.0459341
-0.0461583
-0.046937
-0.0941214
-0.0924368
-0.0906916
-0.0888931
-0.0870492
-0.0851685
-0.0832604
-0.0813348
-0.0794019
-0.0774719
-0.0755543
-0.0736574
-0.0717869
-0.0699455
-0.0681312
-0.0663364
-0.0645469
-0.062742
-0.060896
-0.0589818
-0.0569788
-0.054886
-0.0527404
-0.0506339
-0.0487206
-0.0471933
-0.046219
-0.0458544
-0.046068
-0.0468444
-0.0931902
-0.091483
-0.0897152
-0.0878941
-0.0860281
-0.0841261
-0.082198
-0.0802542
-0.0783055
-0.0763625
-0.0744356
-0.0725339
-0.0706644
-0.0688307
-0.0670324
-0.0652636
-0.0635121
-0.0617592
-0.0599808
-0.0581506
-0.0562468
-0.0542643
-0.0522314
-0.0502277
-0.0483935
-0.0469129
-0.0459536
-0.0455845
-0.0457903
-0.0465654
-0.0921484
-0.0904159
-0.0886224
-0.0867757
-0.0848843
-0.0829578
-0.0810063
-0.0790407
-0.0770724
-0.0751126
-0.0731726
-0.071262
-0.0693889
-0.0675581
-0.0657706
-0.0640219
-0.0623017
-0.0605934
-0.0588744
-0.0571197
-0.0553071
-0.053428
-0.0515036
-0.0496022
-0.0478508
-0.0464229
-0.0454851
-0.0451164
-0.0453171
-0.0460924
-0.0909986
-0.089238
-0.087416
-0.0855405
-0.0836206
-0.081666
-0.0796876
-0.0776965
-0.0757048
-0.0737244
-0.071767
-0.0698433
-0.0679621
-0.0661294
-0.0643472
-0.0626127
-0.0609173
-0.0592459
-0.0575782
-0.0558902
-0.0541599
-0.0523765
-0.050555
-0.0487538
-0.0470868
-0.0457165
-0.044806
-0.0444424
-0.0446409
-0.0454183
-0.0897441
-0.0879527
-0.0860991
-0.0841918
-0.08224
-0.080254
-0.0782449
-0.0762247
-0.0742058
-0.0722007
-0.0702218
-0.0682806
-0.0663866
-0.0645469
-0.0627646
-0.0610383
-0.0593607
-0.0577188
-0.0560938
-0.0544635
-0.0528062
-0.0511096
-0.0493842
-0.0476792
-0.0460968
-0.0447875
-0.0439091
-0.0435548
-0.0437541
-0.0445362
-0.0883887
-0.0865638
-0.0846758
-0.0827334
-0.0807464
-0.0787255
-0.0766823
-0.0746291
-0.072579
-0.0705451
-0.0685404
-0.0665771
-0.0646656
-0.0628137
-0.0610257
-0.0593012
-0.0576348
-0.0560145
-0.0544236
-0.0528414
-0.0512471
-0.0496278
-0.0479901
-0.0463758
-0.044876
-0.0436296
-0.0427873
-0.0424459
-0.0426491
-0.0434388
-0.0869368
-0.0850757
-0.0831504
-0.08117
-0.0791446
-0.0770854
-0.0750043
-0.0729144
-0.0708291
-0.0687622
-0.0667274
-0.0647373
-0.0628033
-0.0609339
-0.0591344
-0.0574054
-0.0557426
-0.054136
-0.0525702
-0.0510262
-0.0494844
-0.0479317
-0.0463719
-0.044841
-0.0434201
-0.0422365
-0.0414329
-0.0411079
-0.0413179
-0.0421186
-0.079507
-0.0774401
-0.0753392
-0.0732168
-0.0710863
-0.0689618
-0.0668577
-0.0647882
-0.0627667
-0.060805
-0.0589125
-0.0570953
-0.0553551
-0.0536886
-0.0520872
-0.0505371
-0.0490207
-0.0475201
-0.0460221
-0.0445292
-0.0430724
-0.0417244
-0.0406017
-0.0398382
-0.0395319
-0.0397517
-0.0405674
-0.0777508
-0.0756394
-0.0734936
-0.0713263
-0.0691516
-0.066984
-0.0648385
-0.0627297
-0.0606717
-0.0586769
-0.0567555
-0.0549143
-0.0531557
-0.0514775
-0.0498723
-0.048328
-0.0468281
-0.0453563
-0.0439003
-0.0424615
-0.0410674
-0.039784
-0.0387182
-0.0379944
-0.0377083
-0.0379405
-0.0387758
-0.0759088
-0.0737501
-0.0715563
-0.069341
-0.0671184
-0.0649037
-0.0627124
-0.0605596
-0.0584601
-0.0564267
-0.0544703
-0.0525981
-0.0508135
-0.0491152
-0.0474968
-0.0459472
-0.0444519
-0.0429957
-0.0415673
-0.0401682
-0.0388234
-0.0375937
-0.036578
-0.0358915
-0.035626
-0.0358728
-0.0367328
-0.0739894
-0.0717809
-0.0695364
-0.0672698
-0.0649959
-0.0627303
-0.0604889
-0.0582875
-0.0561411
-0.0540632
-0.0520651
-0.0501547
-0.048336
-0.0466082
-0.0449661
-0.0433997
-0.0418959
-0.0404407
-0.0390242
-0.0376483
-0.0363368
-0.0351471
-0.0341719
-0.0335179
-0.0332719
-0.0335349
-0.0344253
-0.0720023
-0.0697418
-0.0674441
-0.0651234
-0.0627949
-0.0604747
-0.058179
-0.055924
-0.0537253
-0.0515967
-0.0495499
-0.0475933
-0.0457314
-0.0439642
-0.042287
-0.0406909
-0.0391641
-0.0376939
-0.0362717
-0.0349002
-0.0336033
-0.0324367
-0.0314889
-0.0308599
-0.0306304
-0.0309104
-0.0318374
-0.0699586
-0.0676443
-0.0652912
-0.0629138
-0.0605277
-0.0581492
-0.0557949
-0.0534815
-0.0512247
-0.0490388
-0.0469357
-0.0449242
-0.0430092
-0.0411913
-0.0394664
-0.0378264
-0.0362605
-0.0347573
-0.0333096
-0.0319214
-0.0306174
-0.0294532
-0.028516
-0.027901
-0.0276826
-0.0279792
-0.0289497
-0.0678706
-0.0655013
-0.063091
-0.0606546
-0.058208
-0.0557678
-0.0533508
-0.0509739
-0.048653
-0.0464026
-0.0442349
-0.042159
-0.04018
-0.0382988
-0.036512
-0.034812
-0.0331888
-0.0316325
-0.0301371
-0.028708
-0.0273715
-0.026185
-0.0252372
-0.0246212
-0.0244056
-0.024717
-0.0257386
-0.0657523
-0.0633269
-0.0608582
-0.058361
-0.0558514
-0.0533462
-0.0508623
-0.0484166
-0.0460253
-0.0437028
-0.0414615
-0.0393105
-0.0372551
-0.0352966
-0.0334316
-0.0316534
-0.0299526
-0.0283201
-0.0267515
-0.0252538
-0.0238556
-0.0226176
-0.0216326
-0.0209959
-0.0207716
-0.0210939
-0.0221748
-0.0636189
-0.0611373
-0.0586092
-0.0560497
-0.053475
-0.0509016
-0.0483466
-0.0458268
-0.0433582
-0.0409554
-0.0386304
-0.0363924
-0.0342468
-0.0321948
-0.0302334
-0.0283561
-0.0265541
-0.0248192
-0.0231482
-0.0215502
-0.0200564
-0.018732
-0.0176777
-0.0169951
-0.0167464
-0.0170734
-0.0182227
-0.0614873
-0.0589496
-0.0563619
-0.0537391
-0.0510972
-0.0484528
-0.0458225
-0.0432229
-0.0406699
-0.0381776
-0.0357578
-0.0334196
-0.031168
-0.0290043
-0.0269254
-0.024925
-0.0229947
-0.021127
-0.0193201
-0.0175849
-0.0159559
-0.0145045
-0.0133419
-0.0125817
-0.0122881
-0.0126105
-0.0138383
-0.0593756
-0.0567827
-0.0541355
-0.0514489
-0.0487382
-0.0460198
-0.0433099
-0.0406248
-0.0379794
-0.0353876
-0.0328608
-0.0304073
-0.028032
-0.0257356
-0.023515
-0.0213638
-0.0192738
-0.0172382
-0.0152562
-0.0133407
-0.0115306
-0.00990423
-0.00858683
-0.0077098
-0.00734474
-0.0076503
-0.00896765
-0.057303
-0.0546564
-0.0519505
-0.0491996
-0.0464188
-0.0436237
-0.0408299
-0.0380528
-0.0353067
-0.0326046
-0.0299569
-0.0273714
-0.0248521
-0.0223992
-0.0200091
-0.017675
-0.0153888
-0.013144
-0.0109414
-0.00879476
-0.00674976
-0.00489202
-0.00336403
-0.00232193
-0.00185206
-0.00212465
-0.00354431
-0.0552897
-0.0525912
-0.0498277
-0.0470127
-0.0441606
-0.0412861
-0.0384038
-0.0355281
-0.0326721
-0.0298475
-0.0270637
-0.0243273
-0.0216412
-0.0190046
-0.016413
-0.0138589
-0.0113338
-0.00883162
-0.00635387
-0.00391849
-0.00157399
0.000582055
0.00238736
0.00365384
0.00427062
0.00405084
0.00251468
-0.0533559
-0.0506079
-0.0477881
-0.0449094
-0.0419849
-0.0390282
-0.0360527
-0.0330711
-0.0300952
-0.027135
-0.0241984
-0.0212901
-0.0184115
-0.0155603
-0.0127305
-0.00991347
-0.00709991
-0.00428357
-0.0014674
0.00132718
0.00404747
0.00658111
0.00874386
0.0103079
0.0111249
0.010982
0.00931414
-0.0515215
-0.0487266
-0.0458522
-0.0429101
-0.0399122
-0.0368704
-0.0337965
-0.0307014
-0.0275948
-0.0244847
-0.0213767
-0.0182733
-0.0151735
-0.0120728
-0.00896311
-0.00583372
-0.00267393
0.000522969
0.00375293
0.00699096
0.0101769
0.0131844
0.0158015
0.017754
0.0188395
0.018803
0.0169892
-0.0498049
-0.0469657
-0.0440384
-0.0410333
-0.0379607
-0.0348308
-0.031653
-0.0284362
-0.0251874
-0.021912
-0.0186125
-0.0152884
-0.0119358
-0.00854665
-0.00510972
-0.00161142
0.00196138
0.00561663
0.00934953
0.0131311
0.0168909
0.0204918
0.0236805
0.0261349
0.0275782
0.0276861
0.0257178
-0.048222
-0.045341
-0.0423623
-0.0392945
-0.0361458
-0.0329242
-0.0296369
-0.0262895
-0.0228863
-0.019429
-0.0159165
-0.0123443
-0.00870407
-0.00498337
-0.00116634
0.00276499
0.00682756
0.0110317
0.0153725
0.0198163
0.0242819
0.0286233
0.0325298
0.0356307
0.0375505
0.0378556
0.0357386
-0.0467848
-0.0438642
-0.0408352
-0.0377044
-0.0344779
-0.031161
-0.0277579
-0.0242711
-0.0207007
-0.0170443
-0.0132961
-0.00944641
-0.00548113
-0.00138181
0.00287383
0.00731011
0.0119497
0.0168073
0.0218789
0.0271279
0.0324628
0.0377027
0.0425332
0.0464676
0.0490217
0.0496041
0.0473749
-0.0454999
-0.0425413
-0.0394627
-0.0362684
-0.0329621
-0.029546
-0.0260208
-0.022385
-0.0186345
-0.0147614
-0.0107541
-0.00659629
-0.00226649
0.00226186
0.00701971
0.0120403
0.0173549
0.0229851
0.0289306
0.0351517
0.0415415
0.0478893
0.0539112
0.0589141
0.0623186
0.0633105
0.0610633
-0.0443679
-0.0413722
-0.038244
-0.0349853
-0.0315967
-0.0280773
-0.0244237
-0.02063
-0.0166864
-0.0125791
-0.0082892
-0.00379216
0.00094287
0.00595297
0.0112806
0.0169714
0.0230687
0.0296051
0.0365878
0.0439772
0.0516579
0.0594036
0.0668317
0.0732655
0.0778347
0.0794589
0.0773847
-0.043382
-0.0403495
-0.0371713
-0.0338468
-0.0303736
-0.0267469
-0.022959
-0.0189986
-0.0148499
-0.0104917
-0.00589653
-0.00102981
0.00415093
0.0096961
0.0156632
0.0221141
0.0291094
0.0366981
0.0449006
0.0536836
0.0629263
0.072375
0.0815795
0.0898755
0.0960347
0.0986587
0.0970976
-0.0425287
-0.0394591
-0.0362302
-0.0328386
-0.0292785
-0.025541
-0.0216137
-0.0174792
-0.0131147
-0.00849075
-0.00356976
0.00169477
0.00735936
0.0134909
0.0201657
0.0274671
0.0354788
0.0442736
0.0538938
0.064322
0.07544
0.0869758
0.0984373
0.109049
0.117453
0.121675
0.121176
-0.041789
-0.0386819
-0.0354017
-0.031942
-0.0282935
-0.0244428
-0.0203723
-0.0160582
-0.0114699
-0.00656842
-0.00130492
0.00438088
0.010562
0.017325
0.0247696
0.0330058
0.0421479
0.0523018
0.0635437
0.0758859
0.0892295
0.1033
0.117565
0.131142
0.14271
0.149439
0.150835
-0.0411416
-0.037997
-0.0346655
-0.0311377
-0.0274004
-0.023436
-0.0192209
-0.0147247
-0.00990835
-0.00472274
0.000893543
0.00701609
0.0137366
0.0211643
0.0294265
0.0386661
0.0490365
0.0606878
0.0737457
0.088272
0.104212
0.121315
0.139037
0.156468
0.172299
0.182932
0.187457
-0.0405681
-0.0373868
-0.0340052
-0.0304109
-0.0265868
-0.0225105
-0.018153
-0.0134768
-0.0084342
-0.00296539
0.00300417
0.00956634
0.016833
0.0249386
0.0340414
0.0443232
0.0559852
0.0692356
0.084269
0.101224
0.120128
0.140795
0.162735
0.185077
0.206452
0.222921
0.23252
-0.0400581
-0.0368428
-0.0334144
-0.0297575
-0.0258515
-0.0216696
-0.017177
-0.0123294
-0.00707071
-0.00133061
0.00497855
0.0119649
0.0197609
0.0285268
0.0384543
0.0497678
0.0627244
0.0776048
0.094698
0.114258
0.136451
0.161233
0.188248
0.216699
0.245249
0.269754
0.288289
-0.0396158
-0.0363711
-0.0329019
-0.02919
-0.0252115
-0.0209354
-0.016322
-0.0113207
-0.00586767
0.000117006
0.00673293
0.0141032
0.0223795
0.0317463
0.0424277
0.0546908
0.0688523
0.085275
0.104368
0.126551
0.152225
0.181627
0.214737
0.250945
0.28903
0.324913
0.360184
-0.0392652
-0.0359986
-0.0324981
-0.0287431
-0.0247072
-0.0203559
-0.0156454
-0.0105201
-0.00490989
0.00127293
0.00813762
0.0158194
0.0244853
0.0343399
0.045634
0.0586709
0.073821
0.0915247
0.11232
0.136824
0.165784
0.199945
0.24008
0.286383
0.338663
0.394465
0.460516
-0.0390606
-0.0357838
-0.0322667
-0.0284873
-0.0244175
-0.0200206
-0.0152503
-0.0100476
-0.00433876
0.00196886
0.00899047
0.0168686
0.02578
0.035941
0.0476194
0.0611408
0.076911
0.0954227
0.117311
0.143356
0.174654
0.212599
0.259375
0.317547
0.391238
0.483402
0.608968
-0.0390617
-0.035791
-0.0322775
-0.0284991
-0.0244269
-0.0200241
-0.0152434
-0.0100254
-0.00429516
0.00204085
0.00909912
0.0170238
0.0259934
0.0362269
0.0479958
0.0616311
0.0775486
0.0962567
0.118427
0.144901
0.17696
0.216354
0.266593
0.333232
0.430223
0.574346
0.794913
)
;

boundaryField
{
    movingWall
    {
        type            zeroGradient;
    }
    fixedWalls
    {
        type            zeroGradient;
    }
    frontAndBack
    {
        type            empty;
    }
    procBoundary4to5
    {
        type            processor;
        value           nonuniform List<scalar> 
48
(
-0.0989186
-0.0989279
-0.0988202
-0.0985955
-0.0982541
-0.0977967
-0.0972242
-0.0965379
-0.0957392
-0.0948301
-0.0938129
-0.0926904
-0.0914657
-0.0901427
-0.0887255
-0.0853934
-0.0834936
-0.0815283
-0.0815283
-0.0798158
-0.07802
-0.0761491
-0.0742124
-0.0722205
-0.0701854
-0.0681204
-0.0660402
-0.0639611
-0.0619005
-0.0598771
-0.0579103
-0.0560201
-0.054226
-0.0525462
-0.0509968
-0.0495901
-0.0483335
-0.0472281
-0.0462681
-0.0454406
-0.044727
-0.0441059
-0.043558
-0.0430718
-0.0426496
-0.0423131
-0.0421135
-0.0421064
)
;
    }
    procBoundary4to6
    {
        type            processor;
        value           nonuniform List<scalar> 
30
(
-0.0972708
-0.0956804
-0.0940258
-0.0923117
-0.0905436
-0.0887268
-0.0868668
-0.0849687
-0.0830367
-0.0810735
-0.0790791
-0.0770503
-0.0749791
-0.0728516
-0.0706478
-0.0683416
-0.0659025
-0.0633002
-0.0605131
-0.0575414
-0.0544241
-0.051256
-0.0481962
-0.0454556
-0.0432558
-0.0417623
-0.041015
-0.040904
-0.0412703
-0.0420494
)
;
    }
}


// ************************************************************************* //
