/*--------------------------------*- C++ -*----------------------------------*\
  =========                 |
  \\      /  F ield         | OpenFOAM: The Open Source CFD Toolbox
   \\    /   O peration     | Website:  https://openfoam.org
    \\  /    A nd           | Version:  9
     \\/     M anipulation  |
\*---------------------------------------------------------------------------*/
FoamFile
{
    format      ascii;
    class       surfaceScalarField;
    location    "3";
    object      phi;
}
// * * * * * * * * * * * * * * * * * * * * * * * * * * * * * * * * * * * * * //

dimensions      [0 3 -1 0 0 0 0];

internalField   nonuniform List<scalar> 
2445
(
-4.04319e-07
-1.85496e-06
-4.23773e-07
-1.9659e-06
-4.43208e-07
-2.07686e-06
-4.62574e-07
-2.1877e-06
-4.81852e-07
-2.2983e-06
-5.01075e-07
-2.40863e-06
-5.2035e-07
-2.5188e-06
-5.39893e-07
-2.62922e-06
-5.60062e-07
-2.7407e-06
-5.81388e-07
-2.85466e-06
-6.0459e-07
-2.97335e-06
-6.30554e-07
-3.10001e-06
-6.60258e-07
-3.23905e-06
-6.94597e-07
-3.39593e-06
-7.34105e-07
-3.57676e-06
-7.78537e-07
-3.78737e-06
-8.26363e-07
-4.03158e-06
-8.74237e-07
-4.30882e-06
-9.16595e-07
-4.6109e-06
-9.45621e-07
-4.91862e-06
-9.51821e-07
-5.199e-06
-9.25489e-07
-5.4045e-06
-8.59126e-07
-5.4763e-06
-7.50506e-07
-5.35347e-06
-6.05481e-07
-4.98847e-06
-4.38992e-07
-4.36604e-06
-2.72985e-07
-3.51722e-06
-1.31513e-07
-2.51771e-06
-3.54938e-08
-1.46698e-06
-4.56853e-07
-3.17229e-07
-1.83418e-06
-3.38154e-07
-1.94498e-06
-3.59149e-07
-2.05587e-06
-3.80159e-07
-2.16669e-06
-4.01148e-07
-2.27731e-06
-4.22124e-07
-2.38765e-06
-4.43158e-07
-2.49777e-06
-4.64416e-07
-2.60796e-06
-4.86194e-07
-2.71892e-06
-5.08952e-07
-2.83191e-06
-5.33335e-07
-2.94896e-06
-5.60173e-07
-3.07317e-06
-5.90422e-07
-3.2088e-06
-6.25026e-07
-3.36132e-06
-6.64669e-07
-3.53712e-06
-7.09383e-07
-3.74265e-06
-7.5805e-07
-3.98292e-06
-8.07841e-07
-4.25903e-06
-8.53742e-07
-4.565e-06
-8.8838e-07
-4.88399e-06
-9.02431e-07
-5.18495e-06
-8.85912e-07
-5.42102e-06
-8.30491e-07
-5.53172e-06
-7.32631e-07
-5.45133e-06
-5.96706e-07
-5.12439e-06
-4.36525e-07
-4.52622e-06
-2.73707e-07
-3.68004e-06
-1.32885e-07
-2.65853e-06
-3.61634e-08
-1.5637e-06
-4.93016e-07
-2.29615e-07
-1.81199e-06
-2.52041e-07
-1.92255e-06
-2.74639e-07
-2.03327e-06
-2.97345e-07
-2.14399e-06
-3.20115e-07
-2.25454e-06
-3.42935e-07
-2.36483e-06
-3.65848e-07
-2.47485e-06
-3.88976e-07
-2.58483e-06
-4.12558e-07
-2.69534e-06
-4.36986e-07
-2.80748e-06
-4.6283e-07
-2.92312e-06
-4.90854e-07
-3.04515e-06
-5.21976e-07
-3.17768e-06
-5.57157e-07
-3.32614e-06
-5.97188e-07
-3.49709e-06
-6.42331e-07
-3.69751e-06
-6.91832e-07
-3.93342e-06
-7.43345e-07
-4.20752e-06
-7.92396e-07
-4.51595e-06
-8.32089e-07
-4.84429e-06
-8.53346e-07
-5.16369e-06
-8.4601e-07
-5.42835e-06
-8.01036e-07
-5.5767e-06
-7.13665e-07
-5.5387e-06
-5.86815e-07
-5.25124e-06
-4.33117e-07
-4.67992e-06
-2.73777e-07
-3.83938e-06
-1.33915e-07
-2.79839e-06
-3.67326e-08
-1.66088e-06
-5.29749e-07
-1.41434e-07
-1.78838e-06
-1.65392e-07
-1.89859e-06
-1.8963e-07
-2.00903e-06
-2.14083e-07
-2.11953e-06
-2.38697e-07
-2.22993e-06
-2.63446e-07
-2.34008e-06
-2.88345e-07
-2.44995e-06
-3.13481e-07
-2.5597e-06
-3.39043e-07
-2.66978e-06
-3.65356e-07
-2.78117e-06
-3.9292e-07
-2.89556e-06
-4.22425e-07
-3.01564e-06
-4.54736e-07
-3.14537e-06
-4.90808e-07
-3.29007e-06
-5.31501e-07
-3.45639e-06
-5.77261e-07
-3.65175e-06
-6.27651e-07
-3.88303e-06
-6.80772e-07
-4.1544e-06
-7.32673e-07
-4.46404e-06
-7.76955e-07
-4.80001e-06
-8.04844e-07
-5.1358e-06
-8.06111e-07
-5.42709e-06
-7.71106e-07
-5.6117e-06
-6.93932e-07
-5.61588e-06
-5.7608e-07
-5.36909e-06
-4.28966e-07
-4.82703e-06
-2.73312e-07
-3.99503e-06
-1.34651e-07
-2.93706e-06
-3.72115e-08
-1.75832e-06
-5.6696e-07
-5.26362e-08
-1.76332e-06
-7.8158e-08
-1.87307e-06
-1.04075e-07
-1.98312e-06
-1.30322e-07
-2.09329e-06
-1.56841e-07
-2.20341e-06
-1.83594e-07
-2.31333e-06
-2.10579e-07
-2.42297e-06
-2.37849e-07
-2.53243e-06
-2.65548e-07
-2.64208e-06
-2.93944e-07
-2.75277e-06
-3.23465e-07
-2.86604e-06
-3.54726e-07
-2.98438e-06
-3.88529e-07
-3.11156e-06
-4.25802e-07
-3.25279e-06
-4.67443e-07
-3.41475e-06
-5.14039e-07
-3.60515e-06
-5.65425e-07
-3.83164e-06
-6.20106e-07
-4.09971e-06
-6.74637e-07
-4.40951e-06
-7.23123e-07
-4.75153e-06
-7.57148e-07
-5.10178e-06
-7.6649e-07
-5.41774e-06
-7.41e-07
-5.63719e-06
-6.73723e-07
-5.68315e-06
-5.64757e-07
-5.47806e-06
-4.24268e-07
-4.96752e-06
-2.72435e-07
-4.14686e-06
-1.35149e-07
-3.07434e-06
-3.76127e-08
-1.85586e-06
-6.04573e-07
3.68345e-08
-1.73679e-06
9.71771e-09
-1.84595e-06
-1.79167e-08
-1.95548e-06
-4.60051e-08
-2.0652e-06
-7.4488e-08
-2.17493e-06
-1.03319e-07
-2.2845e-06
-1.3248e-07
-2.39381e-06
-1.61999e-07
-2.50291e-06
-1.91981e-07
-2.6121e-06
-2.2264e-07
-2.72211e-06
-2.54337e-07
-2.83434e-06
-2.87612e-07
-2.95111e-06
-3.23196e-07
-3.07598e-06
-3.61972e-07
-3.21402e-06
-4.04851e-07
-3.37187e-06
-4.52522e-07
-3.55748e-06
-5.05048e-07
-3.77911e-06
-5.61301e-07
-4.04346e-06
-6.18311e-07
-4.3525e-06
-6.70694e-07
-4.69914e-06
-7.10425e-07
-5.06205e-06
-7.27372e-07
-5.4008e-06
-7.10974e-07
-5.65359e-06
-6.53302e-07
-5.74083e-06
-5.53086e-07
-5.57828e-06
-4.19217e-07
-5.10139e-06
-2.71273e-07
-4.29481e-06
-1.35469e-07
-3.21015e-06
-3.79511e-08
-1.95338e-06
-6.42524e-07
1.27041e-07
-1.70874e-06
9.82952e-08
-1.81721e-06
6.89039e-08
-1.92609e-06
3.89271e-08
-2.03522e-06
8.42417e-09
-2.14442e-06
-2.25553e-08
-2.25352e-06
-5.39801e-08
-2.36238e-06
-8.58576e-08
-2.47103e-06
-1.18258e-07
-2.5797e-06
-1.51346e-07
-2.68902e-06
-1.85422e-07
-2.80026e-06
-2.2095e-07
-2.91558e-06
-2.58587e-07
-3.03834e-06
-2.99158e-07
-3.17345e-06
-3.43564e-07
-3.32747e-06
-3.92563e-07
-3.50848e-06
-4.46405e-07
-3.72527e-06
-5.04285e-07
-3.98558e-06
-5.63684e-07
-4.2931e-06
-6.19721e-07
-4.64311e-06
-6.64799e-07
-5.01697e-06
-6.88933e-07
-5.37666e-06
-6.81242e-07
-5.66128e-06
-6.32897e-07
-5.78917e-06
-5.41288e-07
-5.66989e-06
-4.13998e-07
-5.22868e-06
-2.69955e-07
-4.43885e-06
-1.35677e-07
-3.34442e-06
-3.8243e-08
-2.05081e-06
-6.80767e-07
2.18053e-07
-1.67917e-06
1.87644e-07
-1.7868e-06
1.56454e-07
-1.8949e-06
1.2454e-07
-2.00331e-06
9.19572e-08
-2.11184e-06
5.87605e-08
-2.22032e-06
2.49884e-08
-2.32861e-06
-9.34936e-09
-2.43669e-06
-4.42949e-08
-2.54475e-06
-7.99689e-08
-2.65335e-06
-1.16611e-07
-2.76362e-06
-1.54615e-07
-2.87757e-06
-1.94562e-07
-2.9984e-06
-2.37209e-07
-3.1308e-06
-2.83426e-07
-3.28125e-06
-3.34012e-07
-3.4579e-06
-3.89366e-07
-3.66992e-06
-4.48968e-07
-3.92598e-06
-5.10716e-07
-4.23136e-06
-5.70226e-07
-4.5836e-06
-6.20346e-07
-4.96685e-06
-6.51306e-07
-5.3457e-06
-6.51978e-07
-5.66061e-06
-6.12704e-07
-5.82845e-06
-5.29561e-07
-5.75303e-06
-4.08788e-07
-5.34945e-06
-2.6861e-07
-4.57903e-06
-1.3584e-07
-3.47719e-06
-3.8507e-08
-2.14814e-06
-7.19274e-07
3.09946e-07
-1.64803e-06
2.77838e-07
-1.75469e-06
2.44806e-07
-1.86187e-06
2.10903e-07
-1.96941e-06
1.76183e-07
-2.07712e-06
1.40698e-07
-2.18484e-06
1.04494e-07
-2.29241e-06
6.75953e-08
-2.39979e-06
2.99857e-08
-2.50714e-06
-8.4186e-09
-2.61494e-06
-4.78036e-08
-2.72424e-06
-8.84943e-08
-2.83688e-06
-1.30992e-07
-2.9559e-06
-1.75981e-07
-3.08581e-06
-2.24286e-07
-3.23295e-06
-2.76721e-07
-3.40546e-06
-3.33798e-07
-3.61284e-06
-3.95244e-07
-3.86453e-06
-4.59343e-07
-4.16726e-06
-5.22193e-07
-4.52075e-06
-5.7711e-07
-4.91193e-06
-6.14583e-07
-5.30823e-06
-6.23316e-07
-5.65188e-06
-5.92888e-07
-5.85888e-06
-5.18082e-07
-5.82783e-06
-4.03753e-07
-5.46378e-06
-2.67366e-07
-4.71541e-06
-1.36027e-07
-3.60853e-06
-3.87629e-08
-2.24541e-06
-7.58037e-07
4.02801e-07
-1.61529e-06
3.68954e-07
-1.72084e-06
3.34036e-07
-1.82695e-06
2.98092e-07
-1.93346e-06
2.61172e-07
-2.0402e-06
2.23328e-07
-2.14699e-06
1.8461e-07
-2.25369e-06
1.45052e-07
-2.36024e-06
1.04661e-07
-2.46675e-06
6.33866e-08
-2.57367e-06
2.1094e-08
-2.68194e-06
-2.24783e-08
-2.79331e-06
-6.77535e-08
-2.91062e-06
-1.15339e-07
-3.03823e-06
-1.65998e-07
-3.18229e-06
-2.20541e-07
-3.35092e-06
-2.7956e-07
-3.55382e-06
-3.42994e-07
-3.8011e-06
-4.0948e-07
-4.10077e-06
-4.75583e-07
-4.45465e-06
-5.35098e-07
-4.85242e-06
-5.7882e-07
-5.26451e-06
-5.95354e-07
-5.63534e-06
-5.73579e-07
-5.88065e-06
-5.07004e-07
-5.89441e-06
-3.99049e-07
-5.57174e-06
-2.6635e-07
-4.84811e-06
-1.36314e-07
-3.73857e-06
-3.90324e-08
-2.34269e-06
-7.97069e-07
4.96701e-07
-1.58092e-06
4.61075e-07
-1.68522e-06
4.24222e-07
-1.7901e-06
3.86182e-07
-1.89542e-06
3.46999e-07
-2.00102e-06
3.06724e-07
-2.10672e-06
2.65407e-07
-2.21237e-06
2.23095e-07
-2.31792e-06
1.79809e-07
-2.42347e-06
1.35531e-07
-2.52939e-06
9.01732e-08
-2.63659e-06
4.35352e-08
-2.74667e-06
-4.73062e-09
-2.86236e-06
-5.51504e-08
-2.98781e-06
-1.08421e-07
-3.12902e-06
-1.65324e-07
-3.29402e-06
-2.26509e-07
-3.49264e-06
-2.92089e-07
-3.73552e-06
-3.61025e-07
-4.03183e-06
-4.3033e-07
-4.38534e-06
-4.94285e-07
-4.78846e-06
-5.44037e-07
-5.21476e-06
-5.68154e-07
-5.61123e-06
-5.54878e-07
-5.89393e-06
-4.96456e-07
-5.95283e-06
-3.94817e-07
-5.67338e-06
-2.65686e-07
-4.97725e-06
-1.36774e-07
-3.86748e-06
-3.93384e-08
-2.44012e-06
-8.36408e-07
5.91733e-07
-1.54488e-06
5.54284e-07
-1.64777e-06
5.15447e-07
-1.75126e-06
4.75252e-07
-1.85523e-06
4.33741e-07
-1.9595e-06
3.90959e-07
-2.06394e-06
3.4696e-07
-2.16838e-06
3.01795e-07
-2.27276e-06
2.55504e-07
-2.37717e-06
2.08096e-07
-2.48198e-06
1.59523e-07
-2.58801e-06
1.09645e-07
-2.6968e-06
5.81889e-08
-2.8109e-06
4.7094e-09
-2.93433e-06
-5.1414e-08
-3.07289e-06
-1.10923e-07
-3.23451e-06
-1.74496e-07
-3.42906e-06
-2.42392e-07
-3.66762e-06
-3.13861e-07
-3.96037e-06
-3.86345e-07
-4.31286e-06
-4.54622e-07
-4.72019e-06
-5.10221e-07
-5.15916e-06
-5.41743e-07
-5.5797e-06
-5.36851e-07
-5.89882e-06
-4.86542e-07
-6.00314e-06
-3.91186e-07
-5.76873e-06
-2.65496e-07
-5.10294e-06
-1.37484e-07
-3.99549e-06
-3.97056e-08
-2.5379e-06
-8.76113e-07
6.87984e-07
-1.50714e-06
6.48667e-07
-1.60845e-06
6.07792e-07
-1.71039e-06
5.65382e-07
-1.81282e-06
5.21473e-07
-1.9156e-06
4.76108e-07
-2.01857e-06
4.2934e-07
-2.12161e-06
3.81226e-07
-2.22465e-06
3.31821e-07
-2.32777e-06
2.81158e-07
-2.43132e-06
2.29229e-07
-2.53608e-06
1.75949e-07
-2.64352e-06
1.21115e-07
-2.75607e-06
6.43649e-08
-2.87758e-06
5.15845e-09
-3.01369e-06
-5.71886e-08
-3.17216e-06
-1.23368e-07
-3.36289e-06
-1.93753e-07
-3.59724e-06
-2.67853e-07
-3.88627e-06
-3.43521e-07
-4.23719e-06
-4.16028e-07
-4.64768e-06
-4.77329e-07
-5.09786e-06
-5.16115e-07
-5.54092e-06
-5.19533e-07
-5.8954e-06
-4.7734e-07
-6.04534e-06
-3.88268e-07
-5.8578e-06
-2.65895e-07
-5.22531e-06
-1.38525e-07
-4.12286e-06
-4.01603e-08
-2.63627e-06
-9.16274e-07
7.8554e-07
-1.46765e-06
7.44306e-07
-1.56722e-06
7.01336e-07
-1.66742e-06
6.56649e-07
-1.76813e-06
6.10271e-07
-1.86922e-06
5.62244e-07
-1.97054e-06
5.1262e-07
-2.07198e-06
4.61462e-07
-2.17349e-06
4.08835e-07
-2.27514e-06
3.54798e-07
-2.37728e-06
2.99377e-07
-2.48066e-06
2.42541e-07
-2.58668e-06
1.84155e-07
-2.69768e-06
1.23939e-07
-2.81736e-06
6.14375e-08
-2.95119e-06
-3.97418e-09
-3.10675e-06
-7.29686e-08
-3.29389e-06
-1.46015e-07
-3.52419e-06
-2.22854e-07
-3.80943e-06
-3.01725e-07
-4.15832e-06
-3.78399e-07
-4.571e-06
-4.45284e-07
-5.03097e-06
-4.91228e-07
-5.49497e-06
-5.02924e-07
-5.8837e-06
-4.68898e-07
-6.07936e-06
-3.86157e-07
-5.94054e-06
-2.66998e-07
-5.34447e-06
-1.39978e-07
-4.24988e-06
-4.07305e-08
-2.73551e-06
-9.57004e-07
8.8448e-07
8.41278e-07
7.96157e-07
7.49126e-07
-1.7211e-06
7.00207e-07
-1.8203e-06
6.49438e-07
-1.91977e-06
5.9687e-07
-2.01942e-06
5.42571e-07
-2.11919e-06
4.86618e-07
-2.21919e-06
4.29092e-07
-2.31976e-06
3.70053e-07
-2.42163e-06
3.09518e-07
-2.52614e-06
2.47419e-07
-2.63558e-06
1.83558e-07
-2.7535e-06
1.17564e-07
-2.88519e-06
4.88872e-08
-3.03807e-06
-2.31275e-08
-3.22188e-06
-9.90064e-08
-3.44831e-06
-1.78696e-07
-3.72974e-06
-2.60807e-07
-4.07621e-06
-3.41602e-07
-4.49021e-06
-4.1398e-07
-4.95859e-06
-4.67006e-07
-5.44195e-06
-4.86988e-07
-5.86372e-06
-4.61234e-07
-6.10512e-06
-3.8493e-07
-6.01685e-06
-2.68912e-07
-5.46049e-06
-1.41928e-07
-4.37687e-06
-4.14465e-08
-2.836e-06
-9.98451e-07
8.42879e-07
-1.67166e-06
7.91346e-07
-1.76877e-06
7.37754e-07
-1.86618e-06
6.82155e-07
-1.96382e-06
6.24622e-07
-2.06166e-06
5.65243e-07
-2.15981e-06
5.04118e-07
-2.25863e-06
4.41342e-07
-2.35885e-06
3.76977e-07
-2.46178e-06
3.1102e-07
-2.56962e-06
2.43351e-07
-2.68583e-06
1.73685e-07
-2.81553e-06
1.01551e-07
-2.96594e-06
2.63333e-08
-3.14666e-06
-5.25409e-08
-3.36944e-06
-1.35197e-07
-3.64708e-06
-2.20588e-07
-3.99082e-06
-3.05474e-07
-4.40532e-06
-3.83273e-07
-4.88079e-06
-4.43335e-07
-5.38189e-06
-4.71651e-07
-5.83541e-06
-4.54333e-07
-6.12243e-06
-3.84639e-07
-6.08654e-06
-2.71736e-07
-5.57339e-06
-1.44461e-07
-4.50414e-06
-4.23406e-08
-2.93812e-06
-1.04079e-06
9.37966e-07
-1.61974e-06
8.83744e-07
-1.71454e-06
8.2725e-07
-1.80969e-06
7.68537e-07
-1.9051e-06
7.0768e-07
-2.0008e-06
6.4478e-07
-2.09691e-06
5.79956e-07
-2.19381e-06
5.13333e-07
-2.29223e-06
4.45022e-07
-2.39347e-06
3.75078e-07
-2.49968e-06
3.03457e-07
-2.61421e-06
2.29961e-07
-2.74203e-06
1.542e-07
-2.89018e-06
7.5608e-08
-3.06807e-06
-6.4173e-09
-3.28741e-06
-9.21462e-08
-3.56135e-06
-1.80865e-07
-3.9021e-06
-2.69823e-07
-4.31636e-06
-3.52988e-07
-4.79763e-06
-4.2006e-07
-5.31481e-06
-4.56798e-07
-5.79867e-06
-4.48141e-07
-6.13109e-06
-3.85311e-07
-6.14937e-06
-2.7556e-07
-5.68314e-06
-1.47667e-07
-4.63204e-06
-4.3448e-08
-3.04233e-06
-1.08424e-06
1.03443e-06
-1.56527e-06
9.77448e-07
-1.65756e-06
9.17976e-07
-1.75022e-06
8.56068e-07
-1.84319e-06
7.91804e-07
-1.93653e-06
7.25296e-07
-2.0304e-06
6.56684e-07
-2.1252e-06
5.86122e-07
-2.22166e-06
5.13763e-07
-2.32111e-06
4.39721e-07
-2.42564e-06
3.64027e-07
-2.53852e-06
2.86567e-07
-2.66457e-06
2.07033e-07
-2.81064e-06
1.24916e-07
-2.98595e-06
3.96064e-08
-3.2021e-06
-4.93052e-08
-3.47244e-06
-1.41402e-07
-3.81e-06
-2.3442e-07
-4.22335e-06
-3.22906e-07
-4.70914e-06
-3.96983e-07
-5.24074e-06
-4.42265e-07
-5.75339e-06
-4.42558e-07
-6.1308e-06
-3.86939e-07
-6.20499e-06
-2.80464e-07
-5.78962e-06
-1.51638e-07
-4.76086e-06
-4.48064e-08
-3.14917e-06
-1.12905e-06
1.1323e-06
-1.5082e-06
1.07249e-06
-1.59775e-06
1.00997e-06
-1.6877e-06
9.44795e-07
-1.77802e-06
8.77051e-07
-1.86879e-06
8.06862e-07
-1.96021e-06
7.34386e-07
-2.05272e-06
6.59808e-07
-2.14709e-06
5.83322e-07
-2.24462e-06
5.05097e-07
-2.34741e-06
4.25234e-07
-2.45865e-06
3.437e-07
-2.58304e-06
2.60272e-07
-2.72721e-06
1.74501e-07
-2.90018e-06
8.57817e-08
-3.11338e-06
-6.40715e-09
-3.38025e-06
-1.01925e-07
-3.71448e-06
-1.98993e-07
-4.12628e-06
-2.92763e-07
-4.61537e-06
-3.73855e-07
-5.15965e-06
-4.27838e-07
-5.6994e-06
-4.37438e-07
-6.1212e-06
-3.8948e-07
-6.25295e-06
-2.86509e-07
-5.89259e-06
-1.56467e-07
-4.8909e-06
-4.64569e-08
-3.25918e-06
-1.1755e-06
1.23158e-06
-1.44846e-06
1.16888e-06
-1.53506e-06
1.10326e-06
-1.62207e-06
1.03475e-06
-1.70952e-06
9.63473e-07
-1.79751e-06
8.89546e-07
-1.88629e-06
8.13153e-07
-1.97633e-06
7.34506e-07
-2.06844e-06
6.53839e-07
-2.16396e-06
5.71373e-07
-2.26495e-06
4.87276e-07
-2.37456e-06
4.01591e-07
-2.49735e-06
3.14177e-07
-2.6398e-06
2.24651e-07
-2.81065e-06
1.3242e-07
-3.02115e-06
3.68743e-08
-3.28471e-06
-6.21125e-08
-3.6155e-06
-1.63224e-07
-4.02517e-06
-2.62245e-07
-4.51635e-06
-3.50372e-07
-5.07152e-06
-4.13241e-07
-5.63653e-06
-4.32573e-07
-6.10187e-06
-3.92844e-07
-6.29268e-06
-2.93735e-07
-5.99169e-06
-1.6225e-07
-5.02239e-06
-4.8444e-08
-3.37298e-06
-1.22395e-06
1.33225e-06
-1.386e-06
1.26662e-06
-1.46943e-06
1.19785e-06
-1.55329e-06
1.12598e-06
-1.63765e-06
1.05112e-06
-1.72265e-06
9.73424e-07
-1.80859e-06
8.93086e-07
-1.89599e-06
8.10348e-07
-1.9857e-06
7.25478e-07
-2.07909e-06
6.38749e-07
-2.17822e-06
5.50388e-07
-2.28619e-06
4.60512e-07
-2.40748e-06
3.69055e-07
-2.54834e-06
2.75701e-07
-2.7173e-06
1.79879e-07
-2.92533e-06
8.09037e-08
-3.18573e-06
-2.15867e-08
-3.513e-06
-1.26734e-07
-3.92002e-06
-2.30977e-07
-4.41211e-06
-3.26166e-07
-4.97633e-06
-3.98132e-07
-5.56457e-06
-4.27689e-07
-6.07231e-06
-3.96885e-07
-6.32348e-06
-3.02156e-07
-6.08642e-06
-1.69082e-07
-5.15546e-06
-5.0816e-08
-3.49125e-06
-1.27476e-06
1.43428e-06
-1.3208e-06
1.36569e-06
-1.40084e-06
1.29374e-06
-1.48134e-06
1.21848e-06
-1.5624e-06
1.14004e-06
-1.64421e-06
1.05858e-06
-1.72713e-06
9.74306e-07
-1.81172e-06
8.87492e-07
-1.89889e-06
7.98441e-07
-1.99003e-06
7.07469e-07
-2.08725e-06
6.14858e-07
-2.19358e-06
5.20792e-07
-2.31341e-06
4.25275e-07
-2.45283e-06
3.28055e-07
-2.62008e-06
2.28587e-07
-2.82586e-06
1.26129e-07
-3.08327e-06
2.01028e-08
-3.40698e-06
-8.90734e-08
-3.81084e-06
-1.98511e-07
-4.30267e-06
-3.00793e-07
-4.87405e-06
-3.8209e-07
-5.48327e-06
-4.22434e-07
-6.03196e-06
-4.01392e-07
-6.34452e-06
-3.11748e-07
-6.17607e-06
-1.77056e-07
-5.29015e-06
-5.36259e-08
-3.61468e-06
-1.32839e-06
1.5376e-06
-1.25284e-06
1.46604e-06
-1.32928e-06
1.39092e-06
-1.40622e-06
1.3123e-06
-1.48378e-06
1.23031e-06
-1.56222e-06
1.14512e-06
-1.64194e-06
1.05696e-06
-1.72356e-06
9.66138e-07
-1.80806e-06
8.72977e-07
-1.89687e-06
7.77835e-07
-1.99211e-06
6.81041e-07
-2.09679e-06
5.82836e-07
-2.2152e-06
4.83289e-07
-2.35328e-06
3.82203e-07
-2.51899e-06
2.79065e-07
-2.72272e-06
1.73085e-07
-2.97729e-06
6.34964e-08
-3.29739e-06
-4.97053e-08
-3.69764e-06
-1.64314e-07
-4.18806e-06
-2.73725e-07
-4.76464e-06
-3.64604e-07
-5.39239e-06
-4.16365e-07
-5.9802e-06
-4.06075e-07
-6.35481e-06
-3.2244e-07
-6.2597e-06
-1.86262e-07
-5.42633e-06
-5.69321e-08
-3.74401e-06
-1.38532e-06
1.6421e-06
-1.18214e-06
1.56762e-06
-1.2548e-06
1.48938e-06
-1.32797e-06
1.40746e-06
-1.40186e-06
1.32199e-06
-1.47676e-06
1.23318e-06
-1.55312e-06
1.14125e-06
-1.63164e-06
1.04654e-06
-1.71335e-06
9.49408e-07
-1.79974e-06
8.50231e-07
-1.89293e-06
7.49383e-07
-1.99594e-06
6.4715e-07
-2.11297e-06
5.43652e-07
-2.24978e-06
4.38745e-07
-2.41409e-06
3.31943e-07
-2.61592e-06
2.22423e-07
-2.86777e-06
1.09247e-07
-3.18421e-06
-7.98191e-09
-3.58041e-06
-1.27747e-07
-4.0683e-06
-2.44329e-07
-4.64805e-06
-3.45058e-07
-5.29166e-06
-4.08931e-07
-5.91633e-06
-4.10546e-07
-6.3532e-06
-3.34107e-07
-6.33614e-06
-1.96785e-07
-5.56366e-06
-6.08018e-08
-3.87999e-06
-1.44612e-06
1.7477e-06
-1.10878e-06
1.67036e-06
-1.17746e-06
1.58911e-06
-1.24672e-06
1.50401e-06
-1.31677e-06
1.41522e-06
-1.38797e-06
1.32294e-06
-1.46084e-06
1.22744e-06
-1.53614e-06
1.12905e-06
-1.61496e-06
1.02815e-06
-1.69884e-06
9.25152e-07
-1.78993e-06
8.2045e-07
-1.89124e-06
7.14366e-07
-2.00689e-06
6.07059e-07
-2.14247e-06
4.98425e-07
-2.30545e-06
3.88001e-07
-2.5055e-06
2.74937e-07
-2.75471e-06
1.5815e-07
-3.06743e-06
3.68764e-08
-3.45914e-06
-8.80436e-08
-3.94338e-06
-2.11849e-07
-4.52425e-06
-3.22713e-07
-5.1808e-06
-3.99461e-07
-5.83958e-06
-4.1431e-07
-6.33835e-06
-3.4655e-07
-6.4039e-06
-2.08701e-07
-5.70151e-06
-6.53148e-08
-4.02338e-06
-1.51144e-06
1.85427e-06
-1.03286e-06
1.77424e-06
-1.09743e-06
1.69013e-06
-1.16261e-06
1.60206e-06
-1.2287e-06
1.51018e-06
-1.29608e-06
1.4147e-06
-1.36536e-06
1.31589e-06
-1.43734e-06
1.21412e-06
-1.51318e-06
1.10976e-06
-1.59448e-06
1.00324e-06
-1.68341e-06
8.94969e-07
-1.78297e-06
7.8529e-07
-1.89721e-06
6.74384e-07
-2.03157e-06
5.6217e-07
-2.19324e-06
4.48203e-07
-2.39153e-06
3.3161e-07
-2.63812e-06
2.11184e-07
-2.947e-06
8.58287e-08
-3.33378e-06
-4.42805e-08
-3.81327e-06
-1.75378e-07
-4.39315e-06
-2.96684e-07
-5.05949e-06
-3.87136e-07
-5.74913e-06
-4.16736e-07
-6.30875e-06
-3.59482e-07
-6.46116e-06
-2.22078e-07
-5.83891e-06
-7.05726e-08
-4.17488e-06
-1.58201e-06
1.96174e-06
-9.54579e-07
1.87923e-06
-1.01492e-06
1.79255e-06
-1.07593e-06
1.70181e-06
-1.13795e-06
1.60716e-06
-1.20143e-06
1.50883e-06
-1.26703e-06
1.40712e-06
-1.33562e-06
1.30236e-06
-1.40843e-06
1.19496e-06
-1.48707e-06
1.08532e-06
-1.57378e-06
9.73873e-07
-1.67152e-06
8.60944e-07
-1.78428e-06
7.46724e-07
-1.91735e-06
6.31139e-07
-2.07765e-06
5.13748e-07
-2.27414e-06
3.93657e-07
-2.51803e-06
2.69553e-07
-2.8229e-06
1.40052e-07
-3.20428e-06
4.7101e-09
-3.67793e-06
-1.33819e-07
-4.25462e-06
-2.65912e-07
-4.9274e-06
-3.70967e-07
-5.64408e-06
-4.17035e-07
-6.26268e-06
-3.72511e-07
-6.50568e-06
-2.36972e-07
-5.97445e-06
-7.6713e-08
-4.33514e-06
-1.65872e-06
2.07011e-06
-8.74244e-07
1.98547e-06
-9.30275e-07
1.89658e-06
-9.87049e-07
1.80358e-06
-1.04495e-06
1.70663e-06
-1.10448e-06
1.60595e-06
-1.16636e-06
1.50184e-06
-1.23152e-06
1.39464e-06
-1.30122e-06
1.28472e-06
-1.37716e-06
1.1725e-06
-1.46156e-06
1.05837e-06
-1.55738e-06
9.42633e-07
-1.66855e-06
8.25469e-07
-1.80018e-06
7.06788e-07
-1.95897e-06
5.86136e-07
-2.15349e-06
4.62592e-07
-2.39448e-06
3.34753e-07
-2.69506e-06
2.00975e-07
-3.0705e-06
6.02156e-08
-3.53717e-06
-8.58708e-08
-4.10854e-06
-2.2912e-07
-4.78415e-06
-3.49757e-07
-5.52344e-06
-4.14228e-07
-6.19821e-06
-3.85108e-07
-6.5348e-06
-2.53423e-07
-6.10613e-06
-8.39321e-08
-4.50463e-06
-1.74265e-06
2.17952e-06
-7.92269e-07
2.09321e-06
-8.43965e-07
2.00265e-06
-8.96484e-07
1.90795e-06
-9.50251e-07
1.8093e-06
-1.00583e-06
1.70692e-06
-1.06397e-06
1.60108e-06
-1.12568e-06
1.49211e-06
-1.19225e-06
1.38037e-06
-1.26541e-06
1.26622e-06
-1.34741e-06
1.15001e-06
-1.44118e-06
1.03203e-06
-1.55056e-06
9.12379e-07
-1.68053e-06
7.90947e-07
-1.83754e-06
6.67243e-07
-2.02978e-06
5.40304e-07
-2.26754e-06
4.0865e-07
-2.5634e-06
2.70419e-07
-2.93227e-06
1.24051e-07
-3.3908e-06
-2.98669e-08
-3.95462e-06
-1.84752e-07
-4.62927e-06
-3.22052e-07
-5.38614e-06
-4.071e-07
-6.11316e-06
-3.96579e-07
-6.54532e-06
-2.71449e-07
-6.23126e-06
-9.25161e-08
-4.68356e-06
-1.83517e-06
2.2904e-06
-7.09235e-07
2.20306e-06
-7.56623e-07
2.1115e-06
-8.04924e-07
2.01585e-06
-8.546e-07
1.91628e-06
-9.06259e-07
1.813e-06
-9.60697e-07
1.70627e-06
-1.01895e-06
1.59638e-06
-1.08236e-06
1.48364e-06
-1.15267e-06
1.36836e-06
-1.23213e-06
1.25083e-06
-1.32365e-06
1.13126e-06
-1.43098e-06
1.00968e-06
-1.55896e-06
8.85921e-07
-1.71378e-06
7.59417e-07
-1.90328e-06
6.29156e-07
-2.13728e-06
4.93575e-07
-2.42782e-06
3.50631e-07
-2.78933e-06
1.98299e-07
-3.23847e-06
3.6144e-08
-3.79246e-06
-1.30934e-07
-4.46219e-06
-2.86074e-07
-5.231e-06
-3.94132e-07
-6.0051e-06
-4.06003e-07
-6.53345e-06
-2.91019e-07
-6.34625e-06
-1.02878e-07
-4.87171e-06
-1.93805e-06
2.40362e-06
-6.25908e-07
2.31607e-06
-6.69075e-07
2.2244e-06
-7.13249e-07
2.12872e-06
-7.58923e-07
2.0292e-06
-8.06738e-07
1.92602e-06
-8.57522e-07
1.81941e-06
-9.1234e-07
1.70961e-06
-9.72556e-07
1.59686e-06
-1.03992e-06
1.4814e-06
-1.11667e-06
1.36343e-06
-1.20568e-06
1.24305e-06
-1.3106e-06
1.12021e-06
-1.43612e-06
9.94607e-07
-1.58818e-06
8.65606e-07
-1.77428e-06
7.32104e-07
-2.00378e-06
5.92447e-07
-2.28817e-06
4.44437e-07
-2.64132e-06
2.85643e-07
-3.07967e-06
1.14676e-07
-3.62149e-06
-6.53263e-08
-4.28219e-06
-2.396e-07
-5.05673e-06
-3.73417e-07
-5.87129e-06
-4.12157e-07
-6.49471e-06
-3.12006e-07
-6.4464e-06
-1.15592e-07
-5.06812e-06
-2.05364e-06
2.52077e-06
-5.43276e-07
2.43406e-06
-5.82367e-07
2.34337e-06
-6.22555e-07
2.2488e-06
-6.64357e-07
2.1505e-06
-7.08435e-07
2.04861e-06
-7.55637e-07
1.94331e-06
-8.0704e-07
1.83477e-06
-8.64016e-07
1.72316e-06
-9.28306e-07
1.6086e-06
-1.00212e-06
1.49119e-06
-1.08827e-06
1.37089e-06
-1.1903e-06
1.24752e-06
-1.31275e-06
1.12065e-06
-1.4613e-06
9.89495e-07
-1.64313e-06
8.52841e-07
-1.86713e-06
7.08921e-07
-2.14425e-06
5.55382e-07
-2.48778e-06
3.89465e-07
-2.91376e-06
2.08962e-07
-3.44099e-06
1.52854e-08
-4.08851e-06
-1.79889e-07
-4.86155e-06
-3.42544e-07
-5.70863e-06
-4.13367e-07
-6.42389e-06
-3.34082e-07
-6.52568e-06
-1.31408e-07
-5.27079e-06
-2.18505e-06
2.64453e-06
-4.62564e-07
2.55993e-06
-4.97771e-07
2.47153e-06
-5.34154e-07
2.37942e-06
-5.72243e-07
2.28369e-06
-6.12708e-07
2.18446e-06
-6.56402e-07
2.08182e-06
-7.04399e-07
1.97586e-06
-7.58059e-07
1.86665e-06
-8.19097e-07
1.7542e-06
-8.89673e-07
1.63845e-06
-9.72517e-07
1.51922e-06
-1.07107e-06
1.39615e-06
-1.18967e-06
1.26862e-06
-1.33377e-06
1.13569e-06
-1.5102e-06
9.95981e-07
-1.72742e-06
8.47565e-07
-1.99583e-06
6.87926e-07
-2.32814e-06
5.14012e-07
-2.73984e-06
3.22833e-07
-3.24981e-06
1.13875e-07
-3.87955e-06
-1.03759e-07
-4.64392e-06
-2.98273e-07
-5.51412e-06
-4.07286e-07
-6.31487e-06
-3.56559e-07
-6.57641e-06
-1.51225e-07
-5.47613e-06
-2.33627e-06
2.77918e-06
-3.85229e-07
2.69818e-06
-4.16774e-07
2.61358e-06
-4.49553e-07
2.52543e-06
-4.84096e-07
2.4338e-06
-5.2107e-07
2.33871e-06
-5.61314e-07
2.24019e-06
-6.05884e-07
2.13824e-06
-6.56107e-07
2.03279e-06
-7.1365e-07
1.92372e-06
-7.80604e-07
1.8108e-06
-8.59599e-07
1.69367e-06
-9.53935e-07
1.57175e-06
-1.06776e-06
1.44424e-06
-1.20626e-06
1.30994e-06
-1.37591e-06
1.16727e-06
-1.58474e-06
1.01409e-06
-1.84265e-06
8.47664e-07
-2.16172e-06
6.64673e-07
-2.55685e-06
4.61516e-07
-3.04666e-06
2.36302e-07
-3.65434e-06
-4.749e-09
-4.40287e-06
-2.36227e-07
-5.28264e-06
-3.90699e-07
-6.1604e-06
-3.78126e-07
-6.58898e-06
-1.75974e-07
-5.67828e-06
-2.51225e-06
2.93125e-06
-3.12912e-07
2.85549e-06
-3.41019e-07
2.77633e-06
-3.70388e-07
2.69377e-06
-4.01536e-07
2.60781e-06
-4.35111e-07
2.51842e-06
-4.71925e-07
2.42553e-06
-5.12996e-07
2.32902e-06
-5.59599e-07
2.2287e-06
-6.13331e-07
2.12429e-06
-6.76189e-07
2.01537e-06
-7.50677e-07
1.90136e-06
-8.3993e-07
1.78148e-06
-9.47872e-07
1.65463e-06
-1.07941e-06
1.51938e-06
-1.24066e-06
1.37384e-06
-1.4392e-06
1.21558e-06
-1.68439e-06
1.0416e-06
-1.98774e-06
8.48255e-07
-2.36351e-06
6.31389e-07
-2.82979e-06
3.87452e-07
-3.4104e-06
1.18502e-07
-4.13392e-06
-1.51887e-07
-5.01225e-06
-3.5891e-07
-5.95338e-06
-3.96276e-07
-6.55162e-06
-2.06303e-07
-5.86825e-06
-2.71855e-06
3.11032e-06
-2.47327e-07
3.04149e-06
-2.72189e-07
2.9694e-06
-2.98303e-07
2.89403e-06
-3.26159e-07
2.81529e-06
-3.56375e-07
2.73309e-06
-3.89719e-07
2.64724e-06
-4.27155e-07
2.55753e-06
-4.69883e-07
2.4636e-06
-5.19407e-07
2.36502e-06
-5.77606e-07
2.26117e-06
-6.46827e-07
2.15125e-06
-7.30008e-07
2.0342e-06
-8.30822e-07
1.90864e-06
-9.53856e-07
1.77282e-06
-1.10483e-06
1.62448e-06
-1.29086e-06
1.46083e-06
-1.52074e-06
1.27849e-06
-1.8054e-06
1.07341e-06
-2.15842e-06
8.40887e-07
-2.59727e-06
5.76111e-07
-3.14563e-06
2.78174e-07
-3.83598e-06
-3.55838e-08
-4.69849e-06
-3.04965e-07
-5.684e-06
-4.06749e-07
-6.44983e-06
-2.42041e-07
-6.03296e-06
-2.96059e-06
3.32988e-06
-1.90067e-07
3.2695e-06
-2.11814e-07
3.20596e-06
-2.34759e-07
3.13915e-06
-2.59357e-07
3.06896e-06
-2.86181e-07
2.99518e-06
-3.15942e-07
2.91756e-06
-3.49529e-07
2.83573e-06
-3.88053e-07
2.74922e-06
-4.32899e-07
2.65741e-06
-4.85796e-07
2.55949e-06
-5.48908e-07
2.45442e-06
-6.24937e-07
2.34086e-06
-7.17262e-07
2.21711e-06
-8.30108e-07
2.08104e-06
-9.68754e-07
1.92997e-06
-1.13978e-06
1.76064e-06
-1.35142e-06
1.56915e-06
-1.61391e-06
1.35092e-06
-1.94019e-06
1.10062e-06
-2.34697e-06
8.12375e-07
-2.85738e-06
4.82023e-07
-3.50563e-06
1.19203e-07
-4.33567e-06
-2.20285e-07
-5.34451e-06
-4.02542e-07
-6.26758e-06
-2.81285e-07
-6.15422e-06
-3.24188e-06
3.60804e-06
-1.42327e-07
3.55723e-06
-1.61002e-07
3.50325e-06
-1.80778e-07
3.44596e-06
-2.02069e-07
3.38517e-06
-2.25388e-07
3.3206e-06
-2.51378e-07
3.25191e-06
-2.80838e-07
3.17862e-06
-3.14767e-07
3.10013e-06
-3.54408e-07
3.01565e-06
-4.01317e-07
2.92418e-06
-4.57433e-07
2.82443e-06
-5.25186e-07
2.71478e-06
-6.07611e-07
2.59318e-06
-7.08513e-07
2.45709e-06
-8.32665e-07
2.30336e-06
-9.86053e-07
2.12816e-06
-1.17622e-06
1.92692e-06
-1.41267e-06
1.69432e-06
-1.7076e-06
1.42428e-06
-2.07692e-06
1.10981e-06
-2.54291e-06
7.43906e-07
-3.13973e-06
3.28901e-07
-3.92066e-06
-8.90905e-08
-4.92652e-06
-3.72274e-07
-5.98439e-06
-3.19235e-07
-6.20726e-06
-3.56111e-06
3.96783e-06
-1.04558e-07
3.92695e-06
-1.20117e-07
3.88282e-06
-1.36646e-07
3.83525e-06
-1.54506e-07
3.78401e-06
-1.74146e-07
3.72876e-06
-1.96124e-07
3.66906e-06
-2.21138e-07
3.60434e-06
-2.50054e-07
3.53389e-06
-2.83955e-07
3.45676e-06
-3.2419e-07
3.37178e-06
-3.72444e-07
3.27742e-06
-4.30826e-07
3.17178e-06
-5.01979e-07
3.05249e-06
-5.89219e-07
2.91656e-06
-6.96731e-07
2.7603e-06
-8.298e-07
2.57925e-06
-9.95167e-07
2.36804e-06
-1.20146e-06
2.12042e-06
-1.45997e-06
1.82918e-06
-1.78569e-06
1.48615e-06
-2.19988e-06
1.08193e-06
-2.73551e-06
6.11453e-07
-3.45018e-06
1.05469e-07
-4.42053e-06
-3.00346e-07
-5.57858e-06
-3.47241e-07
-6.16036e-06
-3.90835e-06
4.43643e-06
-7.61301e-08
4.40479e-06
-8.84784e-08
4.36979e-06
-1.01641e-07
4.3312e-06
-1.15919e-07
4.28874e-06
-1.31688e-07
4.24203e-06
-1.49414e-07
4.19057e-06
-1.69678e-07
4.13372e-06
-1.93199e-07
4.07064e-06
-2.20878e-07
4.00029e-06
-2.53834e-07
3.92131e-06
-2.93465e-07
3.832e-06
-3.41519e-07
3.73021e-06
-4.0019e-07
3.61323e-06
-4.72236e-07
3.47766e-06
-5.61165e-07
3.31929e-06
-6.71431e-07
3.13295e-06
-8.0882e-07
2.91234e-06
-9.80856e-07
2.65006e-06
-1.19769e-06
2.33748e-06
-1.47311e-06
1.96485e-06
-1.82725e-06
1.52054e-06
-2.2912e-06
9.92295e-07
-2.92194e-06
3.90479e-07
-3.81872e-06
-1.59498e-07
-5.0286e-06
-3.52689e-07
-5.96717e-06
-4.26104e-06
5.04271e-06
-5.51525e-08
5.01846e-06
-6.42243e-08
4.99076e-06
-7.39401e-08
4.95938e-06
-8.45374e-08
4.924e-06
-9.63106e-08
4.88421e-06
-1.09625e-07
4.83947e-06
-1.24935e-07
4.78907e-06
-1.42803e-07
4.73212e-06
-1.63929e-07
4.66747e-06
-1.89183e-07
4.59366e-06
-2.19652e-07
4.50882e-06
-2.56686e-07
4.41063e-06
-3.01992e-07
4.29609e-06
-3.57703e-07
4.16149e-06
-4.26562e-07
4.00211e-06
-5.12056e-07
3.81212e-06
-6.18828e-07
3.58425e-06
-7.52988e-07
3.30975e-06
-9.23184e-07
2.97812e-06
-1.14148e-06
2.57742e-06
-1.42655e-06
2.09344e-06
-1.80723e-06
1.50877e-06
-2.33727e-06
8.1265e-07
-3.1226e-06
9.68846e-08
-4.31283e-06
-3.02636e-07
-5.56765e-06
-4.56368e-06
5.81264e-06
-3.87028e-08
5.79299e-06
-4.45771e-08
5.76997e-06
-5.092e-08
5.74333e-06
-5.7901e-08
5.71275e-06
-6.57299e-08
5.67779e-06
-7.46664e-08
5.63789e-06
-8.50319e-08
5.59231e-06
-9.72237e-08
5.54012e-06
-1.11735e-07
5.48011e-06
-1.29176e-07
5.41077e-06
-1.50308e-07
5.33015e-06
-1.7607e-07
5.23581e-06
-2.07653e-07
5.12464e-06
-2.46533e-07
4.99271e-06
-2.94632e-07
4.83502e-06
-3.54362e-07
4.64524e-06
-4.29053e-07
4.41531e-06
-5.23053e-07
4.13512e-06
-6.4299e-07
3.79188e-06
-7.98243e-07
3.37038e-06
-1.00505e-06
2.85203e-06
-1.28888e-06
2.21483e-06
-1.70007e-06
1.42941e-06
-2.33718e-06
5.40329e-07
-3.42375e-06
-1.15005e-07
-4.91232e-06
-4.67868e-06
6.76327e-06
-2.37986e-08
6.74552e-06
-2.68315e-08
6.72476e-06
-3.01569e-08
6.70073e-06
-3.38759e-08
6.67312e-06
-3.81133e-08
6.64147e-06