/*--------------------------------*- C++ -*----------------------------------*\
  =========                 |
  \\      /  F ield         | OpenFOAM: The Open Source CFD Toolbox
   \\    /   O peration     | Website:  https://openfoam.org
    \\  /    A nd           | Version:  9
     \\/     M anipulation  |
\*---------------------------------------------------------------------------*/
FoamFile
{
    format      ascii;
    class       volVectorField;
    location    "3";
    object      U;
}
// * * * * * * * * * * * * * * * * * * * * * * * * * * * * * * * * * * * * * //

dimensions      [0 1 -1 0 0 0 0];

internalField   nonuniform List<vector> 
1260
(
(-0.0394567 -0.186501 0)
(-0.0414013 -0.1976 0)
(-0.0433469 -0.208697 0)
(-0.0452877 -0.21978 0)
(-0.0472198 -0.230837 0)
(-0.0491433 -0.241867 0)
(-0.0510645 -0.252887 0)
(-0.0529991 -0.263941 0)
(-0.0549748 -0.275117 0)
(-0.0570356 -0.286566 0)
(-0.059244 -0.298522 0)
(-0.0616814 -0.311318 0)
(-0.0644438 -0.3254 0)
(-0.06763 -0.341313 0)
(-0.0713198 -0.359652 0)
(-0.0755381 -0.380964 0)
(-0.0802081 -0.405572 0)
(-0.0850961 -0.433327 0)
(-0.0897606 -0.463303 0)
(-0.0935249 -0.493464 0)
(-0.0955002 -0.520419 0)
(-0.094685 -0.539393 0)
(-0.0901625 -0.5446 0)
(-0.0813851 -0.530197 0)
(-0.0684913 -0.491832 0)
(-0.0525259 -0.428444 0)
(-0.0353842 -0.343506 0)
(-0.0193966 -0.244718 0)
(-0.00698417 -0.141884 0)
(-0.000988813 -0.043899 0)
(-0.0306765 -0.184492 0)
(-0.0327633 -0.195581 0)
(-0.0348607 -0.206677 0)
(-0.0369619 -0.217762 0)
(-0.0390621 -0.228825 0)
(-0.0411595 -0.23986 0)
(-0.0432573 -0.250875 0)
(-0.0453668 -0.261905 0)
(-0.0475104 -0.273025 0)
(-0.0497249 -0.284368 0)
(-0.0520656 -0.29615 0)
(-0.0546066 -0.308686 0)
(-0.0574396 -0.322411 0)
(-0.0606642 -0.337873 0)
(-0.0643689 -0.355701 0)
(-0.0686 -0.37651 0)
(-0.0733154 -0.400746 0)
(-0.0783293 -0.428438 0)
(-0.083256 -0.458879 0)
(-0.0874721 -0.490266 0)
(-0.0901228 -0.519389 0)
(-0.0902038 -0.541518 0)
(-0.0867423 -0.550675 0)
(-0.0790796 -0.540514 0)
(-0.0672067 -0.505879 0)
(-0.0520288 -0.444782 0)
(-0.0353622 -0.359955 0)
(-0.019549 -0.258841 0)
(-0.00710349 -0.151528 0)
(-0.001022 -0.0474842 0)
(-0.0218424 -0.182344 0)
(-0.0240743 -0.193414 0)
(-0.0263269 -0.204498 0)
(-0.0285932 -0.215577 0)
(-0.0308676 -0.226639 0)
(-0.0331468 -0.237672 0)
(-0.0354316 -0.24868 0)
(-0.0377297 -0.259689 0)
(-0.0400584 -0.270761 0)
(-0.0424483 -0.282015 0)
(-0.0449471 -0.293645 0)
(-0.0476219 -0.30595 0)
(-0.0505581 -0.31935 0)
(-0.0538537 -0.334392 0)
(-0.0576028 -0.351724 0)
(-0.0618679 -0.372021 0)
(-0.0666365 -0.395838 0)
(-0.0717665 -0.423369 0)
(-0.0769256 -0.454122 0)
(-0.0815447 -0.486536 0)
(-0.0848088 -0.517608 0)
(-0.08572 -0.542695 0)
(-0.0832617 -0.555682 0)
(-0.0766746 -0.549768 0)
(-0.0658078 -0.519016 0)
(-0.0514255 -0.460479 0)
(-0.0352583 -0.376069 0)
(-0.0196512 -0.272882 0)
(-0.00720299 -0.161228 0)
(-0.00105207 -0.0511311 0)
(-0.0129502 -0.180055 0)
(-0.01533 -0.191096 0)
(-0.0177412 -0.202157 0)
(-0.0201769 -0.21322 0)
(-0.0226311 -0.224271 0)
(-0.0250993 -0.235295 0)
(-0.0275806 -0.246292 0)
(-0.0300794 -0.257279 0)
(-0.0326087 -0.268308 0)
(-0.0351935 -0.279483 0)
(-0.0378743 -0.290981 0)
(-0.0407106 -0.303081 0)
(-0.0437811 -0.316186 0)
(-0.04718 -0.330837 0)
(-0.0510038 -0.347695 0)
(-0.055327 -0.367481 0)
(-0.0601621 -0.390846 0)
(-0.0654057 -0.418135 0)
(-0.0707763 -0.449068 0)
(-0.0757589 -0.482326 0)
(-0.0795827 -0.515136 0)
(-0.0812645 -0.542984 0)
(-0.0797547 -0.559668 0)
(-0.0742039 -0.557987 0)
(-0.0643251 -0.531248 0)
(-0.05074 -0.475521 0)
(-0.0350882 -0.391822 0)
(-0.0197111 -0.286813 0)
(-0.0072848 -0.170963 0)
(-0.00107913 -0.05483 0)
(-0.00399502 -0.177622 0)
(-0.00652539 -0.188622 0)
(-0.00909862 -0.19965 0)
(-0.011708 -0.210686 0)
(-0.0143473 -0.221715 0)
(-0.0170113 -0.232722 0)
(-0.0196976 -0.2437 0)
(-0.0224082 -0.254661 0)
(-0.0251523 -0.265649 0)
(-0.0279496 -0.276752 0)
(-0.0308341 -0.288132 0)
(-0.0338577 -0.300049 0)
(-0.0370919 -0.312888 0)
(-0.0406254 -0.327177 0)
(-0.0445546 -0.343585 0)
(-0.0489621 -0.362869 0)
(-0.0538808 -0.38576 0)
(-0.0592417 -0.412745 0)
(-0.0648104 -0.443742 0)
(-0.0701255 -0.477679 0)
(-0.0744632 -0.512029 0)
(-0.0768625 -0.54244 0)
(-0.0762507 -0.562681 0)
(-0.0716979 -0.565201 0)
(-0.0627867 -0.542585 0)
(-0.049996 -0.489901 0)
(-0.0348684 -0.407198 0)
(-0.0197371 -0.300613 0)
(-0.0073515 -0.180715 0)
(-0.00110338 -0.0585726 0)
(0.00502892 -0.175042 0)
(0.00234505 -0.185991 0)
(-0.000393722 -0.196973 0)
(-0.00318101 -0.207971 0)
(-0.00601058 -0.218966 0)
(-0.00887689 -0.229944 0)
(-0.0117763 -0.240895 0)
(-0.014709 -0.251825 0)
(-0.0176807 -0.262768 0)
(-0.0207067 -0.273803 0)
(-0.0238149 -0.285076 0)
(-0.0270497 -0.296828 0)
(-0.030475 -0.309425 0)
(-0.0341732 -0.323382 0)
(-0.0382381 -0.339366 0)
(-0.0427574 -0.358162 0)
(-0.04778 -0.380568 0)
(-0.0532666 -0.407199 0)
(-0.0590265 -0.438162 0)
(-0.0646505 -0.472628 0)
(-0.069464 -0.50833 0)
(-0.0725339 -0.541114 0)
(-0.0727739 -0.564765 0)
(-0.0691828 -0.57144 0)
(-0.0612184 -0.55304 0)
(-0.0492157 -0.503617 0)
(-0.0346154 -0.422188 0)
(-0.0197385 -0.314269 0)
(-0.00740607 -0.190469 0)
(-0.00112511 -0.0623518 0)
(0.014128 -0.172314 0)
(0.0112876 -0.183199 0)
(0.00837968 -0.194122 0)
(0.00541016 -0.205068 0)
(0.00238507 -0.216018 0)
(-0.000689835 -0.226955 0)
(-0.0038102 -0.237867 0)
(-0.00697451 -0.248757 0)
(-0.010186 -0.259652 0)
(-0.0134556 -0.270619 0)
(-0.0168058 -0.281792 0)
(-0.020274 -0.293394 0)
(-0.0239162 -0.305771 0)
(-0.0278077 -0.319422 0)
(-0.0320382 -0.335009 0)
(-0.0366973 -0.353335 0)
(-0.041846 -0.375255 0)
(-0.0474707 -0.401494 0)
(-0.0534204 -0.432339 0)
(-0.0593362 -0.467202 0)
(-0.0645939 -0.504081 0)
(-0.0682939 -0.53905 0)
(-0.0693441 -0.56596 0)
(-0.066681 -0.576734 0)
(-0.0596431 -0.562627 0)
(-0.0484202 -0.516673 0)
(-0.0343455 -0.436786 0)
(-0.0197249 -0.327773 0)
(-0.00745184 -0.200218 0)
(-0.00114469 -0.0661621 0)
(0.0233092 -0.169433 0)
(0.0203091 -0.180242 0)
(0.0172283 -0.191094 0)
(0.0140721 -0.201975 0)
(0.0108462 -0.212865 0)
(0.00755638 -0.223748 0)
(0.00420743 -0.234609 0)
(0.000802145 -0.245449 0)
(-0.00266042 -0.256287 0)
(-0.00618772 -0.267185 0)
(-0.009797 -0.27826 0)
(-0.0135191 -0.289722 0)
(-0.0174024 -0.301898 0)
(-0.0215144 -0.315268 0)
(-0.0259392 -0.330485 0)
(-0.0307661 -0.348362 0)
(-0.0360647 -0.3698 0)
(-0.0418427 -0.395622 0)
(-0.0479852 -0.426281 0)
(-0.0541813 -0.46142 0)
(-0.059858 -0.499314 0)
(-0.0641532 -0.536286 0)
(-0.0659768 -0.566302 0)
(-0.0642115 -0.581108 0)
(-0.058081 -0.57136 0)
(-0.0476292 -0.529074 0)
(-0.034075 -0.450995 0)
(-0.0197062 -0.341124 0)
(-0.00749244 -0.209955 0)
(-0.00116259 -0.0699998 0)
(0.0325802 -0.166398 0)
(0.0294171 -0.177116 0)
(0.0261594 -0.187884 0)
(0.0228118 -0.198685 0)
(0.0193797 -0.209501 0)
(0.0158685 -0.220315 0)
(0.0122834 -0.231112 0)
(0.00862814 -0.241889 0)
(0.00490357 -0.252662 0)
(0.00110535 -0.263484 0)
(-0.00277906 -0.274463 0)
(-0.00677435 -0.285792 0)
(-0.0109213 -0.297781 0)
(-0.0152795 -0.310892 0)
(-0.0199263 -0.325765 0)
(-0.0249485 -0.343217 0)
(-0.0304214 -0.364183 0)
(-0.0363704 -0.389573 0)
(-0.0427123 -0.419989 0)
(-0.049182 -0.455299 0)
(-0.0552577 -0.494056 0)
(-0.0601185 -0.532857 0)
(-0.0626835 -0.565824 0)
(-0.061789 -0.584588 0)
(-0.0565496 -0.579254 0)
(-0.0468604 -0.540827 0)
(-0.0338195 -0.464821 0)
(-0.0196929 -0.354326 0)
(-0.00753181 -0.219683 0)
(-0.00117933 -0.0738629 0)
(0.0419491 -0.163204 0)
(0.0386194 -0.173819 0)
(0.0351806 -0.184487 0)
(0.0316368 -0.195194 0)
(0.0279928 -0.20592 0)
(0.0242537 -0.21665 0)
(0.0204248 -0.227368 0)
(0.0165106 -0.238068 0)
(0.0125134 -0.248764 0)
(0.00843165 -0.259503 0)
(0.00425697 -0.270383 0)
(-2.95625e-05 -0.281583 0)
(-0.00446139 -0.293397 0)
(-0.00908995 -0.306269 0)
(-0.0139852 -0.320823 0)
(-0.0192297 -0.337874 0)
(-0.0249017 -0.358384 0)
(-0.0310404 -0.383333 0)
(-0.0375913 -0.413461 0)
(-0.0443318 -0.44885 0)
(-0.0507912 -0.48833 0)
(-0.0561931 -0.528791 0)
(-0.0594717 -0.564555 0)
(-0.0594251 -0.587193 0)
(-0.0550631 -0.58632 0)
(-0.04613 -0.551939 0)
(-0.0335941 -0.478272 0)
(-0.0196953 -0.367391 0)
(-0.00757415 -0.229408 0)
(-0.00119554 -0.0777519 0)
(0.0514244 -0.15985 0)
(0.0479244 -0.170346 0)
(0.0443002 -0.1809 0)
(0.040555 -0.191495 0)
(0.0366932 -0.202116 0)
(0.0327194 -0.212745 0)
(0.0286389 -0.223368 0)
(0.0244567 -0.233977 0)
(0.0201765 -0.244583 0)
(0.015799 -0.255228 0)
(0.0113196 -0.266004 0)
(0.00672489 -0.277077 0)
(0.0019883 -0.288725 0)
(-0.00293338 -0.301374 0)
(-0.00810211 -0.315632 0)
(-0.013595 -0.332308 0)
(-0.0194906 -0.352379 0)
(-0.025839 -0.376886 0)
(-0.0326104 -0.406691 0)
(-0.0396223 -0.442078 0)
(-0.0464541 -0.482153 0)
(-0.0523767 -0.524112 0)
(-0.0563455 -0.562517 0)
(-0.0571277 -0.588942 0)
(-0.053633 -0.592568 0)
(-0.0454521 -0.562417 0)
(-0.0334131 -0.49136 0)
(-0.019724 -0.380333 0)
(-0.00762393 -0.239139 0)
(-0.0012119 -0.0816691 0)
(0.061015 -0.15633 0)
(0.0573407 -0.166693 0)
(0.0535263 -0.177116 0)
(0.0495743 -0.187585 0)
(0.0454885 -0.198083 0)
(0.041273 -0.208594 0)
(0.036933 -0.219103 0)
(0.0324738 -0.229605 0)
(0.0279002 -0.240106 0)
(0.0232151 -0.250647 0)
(0.0184173 -0.26131 0)
(0.0134983 -0.272255 0)
(0.00843828 -0.283743 0)
(0.00320211 -0.296184 0)
(-0.00226377 -0.310168 0)
(-0.00802985 -0.326493 0)
(-0.0141732 -0.346146 0)
(-0.0207515 -0.370216 0)
(-0.0277566 -0.399673 0)
(-0.035043 -0.434988 0)
(-0.0422395 -0.475538 0)
(-0.0486661 -0.51884 0)
(-0.0533055 -0.55973 0)
(-0.0549014 -0.589847 0)
(-0.0522679 -0.598004 0)
(-0.0448388 -0.572266 0)
(-0.0332903 -0.504098 0)
(-0.0197899 -0.393173 0)
(-0.0076859 -0.248895 0)
(-0.00122919 -0.0856195 0)
(0.0707295 -0.152642 0)
(0.0668767 -0.162856 0)
(0.0628672 -0.173131 0)
(0.0587028 -0.183456 0)
(0.0543865 -0.193813 0)
(0.049922 -0.204188 0)
(0.0453144 -0.214567 0)
(0.0405691 -0.224943 0)
(0.0356919 -0.235324 0)
(0.0306877 -0.245746 0)
(0.0255582 -0.256288 0)
(0.0202997 -0.2671 0)
(0.0148988 -0.278433 0)
(0.00932816 -0.290677 0)
(0.00354293 -0.304407 0)
(-0.00251987 -0.320405 0)
(-0.00893413 -0.339663 0)
(-0.0157628 -0.363306 0)
(-0.0230157 -0.392397 0)
(-0.0305817 -0.427581 0)
(-0.0381377 -0.468497 0)
(-0.0450551 -0.512991 0)
(-0.050349 -0.556212 0)
(-0.0527471 -0.58992 0)
(-0.0509729 -0.60263 0)
(-0.0442998 -0.581488 0)
(-0.0332383 -0.516498 0)
(-0.0199038 -0.405935 0)
(-0.0077651 -0.258695 0)
(-0.00124827 -0.0896104 0)
(0.0805768 -0.14878 0)
(0.076541 -0.158829 0)
(0.0723311 -0.16894 0)
(0.0679483 -0.179102 0)
(0.0633948 -0.1893 0)
(0.058674 -0.19952 0)
(0.0537904 -0.209749 0)
(0.0487498 -0.219981 0)
(0.043559 -0.230224 0)
(0.0382242 -0.240513 0)
(0.0327504 -0.250923 0)
(0.0271381 -0.261597 0)
(0.0213799 -0.272775 0)
(0.0154564 -0.284833 0)
(0.00933111 -0.298326 0)
(0.00294946 -0.314022 0)
(-0.00375785 -0.332909 0)
(-0.0108567 -0.356138 0)
(-0.0183721 -0.384853 0)
(-0.0262243 -0.419854 0)
(-0.034137 -0.461036 0)
(-0.0415345 -0.506579 0)
(-0.04747 -0.551973 0)
(-0.0506625 -0.589163 0)
(-0.0497502 -0.606443 0)
(-0.0438426 -0.590081 0)
(-0.0332687 -0.528573 0)
(-0.0200768 -0.418647 0)
(-0.0078669 -0.268568 0)
(-0.00127009 -0.0936519 0)
(0.0905649 -0.144742 0)
(0.0863413 -0.154608 0)
(0.0819257 -0.164537 0)
(0.0773183 -0.174517 0)
(0.0725207 -0.184537 0)
(0.0675358 -0.194582 0)
(0.0623679 -0.204641 0)
(0.057023 -0.21471 0)
(0.0515084 -0.224797 0)
(0.0458323 -0.234937 0)
(0.040002 -0.245203 0)
(0.0340224 -0.255732 0)
(0.0278919 -0.266754 0)
(0.0215984 -0.278633 0)
(0.0151142 -0.291905 0)
(0.00839309 -0.307322 0)
(0.00137188 -0.325863 0)
(-0.00601616 -0.348696 0)
(-0.0138088 -0.377029 0)
(-0.0219548 -0.411806 0)
(-0.030223 -0.453162 0)
(-0.0380923 -0.499614 0)
(-0.044659 -0.547023 0)
(-0.0486413 -0.58758 0)
(-0.0485983 -0.609435 0)
(-0.0434718 -0.598036 0)
(-0.033392 -0.540331 0)
(-0.02032 -0.43134 0)
(-0.00799703 -0.278546 0)
(-0.00129572 -0.0977572 0)
(0.0868195 -0.169695 0)
(0.0817708 -0.179515 0)
(0.076514 -0.189365 0)
(0.0710535 -0.199234 0)
(0.0653952 -0.20912 0)
(0.0595472 -0.219032 0)
(0.0535192 -0.229006 0)
(0.0473212 -0.239114 0)
(0.0409619 -0.249489 0)
(0.0344452 -0.260354 0)
(0.0277663 -0.27206 0)
(0.020906 -0.285126 0)
(0.0138269 -0.300285 0)
(0.00647254 -0.318506 0)
(-0.0012228 -0.340961 0)
(-0.00930706 -0.368914 0)
(-0.0177549 -0.403432 0)
(-0.0263788 -0.444877 0)
(-0.0347132 -0.492103 0)
(-0.0419029 -0.541367 0)
(-0.0466736 -0.585167 0)
(-0.0475119 -0.611594 0)
(-0.0431891 -0.605342 0)
(-0.033617 -0.551777 0)
(-0.0206446 -0.444046 0)
(-0.00816164 -0.288666 0)
(-0.00132634 -0.101942 0)
(0.0964575 -0.164628 0)
(0.0911506 -0.174229 0)
(0.0856144 -0.183862 0)
(0.079853 -0.19352 0)
(0.0738726 -0.203201 0)
(0.067682 -0.21292 0)
(0.0612924 -0.22271 0)
(0.0547163 -0.232646 0)
(0.047966 -0.242857 0)
(0.0410509 -0.253561 0)
(0.033973 -0.265098 0)
(0.0267215 -0.277971 0)
(0.0192678 -0.292894 0)
(0.0115629 -0.310819 0)
(0.00354357 -0.33292 0)
(-0.004846 -0.360497 0)
(-0.0136038 -0.394727 0)
(-0.0225843 -0.436184 0)
(-0.0313785 -0.484054 0)
(-0.0391848 -0.535011 0)
(-0.0447452 -0.581917 0)
(-0.0464815 -0.612899 0)
(-0.0429926 -0.611976 0)
(-0.0339507 -0.562913 0)
(-0.0210618 -0.456797 0)
(-0.00836736 -0.298972 0)
(-0.00136326 -0.106227 0)
(0.106237 -0.159309 0)
(0.100665 -0.168669 0)
(0.0948417 -0.178065 0)
(0.0887715 -0.18749 0)
(0.0824609 -0.196947 0)
(0.0759192 -0.206451 0)
(0.0691592 -0.21604 0)
(0.0621957 -0.225788 0)
(0.0550449 -0.235825 0)
(0.047721 -0.246364 0)
(0.0402326 -0.257734 0)
(0.032577 -0.270425 0)
(0.0247346 -0.285132 0)
(0.016664 -0.302786 0)
(0.00830545 -0.324556 0)
(-0.000402182 -0.351767 0)
(-0.00947782 -0.385687 0)
(-0.0188164 -0.427085 0)
(-0.028066 -0.475471 0)
(-0.0364837 -0.527953 0)
(-0.0428373 -0.57782 0)
(-0.0454929 -0.613326 0)
(-0.042876 -0.617909 0)
(-0.0343977 -0.57373 0)
(-0.0215825 -0.469627 0)
(-0.00862133 -0.309512 0)
(-0.00140795 -0.110634 0)
(0.11616 -0.153733 0)
(0.110316 -0.162831 0)
(0.104199 -0.171966 0)
(0.0978133 -0.181136 0)
(0.0911651 -0.190347 0)
(0.084265 -0.199616 0)
(0.0771271 -0.208986 0)
(0.0697689 -0.218532 0)
(0.0622097 -0.228384 0)
(0.0544687 -0.238751 0)
(0.0465607 -0.249957 0)
(0.038491 -0.262477 0)
(0.0302483 -0.276986 0)
(0.0217993 -0.294394 0)
(0.0130886 -0.315857 0)
(0.00405149 -0.342714 0)
(-0.00534954 -0.376308 0)
(-0.0150477 -0.417581 0)
(-0.0247488 -0.466357 0)
(-0.0337738 -0.520196 0)
(-0.0409259 -0.572862 0)
(-0.0445265 -0.612842 0)
(-0.0428287 -0.623102 0)
(-0.0349595 -0.584211 0)
(-0.0222174 -0.482565 0)
(-0.00893133 -0.320341 0)
(-0.00146205 -0.115191 0)
(0.126227 -0.147893 0)
(0.120105 -0.156706 0)
(0.113689 -0.165559 0)
(0.106981 -0.174453 0)
(0.0999896 -0.183396 0)
(0.0927253 -0.192411 0)
(0.0852042 -0.201543 0)
(0.0774457 -0.21087 0)
(0.0694729 -0.220526 0)
(0.0613093 -0.230717 0)
(0.0529758 -0.24176 0)
(0.0444849 -0.254117 0)
(0.0358334 -0.268445 0)
(0.0269962 -0.285631 0)
(0.0179229 -0.306811 0)
(0.00854624 -0.333329 0)
(-0.00118698 -0.366584 0)
(-0.0112461 -0.407672 0)
(-0.0213953 -0.456717 0)
(-0.0310239 -0.511736 0)
(-0.0389814 -0.567026 0)
(-0.0435566 -0.611409 0)
(-0.0428341 -0.627504 0)
(-0.0356343 -0.594327 0)
(-0.0229768 -0.495639 0)
(-0.0093058 -0.331519 0)
(-0.00152738 -0.119929 0)
(0.136436 -0.141783 0)
(0.130032 -0.15029 0)
(0.123311 -0.158839 0)
(0.116277 -0.167434 0)
(0.108938 -0.176089 0)
(0.101306 -0.184829 0)
(0.093399 -0.193705 0)
(0.085238 -0.2028 0)
(0.0768494 -0.212248 0)
(0.0682612 -0.222256 0)
(0.0594997 -0.233136 0)
(0.050584 -0.245339 0)
(0.041519 -0.259502 0)
(0.032287 -0.276488 0)
(0.0228431 -0.29741 0)
(0.013119 -0.323605 0)
(0.00304771 -0.356511 0)
(-0.00737399 -0.397359 0)
(-0.0179679 -0.446554 0)
(-0.0281967 -0.502572 0)
(-0.0369673 -0.560291 0)
(-0.0425507 -0.608979 0)
(-0.0428691 -0.631052 0)
(-0.0364153 -0.604037 0)
(-0.0238695 -0.508867 0)
(-0.00975395 -0.343108 0)
(-0.00160601 -0.124884 0)
(0.146781 -0.1354 0)
(0.140092 -0.143578 0)
(0.133065 -0.151801 0)
(0.125703 -0.160077 0)
(0.118015 -0.168423 0)
(0.110015 -0.17687 0)
(0.101722 -0.185473 0)
(0.0931594 -0.194321 0)
(0.084357 -0.20355 0)
(0.0753463 -0.213369 0)
(0.0661587 -0.224086 0)
(0.0568194 -0.23614 0)
(0.0473401 -0.250152 0)
(0.0377106 -0.266959 0)
(0.0278912 -0.287646 0)
(0.0178138 -0.313534 0)
(0.00739947 -0.346086 0)
(-0.00338614 -0.386644 0)
(-0.0144218 -0.435871 0)
(-0.0252477 -0.492701 0)
(-0.0348398 -0.552635 0)
(-0.0414682 -0.605501 0)
(-0.042903 -0.633669 0)
(-0.0372902 -0.613279 0)
(-0.0249032 -0.52226 0)
(-0.0102859 -0.355179 0)
(-0.00170026 -0.130098 0)
(0.157256 -0.128741 0)
(0.150281 -0.13657 0)
(0.142946 -0.144446 0)
(0.135258 -0.152382 0)
(0.127224 -0.160399 0)
(0.118859 -0.168534 0)
(0.110185 -0.176849 0)
(0.101228 -0.185435 0)
(0.0920182 -0.194436 0)
(0.0825925 -0.20406 0)
(0.0729859 -0.214612 0)
(0.063229 -0.226524 0)
(0.0533397 -0.240397 0)
(0.0433141 -0.257043 0)
(0.0331179 -0.277516 0)
(0.0226834 -0.303113 0)
(0.0119223 -0.335307 0)
(0.000771371 -0.375526 0)
(-0.0107036 -0.424669 0)
(-0.0221237 -0.482119 0)
(-0.0325461 -0.544036 0)
(-0.0402592 -0.600915 0)
(-0.0428957 -0.635266 0)
(-0.0382394 -0.621973 0)
(-0.0260832 -0.535814 0)
(-0.0109131 -0.367803 0)
(-0.00181275 -0.135616 0)
(0.167848 -0.121806 0)
(0.16059 -0.129265 0)
(0.152953 -0.136775 0)
(0.144943 -0.144352 0)
(0.13657 -0.152022 0)
(0.12785 -0.15983 0)
(0.118806 -0.16784 0)
(0.109465 -0.176154 0)
(0.099862 -0.184916 0)
(0.0900349 -0.194339 0)
(0.0800228 -0.204725 0)
(0.0698605 -0.216498 0)
(0.0595709 -0.230242 0)
(0.0491557 -0.246742 0)
(0.0385851 -0.267019 0)
(0.0277926 -0.292339 0)
(0.0166817 -0.32417 0)
(0.00516367 -0.364006 0)
(-0.00674913 -0.412952 0)
(-0.0187614 -0.470823 0)
(-0.0300234 -0.534465 0)
(-0.0388635 -0.595155 0)
(-0.0427967 -0.635735 0)
(-0.039235 -0.630014 0)
(-0.0274116 -0.549506 0)
(-0.0116482 -0.381055 0)
(-0.00194664 -0.141492 0)
(0.178546 -0.1146 0)
(0.171011 -0.121671 0)
(0.163081 -0.128796 0)
(0.15476 -0.135996 0)
(0.146062 -0.143304 0)
(0.137003 -0.150769 0)
(0.127606 -0.158463 0)
(0.117902 -0.166492 0)
(0.107926 -0.175007 0)
(0.0977191 -0.184224 0)
(0.0873225 -0.194441 0)
(0.0767741 -0.206077 0)
(0.0661006 -0.219697 0)
(0.0553076 -0.236062 0)
(0.0443694 -0.256156 0)
(0.0332203 -0.281211 0)
(0.0217577 -0.312674 0)
(0.00986997 -0.352083 0)
(-0.00248112 -0.400721 0)
(-0.015085 -0.458809 0)
(-0.0271966 -0.523897 0)
(-0.0372083 -0.588149 0)
(-0.0425434 -0.634953 0)
(-0.0402387 -0.637272 0)
(-0.0288867 -0.56329 0)
(-0.0125065 -0.395012 0)
(-0.00210581 -0.147786 0)
(0.189335 -0.107131 0)
(0.181537 -0.113797 0)
(0.173329 -0.120522 0)
(0.164717 -0.127331 0)
(0.155715 -0.134263 0)
(0.146341 -0.141373 0)
(0.136618 -0.148739 0)
(0.126579 -0.156474 0)
(0.116261 -0.164735 0)
(0.105705 -0.173739 0)
(0.0949533 -0.183784 0)
(0.0840464 -0.195281 0)
(0.0730126 -0.208781 0)
(0.0618602 -0.225015 0)
(0.0505657 -0.244935 0)
(0.0390646 -0.269728 0)
(0.0272488 -0.300815 0)
(0.0149872 -0.339755 0)
(0.00219441 -0.387974 0)
(-0.0110032 -0.44607 0)
(-0.0239759 -0.512301 0)
(-0.0352063 -0.579816 0)
(-0.0420583 -0.632777 0)
(-0.0411998 -0.64358 0)
(-0.030501 -0.577091 0)
(-0.0135068 -0.409748 0)
(-0.00229555 -0.154568 0)
(0.200202 -0.0994149 0)
(0.192163 -0.105663 0)
(0.183702 -0.111975 0)
(0.174828 -0.118381 0)
(0.165553 -0.124926 0)
(0.155898 -0.131672 0)
(0.145888 -0.138702 0)
(0.135554 -0.146136 0)
(0.124934 -0.154135 0)
(0.11407 -0.16292 0)
(0.103004 -0.172788 0)
(0.0917756 -0.184141 0)
(0.0804135 -0.197517 0)
(0.0689266 -0.21362 0)
(0.0572926 -0.233364 0)
(0.0454468 -0.257895 0)
(0.0332767 -0.288592 0)
(0.0206347 -0.327018 0)
(0.00739291 -0.374707 0)
(-0.00640505 -0.432596 0)
(-0.0202539 -0.499647 0)
(-0.0327533 -0.570072 0)
(-0.0412474 -0.629048 0)
(-0.0420524 -0.64874 0)
(-0.0322399 -0.590792 0)
(-0.0146731 -0.425334 0)
(-0.0025236 -0.161917 0)
(0.211144 -0.0914756 0)
(0.202894 -0.0972953 0)
(0.194216 -0.103186 0)
(0.185118 -0.109182 0)
(0.175616 -0.115334 0)
(0.165728 -0.121708 0)
(0.15548 -0.128397 0)
(0.144905 -0.135523 0)
(0.134038 -0.143254 0)
(0.122919 -0.151813 0)
(0.11159 -0.161495 0)
(0.100087 -0.172696 0)
(0.0884383 -0.185938 0)
(0.0766498 -0.2019 0)
(0.0646984 -0.221459 0)
(0.0525182 -0.245713 0)
(0.0399925 -0.275999 0)
(0.0269601 -0.313861 0)
(0.0132572 -0.360911 0)
(-0.00115486 -0.418377 0)
(-0.0159014 -0.485897 0)
(-0.0297242 -0.558822 0)
(-0.0399959 -0.623583 0)
(-0.0427123 -0.652508 0)
(-0.0340792 -0.604225 0)
(-0.0160374 -0.441827 0)
(-0.00280211 -0.169932 0)
(0.222167 -0.0833484 0)
(0.213752 -0.0887346 0)
(0.204906 -0.094199 0)
(0.19564 -0.0997817 0)
(0.185967 -0.105537 0)
(0.175909 -0.111538 0)
(0.16549 -0.117882 0)
(0.154741 -0.124697 0)
(0.143695 -0.132154 0)
(0.132389 -0.140477 0)
(0.120861 -0.149962 0)
(0.109144 -0.160996 0)
(0.0972587 -0.174085 0)
(0.0852096 -0.189886 0)
(0.072969 -0.209237 0)
(0.0604679 -0.233189 0)
(0.0475852 -0.263029 0)
(0.0341484 -0.300269 0)
(0.0199622 -0.346566 0)
(0.00491295 -0.403391 0)
(-0.0107594 -0.471011 0)
(-0.0259675 -0.545965 0)
(-0.0381641 -0.616178 0)
(-0.0430723 -0.654593 0)
(-0.0359818 -0.617162 0)
(-0.0176424 -0.459267 0)
(-0.00315076 -0.178734 0)
(0.233307 -0.0750825 0)
(0.224787 -0.0800352 0)
(0.215839 -0.0850747 0)
(0.206475 -0.0902453 0)
(0.196709 -0.0956059 0)
(0.186561 -0.101234 0)
(0.176053 -0.107232 0)
(0.165213 -0.113732 0)
(0.154072 -0.120908 0)
(0.142662 -0.128985 0)
(0.131013 -0.138256 0)
(0.119152 -0.149101 0)
(0.107093 -0.162011 0)
(0.0948332 -0.177617 0)
(0.0823377 -0.196721 0)
(0.0695324 -0.22033 0)
(0.0562905 -0.249673 0)
(0.0424295 -0.286222 0)
(0.0277279 -0.331647 0)
(0.0120064 -0.387605 0)
(-0.00463392 -0.454938 0)
(-0.0213001 -0.531388 0)
(-0.0355814 -0.606604 0)
(-0.0429959 -0.654649 0)
(-0.0378919 -0.629295 0)
(-0.0195436 -0.477661 0)
(-0.00360131 -0.188478 0)
(0.244641 -0.0667446 0)
(0.236095 -0.0712697 0)
(0.227132 -0.0758906 0)
(0.217761 -0.0806555 0)
(0.207996 -0.085627 0)
(0.197856 -0.0908867 0)
(0.18736 -0.0965398 0)
(0.176532 -0.102722 0)
(0.165397 -0.109609 0)
(0.153979 -0.117425 0)
(0.142301 -0.12646 0)
(0.13038 -0.137084 0)
(0.11822 -0.149774 0)
(0.105807 -0.165137 0)
(0.0930973 -0.18394 0)
(0.0800075 -0.207141 0)
(0.0664033 -0.235918 0)
(0.0520922 -0.271687 0)
(0.0368313 -0.316109 0)
(0.0203847 -0.370973 0)
(0.00271592 -0.437615 0)
(-0.0154958 -0.514962 0)
(-0.0320369 -0.594603 0)
(-0.0423085 -0.652266 0)
(-0.0397269 -0.640216 0)
(-0.0218084 -0.49696 0)
(-0.0042036 -0.19937 0)
(0.256317 -0.0584219 0)
(0.247848 -0.0625309 0)
(0.238975 -0.0667451 0)
(0.229709 -0.0711154 0)
(0.220061 -0.0757073 0)
(0.210047 -0.0806049 0)
(0.199683 -0.0859156 0)
(0.188985 -0.0917768 0)
(0.177972 -0.0983636 0)
(0.166658 -0.105899 0)
(0.155057 -0.114667 0)
(0.143171 -0.125029 0)
(0.130992 -0.137446 0)
(0.118493 -0.1525 0)
(0.105615 -0.170925 0)
(0.092263 -0.193633 0)
(0.0782921 -0.221746 0)
(0.0634982 -0.256625 0)
(0.04762 -0.299897 0)
(0.0303739 -0.353428 0)
(0.0115973 -0.418963 0)
(-0.00827082 -0.496538 0)
(-0.02727 -0.579884 0)
(-0.0407843 -0.646958 0)
(-0.0413639 -0.649395 0)
(-0.0245096 -0.517029 0)
(-0.00503232 -0.211681 0)
(0.268591 -0.0502248 0)
(0.260324 -0.0539348 0)
(0.251671 -0.0577588 0)
(0.242643 -0.0617493 0)
(0.233248 -0.0659735 0)
(0.223496 -0.0705166 0)
(0.213399 -0.0754867 0)
(0.202965 -0.0810209 0)
(0.192204 -0.0872925 0)
(0.181119 -0.0945207 0)
(0.169709 -0.102983 0)
(0.157964 -0.11303 0)
(0.145857 -0.125104 0)
(0.133344 -0.139765 0)
(0.120349 -0.157712 0)
(0.106761 -0.179813 0)
(0.0924172 -0.207136 0)
(0.0771004 -0.240983 0)
(0.0605306 -0.282931 0)
(0.0423856 -0.334877 0)
(0.022403 -0.398874 0)
(0.000735944 -0.475972 0)
(-0.0209493 -0.562117 0)
(-0.0381279 -0.638154 0)
(-0.0426208 -0.65615 0)
(-0.0277088 -0.537602 0)
(-0.00619329 -0.225764 0)
(0.28188 -0.0422876 0)
(0.273962 -0.0456198 0)
(0.26568 -0.0490732 0)
(0.257041 -0.0527009 0)
(0.248049 -0.0565701 0)
(0.238711 -0.0607659 0)
(0.229029 -0.0653952 0)
(0.219004 -0.0705929 0)
(0.208634 -0.0765285 0)
(0.19791 -0.0834155 0)
(0.186814 -0.0915223 0)
(0.17532 -0.101187 0)
(0.163381 -0.112834 0)
(0.150931 -0.126996 0)
(0.137874 -0.14434 0)
(0.124075 -0.16569 0)
(0.109352 -0.192061 0)
(0.0934656 -0.224696 0)
(0.0761168 -0.265113 0)
(0.0569508 -0.315197 0)
(0.035612 -0.377211 0)
(0.0119911 -0.453087 0)
(-0.0126191 -0.540916 0)
(-0.0339503 -0.625189 0)
(-0.0432305 -0.659623 0)
(-0.0314239 -0.558227 0)
(-0.00782398 -0.242069 0)
(0.296829 -0.0347666 0)
(0.289424 -0.0377441 0)
(0.281677 -0.0408473 0)
(0.273589 -0.0441286 0)
(0.265163 -0.0476542 0)
(0.256395 -0.051507 0)
(0.247281 -0.0557913 0)
(0.237813 -0.0606376 0)
(0.227974 -0.0662095 0)
(0.217743 -0.0727124 0)
(0.207084 -0.0804035 0)
(0.195951 -0.0896054 0)
(0.184276 -0.100722 0)
(0.171967 -0.11426 0)
(0.158903 -0.13085 0)
(0.144919 -0.151272 0)
(0.129807 -0.17649 0)
(0.1133 -0.207687 0)
(0.0950698 -0.24632 0)
(0.0747249 -0.294232 0)
(0.0518325 -0.353799 0)
(0.0261224 -0.427648 0)
(-0.00168954 -0.515968 0)
(-0.0277458 -0.607333 0)
(-0.0427933 -0.658753 0)
(-0.0355701 -0.578188 0)
(-0.010078 -0.261134 0)
(0.314393 -0.0278327 0)
(0.307672 -0.0304772 0)
(0.300625 -0.0332482 0)
(0.293252 -0.0361965 0)
(0.285547 -0.0393856 0)
(0.277501 -0.042895 0)
(0.269102 -0.046824 0)
(0.260328 -0.051297 0)
(0.251152 -0.0564695 0)
(0.241535 -0.062536 0)
(0.231426 -0.0697399 0)
(0.220755 -0.0783856 0)
(0.209432 -0.0888541 0)
(0.197336 -0.101621 0)
(0.184315 -0.117279 0)
(0.170173 -0.136565 0)
(0.154662 -0.160389 0)
(0.137479 -0.189874 0)
(0.11826 -0.226413 0)
(0.0965719 -0.271789 0)
(0.0719196 -0.328398 0)
(0.0438522 -0.39935 0)
(0.0125588 -0.486835 0)
(-0.0187465 -0.583724 0)
(-0.0406957 -0.652237 0)
(-0.0398786 -0.596415 0)
(-0.0130816 -0.283543 0)
(0.335927 -0.0216562 0)
(0.330046 -0.0239844 0)
(0.32385 -0.026436 0)
(0.317334 -0.0290586 0)
(0.310486 -0.0319118 0)
(0.30329 -0.0350701 0)
(0.295725 -0.0386263 0)
(0.287758 -0.0426966 0)
(0.27935 -0.0474258 0)
(0.270447 -0.052995 0)
(0.260977 -0.0596304 0)
(0.25085 -0.0676151 0)
(0.23995 -0.0773026 0)
(0.228127 -0.0891349 0)
(0.215192 -0.103663 0)
(0.200911 -0.121575 0)
(0.184992 -0.143723 0)
(0.167083 -0.171169 0)
(0.146769 -0.205242 0)
(0.123562 -0.247656 0)
(0.0969003 -0.300766 0)
(0.0661788 -0.367963 0)
(0.0311506 -0.453063 0)
(-0.00598172 -0.553518 0)
(-0.0360657 -0.638503 0)
(-0.0437968 -0.611337 0)
(-0.0168449 -0.309779 0)
(0.363265 -0.0163835 0)
(0.358338 -0.0184044 0)
(0.3531 -0.020541 0)
(0.347538 -0.022837 0)
(0.341637 -0.0253469 0)
(0.335374 -0.0281387 0)
(0.328717 -0.031297 0)
(0.321627 -0.0349277 0)
(0.314049 -0.0391627 0)
(0.305916 -0.0441667 0)
(0.297139 -0.0501456 0)
(0.287605 -0.0573567 0)
(0.277172 -0.0661219 0)
(0.265659 -0.076844 0)
(0.25284 -0.0900271 0)
(0.238436 -0.106302 0)
(0.222104 -0.126461 0)
(0.203432 -0.151495 0)
(0.181936 -0.182665 0)
(0.157053 -0.221609 0)
(0.128144 -0.270607 0)
(0.094472 -0.333124 0)
(0.0553748 -0.414166 0)
(0.0118886 -0.515776 0)
(-0.027515 -0.615626 0)
(-0.0463469 -0.620725 0)
(-0.0211225 -0.339969 0)
(0.398745 -0.0121051 0)
(0.394813 -0.0138181 0)
(0.390564 -0.0156352 0)
(0.385982 -0.0175953 0)
(0.381046 -0.0197466 0)
(0.375727 -0.0221494 0)
(0.369987 -0.0248787 0)
(0.363776 -0.0280279 0)
(0.357031 -0.0317139 0)
(0.34967 -0.0360821 0)
(0.341588 -0.0413143 0)
(0.332652 -0.0476379 0)
(0.322694 -0.0553378 0)
(0.311504 -0.0647712 0)
(0.298816 -0.0763874 0)
(0.284304 -0.0907526 0)
(0.267569 -0.108584 0)
(0.248125 -0.130796 0)
(0.225406 -0.158567 0)
(0.198745 -0.193456 0)
(0.167403 -0.23765 0)
(0.130498 -0.294539 0)
(0.0870002 -0.369816 0)
(0.0368278 -0.469588 0)
(-0.0130031 -0.581543 0)
(-0.0460193 -0.621682 0)
(-0.0252265 -0.373718 0)
(0.445139 -0.00881916 0)
(0.442137 -0.0102159 0)
(0.438807 -0.0117021 0)
(0.43513 -0.013311 0)
(0.431082 -0.0150837 0)
(0.42663 -0.0170716 0)
(0.42173 -0.0193386 0)
(0.416325 -0.0219644 0)
(0.410344 -0.0250481 0)
(0.403692 -0.0287132 0)
(0.396251 -0.0331143 0)
(0.387871 -0.0384443 0)
(0.378362 -0.0449455 0)
(0.367483 -0.0529223 0)
(0.354936 -0.0627601 0)
(0.340346 -0.0749478 0)
(0.323253 -0.0901149 0)
(0.303093 -0.109075 0)
(0.279202 -0.132911 0)
(0.250778 -0.16308 0)
(0.216947 -0.201675 0)
(0.176634 -0.251932 0)
(0.128541 -0.319713 0)
(0.0715631 -0.414182 0)
(0.0104653 -0.534273 0)
(-0.0404702 -0.610824 0)
(-0.0277455 -0.410194 0)
(0.505394 -0.0064018 0)
(0.503134 -0.00747194 0)
(0.500538 -0.00861483 0)
(0.497588 -0.00985742 0)
(0.494254 -0.0112332 0)
(0.490502 -0.0127836 0)
(0.486284 -0.0145605 0)
(0.481539 -0.0166279 0)
(0.476187 -0.0190658 0)
(0.470127 -0.0219735 0)
(0.463231 -0.025475 0)
(0.455334 -0.0297251 0)
(0.44623 -0.0349184 0)
(0.435656 -0.0412994 0)
(0.423283 -0.04918 0)
(0.408694 -0.0589576 0)
(0.391379 -0.0711544 0)
(0.370685 -0.0864556 0)
(0.345849 -0.105809 0)
(0.315896 -0.13053 0)
(0.279784 -0.162598 0)
(0.236142 -0.205074 0)
(0.183534 -0.263632 0)
(0.119845 -0.349079 0)
(0.04723 -0.471873 0)
(-0.026173 -0.584448 0)
(-0.0260252 -0.447302 0)
(0.582157 -0.00459918 0)
(0.580353 -0.00533996 0)
(0.578222 -0.00613589 0)
(0.575742 -0.00700719 0)
(0.572886 -0.00797898 0)
(0.569615 -0.00908232 0)
(0.565881 -0.0103558 0)
(0.561618 -0.0118471 0)
(0.556745 -0.0136156 0)
(0.551155 -0.0157347 0)
(0.544714 -0.0182961 0)
(0.53725 -0.0214136 0)
(0.528549 -0.0252307 0)
(0.518334 -0.0299265 0)
(0.506262 -0.0357319 0)
(0.491886 -0.0429396 0)
(0.474666 -0.0519443 0)
(0.453873 -0.0632659 0)
(0.428666 -0.0776645 0)
(0.397857 -0.0962189 0)
(0.360224 -0.1207 0)
(0.313876 -0.153916 0)
(0.257289 -0.201243 0)
(0.18718 -0.273672 0)
(0.103411 -0.39177 0)
(0.00282249 -0.536424 0)
(-0.0142013 -0.477143 0)
(0.677133 -0.00307609 0)
(0.675501 -0.00350502 0)
(0.673577 -0.00397125 0)
(0.671341 -0.00448806 0)
(0.668763 -0.00507188 0)
(0.665806 -0.00574297 0)
(0.662419 -0.0065264 0)
(0.65854 -0.00745306 0)
(0.654085 -0.00856127 0)
(0.648949 -0.00989815 0)
(0.642999 -0.0115226 0)
(0.636064 -0.0135067 0)
(0.627935 -0.0159423 0)
(0.618333 -0.0189416 0)
(0.60693 -0.0226521 0)
(0.593272 -0.027256 0)
(0.576839 -0.0330097 0)
(0.556859 -0.0402393 0)
(0.532509 -0.049465 0)
(0.502379 -0.0614066 0)
(0.465176 -0.0774235 0)
(0.418159 -0.0997062 0)
(0.359631 -0.133111 0)
(0.283934 -0.187369 0)
(0.189934 -0.289437 0)
(0.0590363 -0.452091 0)
(0.0207609 -0.476853 0)
(0.790697 -0.0016141 0)
(0.789159 -0.00178615 0)
(0.787402 -0.00197838 0)
(0.785407 -0.00219742 0)
(0.783148 -0.00245144 0)