/*--------------------------------*- C++ -*----------------------------------*\
  =========                 |
  \\      /  F ield         | OpenFOAM: The Open Source CFD Toolbox
   \\    /   O peration     | Website:  https://openfoam.org
    \\  /    A nd           | Version:  9
     \\/     M anipulation  |
\*---------------------------------------------------------------------------*/
FoamFile
{
    format      ascii;
    class       volScalarField;
    location    "1.75";
    object      p;
}
// * * * * * * * * * * * * * * * * * * * * * * * * * * * * * * * * * * * * * //

dimensions      [0 2 -2 0 0 0 0];

internalField   nonuniform List<scalar> 
1250
(
-0.0486595
-0.051037
-0.053448
-0.0558755
-0.0583035
-0.0607173
-0.0631035
-0.0654499
-0.067746
-0.0699824
-0.072151
-0.0742446
-0.0762568
-0.0781819
-0.0800146
-0.08175
-0.0833833
-0.0849101
-0.0242159
-0.024052
-0.0239427
-0.0238679
-0.0238264
-0.0238285
-0.0238838
-0.0240013
-0.0241895
-0.024457
-0.0248119
-0.0252621
-0.0258155
-0.0264798
-0.0272627
-0.0281716
-0.0292128
-0.0303917
-0.0317118
-0.0331744
-0.0347781
-0.0365187
-0.0383892
-0.0403794
-0.0424772
-0.0446679
-0.0469358
-0.0492639
-0.0516348
-0.0540315
-0.0564377
-0.0588379
-0.0612178
-0.0635645
-0.0658665
-0.0681133
-0.070296
-0.0724064
-0.0744374
-0.0763825
-0.0782359
-0.0799922
-0.0816463
-0.0831932
-0.024107
-0.02395
-0.0238421
-0.0237633
-0.0237112
-0.0236946
-0.0237221
-0.0238018
-0.0239423
-0.0241525
-0.024441
-0.0248168
-0.0252886
-0.0258651
-0.026555
-0.0273664
-0.028307
-0.0293831
-0.0305994
-0.0319585
-0.0334605
-0.0351027
-0.0368793
-0.0387819
-0.0407993
-0.0429181
-0.0451231
-0.0473977
-0.049725
-0.0520879
-0.0544696
-0.056854
-0.059226
-0.061572
-0.0638792
-0.0661364
-0.0683336
-0.0704618
-0.0725129
-0.0744798
-0.0763559
-0.0781353
-0.0798124
-0.081382
-0.0239821
-0.0238332
-0.0237277
-0.0236459
-0.0235842
-0.0235496
-0.0235493
-0.0235908
-0.0236824
-0.0238332
-0.0240526
-0.0243505
-0.0247367
-0.0252211
-0.0258134
-0.0265231
-0.0273587
-0.0283276
-0.029436
-0.0306876
-0.0320839
-0.0336237
-0.0353027
-0.0371137
-0.0390468
-0.0410897
-0.0432279
-0.0454456
-0.047726
-0.050052
-0.0524064
-0.0547726
-0.057135
-0.0594788
-0.0617905
-0.0640579
-0.0662699
-0.0684165
-0.0704889
-0.072479
-0.0743797
-0.0761843
-0.0778867
-0.0794813
-0.0238439
-0.0237041
-0.0236021
-0.0235184
-0.023448
-0.0233961
-0.0233683
-0.023371
-0.0234124
-0.0235017
-0.0236493
-0.0238658
-0.0241625
-0.0245505
-0.025041
-0.0256445
-0.0263708
-0.0272286
-0.0282252
-0.0293657
-0.0306529
-0.0320869
-0.0336649
-0.0353809
-0.0372264
-0.03919
-0.0412581
-0.0434156
-0.0456458
-0.0479318
-0.0502562
-0.052602
-0.0549526
-0.0572928
-0.0596079
-0.0618849
-0.0641116
-0.0662772
-0.0683717
-0.0703864
-0.0723133
-0.074145
-0.0758749
-0.0774968
-0.0236947
-0.0235654
-0.023468
-0.0233834
-0.0233053
-0.0232367
-0.0231815
-0.0231451
-0.0231351
-0.0231611
-0.023234
-0.0233659
-0.0235693
-0.0238569
-0.0242413
-0.0247344
-0.0253475
-0.0260905
-0.0269719
-0.027998
-0.0291731
-0.0304985
-0.0319727
-0.033591
-0.0353459
-0.0372273
-0.0392223
-0.0413165
-0.0434937
-0.0457369
-0.0480285
-0.0503513
-0.0526882
-0.055023
-0.0573404
-0.0596262
-0.0618674
-0.064052
-0.0661694
-0.0682097
-0.0701641
-0.0720246
-0.0737839
-0.0754354
-0.023537
-0.0234194
-0.0233278
-0.0232434
-0.0231584
-0.0230736
-0.0229911
-0.022915
-0.0228525
-0.0228132
-0.0228089
-0.0228529
-0.0229594
-0.0231427
-0.023417
-0.023796
-0.0242922
-0.0249171
-0.0256802
-0.0265895
-0.02765
-0.0288645
-0.0302327
-0.0317511
-0.0334133
-0.0352102
-0.0371298
-0.0391582
-0.0412797
-0.0434775
-0.045734
-0.0480315
-0.0503526
-0.0526803
-0.0549986
-0.0572922
-0.0595473
-0.0617509
-0.0638913
-0.065958
-0.0679411
-0.0698319
-0.0716224
-0.0733053
-0.0233728
-0.0232684
-0.0231838
-0.0231006
-0.0230095
-0.0229089
-0.0227989
-0.0226824
-0.0225659
-0.0224592
-0.0223751
-0.0223281
-0.0223342
-0.0224095
-0.0225702
-0.0228315
-0.0232077
-0.0237116
-0.0243542
-0.0251444
-0.0260887
-0.0271909
-0.0284517
-0.0298688
-0.031437
-0.0331478
-0.0349902
-0.036951
-0.0390148
-0.0411652
-0.0433844
-0.0456547
-0.047958
-0.0502769
-0.0525945
-0.0548949
-0.0571631
-0.0593853
-0.0615489
-0.0636423
-0.0656548
-0.0675771
-0.0694002
-0.0711163
-0.023204
-0.0231146
-0.0230383
-0.0229573
-0.0228607
-0.0227444
-0.0226065
-0.0224485
-0.0222762
-0.0220999
-0.0219332
-0.0217921
-0.0216945
-0.0216585
-0.0217022
-0.0218429
-0.0220964
-0.0224772
-0.0229975
-0.0236674
-0.0244946
-0.0254837
-0.0266367
-0.0279522
-0.0294257
-0.0310498
-0.0328142
-0.0347063
-0.0367112
-0.0388125
-0.0409929
-0.0432341
-0.045518
-0.0478265
-0.050142
-0.0524479
-0.0547283
-0.0569685
-0.059155
-0.0612752
-0.0633177
-0.0652721
-0.067129
-0.0688798
-0.0230327
-0.0229603
-0.0228938
-0.0228159
-0.0227142
-0.0225819
-0.022415
-0.0222139
-0.0219839
-0.0217354
-0.0214832
-0.021245
-0.0210404
-0.0208901
-0.0208141
-0.0208316
-0.0209606
-0.0212167
-0.0216138
-0.022163
-0.0228729
-0.0237494
-0.024795
-0.0260094
-0.0273888
-0.0289265
-0.030613
-0.0324361
-0.0343815
-0.0364331
-0.0385735
-0.0407844
-0.0430475
-0.0453441
-0.0476562
-0.0499663
-0.0522579
-0.0545154
-0.0567242
-0.0588711
-0.0609437
-0.0629308
-0.0648223
-0.0666087
-0.0228607
-0.022808
-0.0227528
-0.0226788
-0.022572
-0.0224229
-0.0222256
-0.0219793
-0.0216889
-0.0213653
-0.0210245
-0.020686
-0.0203717
-0.0201043
-0.0199063
-0.019799
-0.0198021
-0.0199329
-0.0202067
-0.0206357
-0.0212294
-0.0219945
-0.0229343
-0.0240491
-0.0253359
-0.0267886
-0.0283983
-0.0301532
-0.0320395
-0.0340412
-0.0361412
-0.0383212
-0.0405625
-0.0428462
-0.0451537
-0.0474669
-0.0497687
-0.0520425
-0.054273
-0.0564461
-0.0585486
-0.0605686
-0.062495
-0.0643179
-0.0226899
-0.0226603
-0.0226184
-0.0225488
-0.0224365
-0.0222692
-0.0220393
-0.0217448
-0.0213906
-0.0209886
-0.0205559
-0.0201141
-0.0196873
-0.0193006
-0.0189789
-0.0187458
-0.0186227
-0.0186286
-0.0187801
-0.0190904
-0.0195699
-0.020226
-0.0210626
-0.0220805
-0.0232774
-0.0246475
-0.0261824
-0.0278708
-0.0296992
-0.0316519
-0.0337119
-0.0358609
-0.03808
-0.0403502
-0.0426522
-0.0449677
-0.0472785
-0.0495677
-0.0518192
-0.0540179
-0.05615
-0.0582026
-0.0601641
-0.0620237
-0.0225224
-0.0225208
-0.0224941
-0.0224294
-0.0223105
-0.0221228
-0.0218569
-0.0215104
-0.0210885
-0.020604
-0.0200757
-0.0195275
-0.0189858
-0.0184782
-0.018032
-0.0176728
-0.0174242
-0.0173066
-0.0173378
-0.0175321
-0.0179006
-0.0184512
-0.0191884
-0.0201132
-0.0212238
-0.0225148
-0.0239781
-0.0256028
-0.0273756
-0.029281
-0.0313022
-0.0334208
-0.035618
-0.0378744
-0.0401706
-0.0424875
-0.0448067
-0.0471104
-0.0493819
-0.0516055
-0.0537665
-0.0558513
-0.0578477
-0.0597442
-0.0223623
-0.022394
-0.0223846
-0.0223248
-0.0221975
-0.0219862
-0.0216798
-0.0212764
-0.0207818
-0.0202101
-0.0195824
-0.0189246
-0.0182658
-0.0176362
-0.0170654
-0.0165811
-0.0162087
-0.0159702
-0.0158844
-0.0159665
-0.0162283
-0.0166781
-0.0173206
-0.0181573
-0.0191864
-0.0204029
-0.0217988
-0.0233635
-0.0250838
-0.0269445
-0.0289289
-0.0310187
-0.0331948
-0.0354378
-0.0377281
-0.0400462
-0.0423731
-0.0446906
-0.0469813
-0.0492289
-0.051418
-0.0535345
-0.0555653
-0.0574983
-0.0222135
-0.0222861
-0.0222968
-0.0222411
-0.0221024
-0.0218623
-0.0215099
-0.0210433
-0.0204699
-0.0198056
-0.0190741
-0.0183037
-0.0175261
-0.0167741
-0.0160794
-0.0154719
-0.0149786
-0.014623
-0.0144247
-0.0143998
-0.0145604
-0.0149152
-0.015469
-0.0162236
-0.017177
-0.0183245
-0.0196582
-0.0211675
-0.0228394
-0.024659
-0.0266093
-0.0286724
-0.030829
-0.0330597
-0.0353445
-0.0376637
-0.039998
-0.0423287
-0.044638
-0.0469088
-0.0491252
-0.0512726
-0.0533371
-0.0553062
-0.0220828
-0.0222064
-0.02224
-0.0221866
-0.0220318
-0.0217564
-0.02135
-0.0208124
-0.0201532
-0.0193897
-0.0185499
-0.0176639
-0.0167661
-0.0158918
-0.0150751
-0.0143475
-0.0137375
-0.0132697
-0.0129648
-0.0128391
-0.0129053
-0.0131719
-0.0136442
-0.0143235
-0.0152081
-0.016293
-0.0175705
-0.0190299
-0.0206584
-0.0224409
-0.0243608
-0.0264
-0.0285393
-0.0307591
-0.0330394
-0.0353602
-0.037702
-0.0400456
-0.0423728
-0.044666
-0.046909
-0.0490862
-0.0511837
-0.0531881
-0.0219811
-0.0221687
-0.0222278
-0.0221731
-0.0219951
-0.0216754
-0.0212051
-0.0205867
-0.0198324
-0.0189638
-0.0180101
-0.0170053
-0.0159864
-0.0149909
-0.0140548
-0.0132112
-0.0124899
-0.0119163
-0.0115117
-0.0112927
-0.0112722
-0.0114588
-0.0118573
-0.0124693
-0.0132926
-0.0143222
-0.0155502
-0.0169659
-0.0185565
-0.020307
-0.0222006
-0.0242193
-0.026344
-0.028555
-0.0308322
-0.0331555
-0.0355051
-0.0378615
-0.0402061
-0.0425212
-0.0447897
-0.0469961
-0.0491255
-0.0511643
-0.0219253
-0.022194
-0.0222806
-0.0222181
-0.0220065
-0.0216299
-0.0210829
-0.0203716
-0.0195121
-0.0185296
-0.0174566
-0.0163304
-0.0151893
-0.0140745
-0.0130227
-0.0120684
-0.0112422
-0.0105703
-0.0100741
-0.00977042
-0.009672
-0.00978728
-0.0101209
-0.010674
-0.0114443
-0.0124264
-0.0136122
-0.0149911
-0.0165498
-0.0182736
-0.0201456
-0.0221477
-0.0242611
-0.0264657
-0.0287416
-0.0310686
-0.0334265
-0.0357959
-0.0381578
-0.040494
-0.0427875
-0.0450219
-0.0471822
-0.0492542
-0.0219425
-0.0223143
-0.0224283
-0.022347
-0.0220862
-0.0216357
-0.0209953
-0.0201762
-0.019199
-0.0180931
-0.0168945
-0.0156433
-0.0143809
-0.0131486
-0.0119854
-0.0109266
-0.0100031
-0.00924118
-0.00866239
-0.00828346
-0.00811671
-0.00817025
-0.00844835
-0.00895166
-0.00967757
-0.0106204
-0.0117718
-0.0131207
-0.0146541
-0.0163568
-0.0182122
-0.0202021
-0.0223075
-0.0245086
-0.0267853
-0.0291173
-0.0314845
-0.0338672
-0.0362462
-0.0386032
-0.0409207
-0.0431821
-0.0453721
-0.0474762
-0.0220766
-0.022579
-0.0227163
-0.0225973
-0.0222642
-0.0217163
-0.0209607
-0.0200149
-0.018905
-0.0176646
-0.0163331
-0.0149534
-0.0135691
-0.0122224
-0.0109529
-0.00979626
-0.00878361
-0.00794092
-0.00728931
-0.0068451
-0.00662008
-0.00662184
-0.00685409
-0.00731699
-0.00800743
-0.00891937
-0.010044
-0.0113703
-0.0128848
-0.0145723
-0.0164161
-0.0183981
-0.0204992
-0.0226997
-0.0249795
-0.0273181
-0.0296956
-0.0320919
-0.034488
-0.0368652
-0.0392058
-0.0414931
-0.0437115
-0.0458461
-0.0223994
-0.0230654
-0.0232125
-0.0230236
-0.0225837
-0.0219058
-0.0210062
-0.0199099
-0.0186485
-0.0172599
-0.015787
-0.0142747
-0.0127677
-0.0113092
-0.00993874
-0.0086916
-0.00759831
-0.00668429
-0.00596988
-0.00547063
-0.00519759
-0.00515761
-0.00535374
-0.00578551
-0.00644929
-0.00733857
-0.00844423
-0.0097548
-0.0112568
-0.0129348
-0.014772
-0.0167503
-0.0188507
-0.0210534
-0.0233383
-0.0256851
-0.0280736
-0.030484
-0.0328969
-0.0352936
-0.0376563
-0.0399681
-0.0422131
-0.0443763
-0.0230311
-0.0238951
-0.0240185
-0.0237052
-0.0231058
-0.022252
-0.0211702
-0.0198926
-0.0184562
-0.0169029
-0.0152777
-0.0136271
-0.0119963
-0.0104282
-0.00896166
-0.00763097
-0.00646544
-0.00548936
-0.00472194
-0.00417764
-0.00386649
-0.00379446
-0.00396377
-0.00437327
-0.00501871
-0.00589308
-0.00698684
-0.00828824
-0.00978351
-0.0114572
-0.0132923
-0.0152708
-0.0173736
-0.0195809
-0.0218727
-0.0242287
-0.0266288
-0.0290531
-0.0314821
-0.0338972
-0.0362805
-0.0386148
-0.0408842
-0.0430734
-0.0241783
-0.0252624
-0.0252859
-0.0247534
-0.0239141
-0.0228195
-0.021504
-0.0200053
-0.0183642
-0.016625
-0.014834
-0.0130377
-0.0112805
-0.00960405
-0.00804548
-0.00663737
-0.00540726
-0.00437754
-0.00356609
-0.00298584
-0.00264559
-0.00255024
-0.00270107
-0.00309614
-0.00373055
-0.00459673
-0.00568473
-0.00698245
-0.0084759
-0.0101494
-0.0119861
-0.0139676
-0.016075
-0.0182885
-0.0205882
-0.0229538
-0.0253651
-0.0278024
-0.0302462
-0.0326778
-0.0350793
-0.0374334
-0.0397241
-0.041936
-0.0262106
-0.02748
-0.0272316
-0.0263137
-0.0251106
-0.023683
-0.0220643
-0.020293
-0.0184102
-0.0164596
-0.0144864
-0.012535
-0.0106476
-0.00886291
-0.00721548
-0.00573511
-0.00444685
-0.00337093
-0.00252309
-0.00191461
-0.00155284
-0.0014414
-0.00158055
-0.00196747
-0.00259656
-0.00345969
-0.00454646
-0.00584443
-0.00733937
-0.00901549
-0.0108557
-0.0128417
-0.0149546
-0.0171747
-0.0194819
-0.0218562
-0.0242774
-0.0267258
-0.029182
-0.0316272
-0.0340436
-0.0364139
-0.038722
-0.0409525
-0.0298303
-0.0310534
-0.0301346
-0.0285374
-0.0267812
-0.0248902
-0.022876
-0.0207675
-0.0185991
-0.0164089
-0.0142369
-0.0121224
-0.0101026
-0.00821166
-0.00647994
-0.00493351
-0.00359421
-0.00247949
-0.00160266
-0.000973071
-0.000596402
-0.00047493
-0.000607806
-0.000991319
-0.00161915
-0.00248262
-0.0035709
-0.00487123
-0.00636917
-0.00804879
-0.00989291
-0.0118833
-0.014001
-0.0162263
-0.0185394
-0.0209202
-0.0233488
-0.0258053
-0.0282705
-0.0307257
-0.033153
-0.0355352
-0.0378563
-0.0401007
-0.0365284
-0.0367768
-0.0342484
-0.0314735
-0.0288865
-0.0263534
-0.0238265
-0.0213077
-0.0188129
-0.016365
-0.0139909
-0.0117192
-0.0095781
-0.00759506
-0.00579412
-0.00419659
-0.00282037
-0.00167975
-0.000785468
-0.000144833
0.000238113
0.000362389
0.000229865
-0.000154962
-0.000785171
-0.00165163
-0.00274317
-0.00404685
-0.00554807
-0.00723085
-0.009078
-0.0110713
-0.013192
-0.0154204
-0.0177368
-0.0201212
-0.0225538
-0.025015
-0.0274855
-0.0299469
-0.0323811
-0.0347712
-0.037101
-0.0393551
-0.0498059
-0.0456801
-0.0395997
-0.0348639
-0.0310246
-0.0276169
-0.024465
-0.0214989
-0.0186865
-0.0160153
-0.0134856
-0.011107
-0.00889435
-0.00686489
-0.00503582
-0.0034232
-0.00204104
-0.000900734
-1.0897e-05
0.000622748
0.000997319
0.00111268
0.000971288
0.000578064
-5.98071e-05
-0.00093303
-0.00203038
-0.0033389
-0.00484405
-0.00652995
-0.00837953
-0.0103748
-0.012497
-0.0147267
-0.0170445
-0.0194304
-0.0218649
-0.0243284
-0.0268019
-0.0292669
-0.0317056
-0.034101
-0.0364371
-0.0386985
-0.0773649
-0.0572638
-0.0442706
-0.036474
-0.0310198
-0.0267715
-0.0232174
-0.0200877
-0.0172308
-0.0145736
-0.0120886
-0.0097703
-0.00762423
-0.00566178
-0.00389703
-0.00234437
-0.00101697
7.40363e-05
0.000920034
0.00151508
0.00185595
0.00194213
0.00177564
0.00136099
0.000704947
-0.000183612
-0.00129385
-0.00261316
-0.00412738
-0.00582095
-0.00767712
-0.00967819
-0.0118057
-0.0140405
-0.0163632
-0.0187544
-0.0211944
-0.0236639
-0.0261441
-0.0286166
-0.0310636
-0.033468
-0.0358141
-0.0380864
-0.164477
-0.0633452
-0.0331581
-0.0259219
-0.0219814
-0.0187667
-0.0162881
-0.0142392
-0.0123149
-0.0104071
-0.00851853
-0.00667888
-0.00491901
-0.00326908
-0.00175809
-0.000412376
0.00074549
0.00169706
0.00242794
0.00292758
0.00318904
0.00320881
0.00298649
0.00252456
0.00182813
0.00090473
-0.000235952
-0.00158227
-0.00312086
-0.00483683
-0.00671402
-0.00873518
-0.0108822
-0.0131365
-0.0154787
-0.0178896
-0.0203499
-0.0228403
-0.025342
-0.0278367
-0.0303067
-0.0327349
-0.0351053
-0.0374026
)
;

boundaryField
{
    movingWall
    {
        type            zeroGradient;
    }
    fixedWalls
    {
        type            zeroGradient;
    }
    frontAndBack
    {
        type            empty;
    }
    procBoundary2to3
    {
        type            processor;
        value           nonuniform List<scalar> 
45
(
-0.0502881
-0.0527111
-0.0551585
-0.0576136
-0.0600609
-0.0624863
-0.0648771
-0.0672223
-0.0695123
-0.0717385
-0.0738937
-0.0759716
-0.0779666
-0.0798734
-0.0816874
-0.0834041
-0.0850191
-0.0865281
-0.024306
-0.0241364
-0.0240267
-0.0239571
-0.0239271
-0.0239485
-0.024032
-0.0241867
-0.0244215
-0.0247444
-0.0251628
-0.025684
-0.0263149
-0.0270627
-0.0279342
-0.0289357
-0.030073
-0.0313502
-0.0327697
-0.0343313
-0.0360324
-0.0378671
-0.039827
-0.0419006
-0.0440744
-0.0463329
-0.0463329
)
;
    }
    procBoundary2to5
    {
        type            processor;
        value           nonuniform List<scalar> 
29
(
-0.086326
-0.0846286
-0.0828392
-0.0809628
-0.0790051
-0.0769728
-0.0748741
-0.0727184
-0.0705167
-0.0682819
-0.0660282
-0.063772
-0.0615306
-0.0593229
-0.0571685
-0.0550876
-0.0531002
-0.0512254
-0.0494814
-0.0478837
-0.0464442
-0.0451689
-0.0440554
-0.0430914
-0.0422544
-0.0415193
-0.0408707
-0.0402704
-0.0396123
)
;
    }
}


// ************************************************************************* //
