/*--------------------------------*- C++ -*----------------------------------*\
  =========                 |
  \\      /  F ield         | OpenFOAM: The Open Source CFD Toolbox
   \\    /   O peration     | Website:  https://openfoam.org
    \\  /    A nd           | Version:  9
     \\/     M anipulation  |
\*---------------------------------------------------------------------------*/
FoamFile
{
    format      ascii;
    class       volVectorField;
    location    "1.75";
    object      U;
}
// * * * * * * * * * * * * * * * * * * * * * * * * * * * * * * * * * * * * * //

dimensions      [0 1 -1 0 0 0 0];

internalField   nonuniform List<vector> 
1250
(
(0.128488 0.278775 0)
(0.132154 0.272447 0)
(0.135509 0.265307 0)
(0.138562 0.257475 0)
(0.141327 0.24907 0)
(0.143824 0.240205 0)
(0.146076 0.230985 0)
(0.148109 0.221504 0)
(0.149946 0.21184 0)
(0.151611 0.202059 0)
(0.153123 0.192215 0)
(0.154501 0.182346 0)
(0.155756 0.172481 0)
(0.156899 0.162639 0)
(0.157935 0.152829 0)
(0.158866 0.143056 0)
(0.159691 0.133319 0)
(0.160405 0.123616 0)
(0.000200637 0.0110489 0)
(0.00142647 0.03411 0)
(0.00405413 0.057781 0)
(0.00770757 0.0816011 0)
(0.0121698 0.105061 0)
(0.0172524 0.127666 0)
(0.0227618 0.148998 0)
(0.0285245 0.168752 0)
(0.034403 0.186756 0)
(0.0403022 0.202959 0)
(0.0461687 0.217411 0)
(0.0519854 0.230227 0)
(0.0577606 0.241551 0)
(0.0635164 0.251521 0)
(0.0692777 0.260254 0)
(0.0750635 0.267826 0)
(0.0808809 0.274277 0)
(0.0867225 0.27961 0)
(0.0925668 0.283807 0)
(0.0983803 0.286839 0)
(0.104121 0.288673 0)
(0.109742 0.289289 0)
(0.115197 0.288684 0)
(0.120441 0.286875 0)
(0.125435 0.283904 0)
(0.130148 0.279832 0)
(0.134558 0.274741 0)
(0.138655 0.268729 0)
(0.142432 0.261902 0)
(0.145894 0.254373 0)
(0.149053 0.246255 0)
(0.151925 0.237657 0)
(0.154532 0.228681 0)
(0.156896 0.219419 0)
(0.159039 0.209951 0)
(0.160986 0.200344 0)
(0.162756 0.190655 0)
(0.164367 0.180926 0)
(0.165834 0.171188 0)
(0.167168 0.161465 0)
(0.168376 0.151769 0)
(0.169461 0.14211 0)
(0.170423 0.132488 0)
(0.171262 0.122905 0)
(0.000187752 0.0103344 0)
(0.00135281 0.0321314 0)
(0.00387271 0.0547017 0)
(0.0074093 0.0775965 0)
(0.011772 0.100318 0)
(0.0167926 0.122376 0)
(0.0222923 0.143339 0)
(0.0281044 0.162879 0)
(0.0340912 0.180787 0)
(0.0401517 0.196973 0)
(0.0462232 0.211449 0)
(0.0522776 0.224299 0)
(0.0583137 0.235644 0)
(0.064346 0.245616 0)
(0.0703951 0.254329 0)
(0.076478 0.261869 0)
(0.0826023 0.268286 0)
(0.0887627 0.2736 0)
(0.0949401 0.277804 0)
(0.101103 0.280878 0)
(0.107212 0.2828 0)
(0.11322 0.283551 0)
(0.119079 0.283127 0)
(0.124744 0.281543 0)
(0.130172 0.278832 0)
(0.135329 0.27505 0)
(0.140188 0.270268 0)
(0.144732 0.264575 0)
(0.148953 0.25807 0)
(0.152849 0.250856 0)
(0.156429 0.243041 0)
(0.159705 0.234729 0)
(0.162695 0.226018 0)
(0.165419 0.216999 0)
(0.167899 0.207752 0)
(0.170157 0.198345 0)
(0.172213 0.188836 0)
(0.174085 0.17927 0)
(0.175789 0.169682 0)
(0.177336 0.160099 0)
(0.178736 0.150538 0)
(0.179994 0.141009 0)
(0.181112 0.131519 0)
(0.182089 0.122069 0)
(0.000174087 0.00966058 0)
(0.00127109 0.0302483 0)
(0.00366505 0.0517456 0)
(0.00705666 0.073716 0)
(0.0112826 0.0956769 0)
(0.0161967 0.117145 0)
(0.0216371 0.137686 0)
(0.0274474 0.156954 0)
(0.0334927 0.174709 0)
(0.0396688 0.190827 0)
(0.0459052 0.205285 0)
(0.0521641 0.218137 0)
(0.0584346 0.229482 0)
(0.064723 0.23944 0)
(0.0710442 0.248121 0)
(0.0774122 0.255618 0)
(0.0838342 0.26199 0)
(0.0903059 0.26727 0)
(0.0968103 0.271464 0)
(0.103319 0.274564 0)
(0.109792 0.276553 0)
(0.116185 0.277419 0)
(0.12245 0.277157 0)
(0.128538 0.275781 0)
(0.134407 0.273318 0)
(0.140016 0.269816 0)
(0.145336 0.265339 0)
(0.150345 0.259966 0)
(0.155028 0.253787 0)
(0.159381 0.246899 0)
(0.163407 0.239402 0)
(0.167114 0.231394 0)
(0.170516 0.222969 0)
(0.173631 0.214217 0)
(0.176478 0.205215 0)
(0.179077 0.196033 0)
(0.181449 0.18673 0)
(0.183611 0.177352 0)
(0.185579 0.167939 0)
(0.187366 0.158519 0)
(0.188982 0.149113 0)
(0.190435 0.139735 0)
(0.191727 0.130394 0)
(0.192861 0.121094 0)
(0.000159654 0.00903144 0)
(0.00118127 0.0284739 0)
(0.00343098 0.0489355 0)
(0.00664923 0.0699922 0)
(0.0107007 0.091178 0)
(0.0154628 0.112021 0)
(0.020793 0.13209 0)
(0.0265481 0.151025 0)
(0.0325994 0.168567 0)
(0.0388418 0.184562 0)
(0.0451995 0.198954 0)
(0.0516262 0.21177 0)
(0.0581013 0.223086 0)
(0.0646227 0.233007 0)
(0.0711985 0.24164 0)
(0.0778387 0.249079 0)
(0.0845484 0.255392 0)
(0.0913237 0.260622 0)
(0.098149 0.264789 0)
(0.104997 0.267895 0)
(0.111831 0.269931 0)
(0.118607 0.27089 0)
(0.125277 0.270771 0)
(0.131791 0.269584 0)
(0.138104 0.267353 0)
(0.144173 0.264119 0)
(0.149965 0.259939 0)
(0.155452 0.254884 0)
(0.160615 0.249035 0)
(0.165445 0.242479 0)
(0.16994 0.235311 0)
(0.174103 0.227623 0)
(0.177945 0.219505 0)
(0.18148 0.211041 0)
(0.184724 0.202309 0)
(0.187696 0.193377 0)
(0.190415 0.184306 0)
(0.192896 0.175143 0)
(0.195158 0.16593 0)
(0.197213 0.156698 0)
(0.199072 0.147471 0)
(0.200744 0.138266 0)
(0.202234 0.129095 0)
(0.203544 0.119963 0)
(0.000144435 0.00845099 0)
(0.00108308 0.0268216 0)
(0.00316969 0.046295 0)
(0.0061856 0.0664586 0)
(0.0100244 0.0868635 0)
(0.0145882 0.107054 0)
(0.0197562 0.126602 0)
(0.0254012 0.145148 0)
(0.0314035 0.162415 0)
(0.0376604 0.178226 0)
(0.0440928 0.1925 0)
(0.0506473 0.205234 0)
(0.0572945 0.216484 0)
(0.0640235 0.226341 0)
(0.0708347 0.234903 0)
(0.0777327 0.242265 0)
(0.0847198 0.248502 0)
(0.0917909 0.253666 0)
(0.0989308 0.257787 0)
(0.106114 0.260877 0)
(0.113305 0.262939 0)
(0.120461 0.263969 0)
(0.127533 0.26397 0)
(0.134473 0.262951 0)
(0.141232 0.260933 0)
(0.147766 0.257953 0)
(0.154037 0.25406 0)
(0.160013 0.249316 0)
(0.165671 0.243794 0)
(0.170995 0.237576 0)
(0.175979 0.230746 0)
(0.180622 0.223391 0)
(0.18493 0.215596 0)
(0.188912 0.207441 0)
(0.192583 0.199002 0)
(0.195958 0.190346 0)
(0.199054 0.181533 0)
(0.201886 0.172612 0)
(0.204472 0.163626 0)
(0.206824 0.154608 0)
(0.208954 0.145585 0)
(0.210872 0.136576 0)
(0.212584 0.127596 0)
(0.214094 0.118654 0)
(0.000128323 0.00792345 0)
(0.000975745 0.0253054 0)
(0.0028792 0.0438484 0)
(0.00566245 0.0631491 0)
(0.009249 0.0827763 0)
(0.0135672 0.102291 0)
(0.0185201 0.121279 0)
(0.0239989 0.139379 0)
(0.0298958 0.156308 0)
(0.0361133 0.171873 0)
(0.0425713 0.185967 0)
(0.0492111 0.198567 0)
(0.0559953 0.209708 0)
(0.062904 0.219465 0)
(0.0699297 0.227929 0)
(0.0770703 0.235191 0)
(0.0843237 0.241331 0)
(0.0916826 0.246408 0)
(0.0991312 0.250463 0)
(0.106645 0.253517 0)
(0.114188 0.25558 0)
(0.12172 0.256658 0)
(0.129193 0.256755 0)
(0.136557 0.255882 0)
(0.143763 0.254057 0)
(0.150764 0.251313 0)
(0.157519 0.247692 0)
(0.163991 0.24325 0)
(0.170153 0.238053 0)
(0.175986 0.232172 0)
(0.181477 0.225686 0)
(0.186619 0.218675 0)
(0.191415 0.211218 0)
(0.195871 0.203391 0)
(0.199995 0.195267 0)
(0.203802 0.18691 0)
(0.207305 0.178381 0)
(0.210519 0.169728 0)
(0.213459 0.160996 0)
(0.216138 0.152219 0)
(0.218569 0.143426 0)
(0.220761 0.134639 0)
(0.222721 0.125875 0)
(0.224456 0.117145 0)
(0.000111097 0.00745358 0)
(0.000857832 0.0239409 0)
(0.00255582 0.0416216 0)
(0.00507377 0.0600993 0)
(0.00836662 0.0789602 0)
(0.0123905 0.0977848 0)
(0.0170741 0.116174 0)
(0.0223296 0.133775 0)
(0.0280637 0.150303 0)
(0.0341865 0.165552 0)
(0.0406195 0.179403 0)
(0.0473003 0.19181 0)
(0.0541844 0.20279 0)
(0.0612435 0.212405 0)
(0.0684611 0.220735 0)
(0.0758281 0.227869 0)
(0.0833364 0.233887 0)
(0.090975 0.238856 0)
(0.0987266 0.242822 0)
(0.106566 0.245817 0)
(0.114458 0.24786 0)
(0.122363 0.248961 0)
(0.130233 0.24913 0)
(0.138019 0.248378 0)
(0.14567 0.246724 0)
(0.153138 0.244196 0)
(0.160378 0.240832 0)
(0.167351 0.23668 0)
(0.174025 0.231799 0)
(0.180376 0.226254 0)
(0.186386 0.220115 0)
(0.192044 0.213455 0)
(0.197348 0.206347 0)
(0.202298 0.198865 0)
(0.2069 0.191075 0)
(0.211165 0.18304 0)
(0.215103 0.174819 0)
(0.218727 0.166461 0)
(0.222051 0.15801 0)
(0.225087 0.149501 0)
(0.227848 0.140966 0)
(0.230342 0.132427 0)
(0.232579 0.123904 0)
(0.234565 0.115409 0)
(9.23826e-05 0.00704708 0)
(0.000726993 0.0227457 0)
(0.00219368 0.0396434 0)
(0.00440997 0.0573478 0)
(0.00736452 0.0754617 0)
(0.0110431 0.0935869 0)
(0.015402 0.111344 0)
(0.0203765 0.128393 0)
(0.0258901 0.144454 0)
(0.0318627 0.159319 0)
(0.0382195 0.172854 0)
(0.0448961 0.185002 0)
(0.0518422 0.195764 0)
(0.059021 0.205187 0)
(0.0664074 0.213342 0)
(0.0739838 0.220314 0)
(0.0817352 0.226181 0)
(0.0896458 0.231015 0)
(0.097695 0.234869 0)
(0.105856 0.237782 0)
(0.114094 0.23978 0)
(0.122368 0.24088 0)
(0.130633 0.241096 0)
(0.138837 0.240442 0)
(0.14693 0.238935 0)
(0.154862 0.236603 0)
(0.162587 0.233477 0)
(0.170061 0.229602 0)
(0.17725 0.225028 0)
(0.184125 0.219812 0)
(0.190663 0.214019 0)
(0.196849 0.207715 0)
(0.202674 0.200967 0)
(0.208136 0.193841 0)
(0.213237 0.186403 0)
(0.217982 0.178711 0)
(0.22238 0.170822 0)
(0.226441 0.162783 0)
(0.230176 0.154639 0)
(0.233598 0.146426 0)
(0.236716 0.138175 0)
(0.239541 0.129911 0)
(0.242082 0.121656 0)
(0.244345 0.113422 0)
(7.15891e-05 0.00671113 0)
(0.000579665 0.0217412 0)
(0.00178396 0.0379471 0)
(0.00365677 0.0549369 0)
(0.00622391 0.07233 0)
(0.00950315 0.0897516 0)
(0.0134805 0.106846 0)
(0.0181161 0.123292 0)
(0.0233518 0.13882 0)
(0.0291196 0.153225 0)
(0.0353498 0.16637 0)
(0.0419776 0.178187 0)
(0.0489477 0.188665 0)
(0.0562158 0.197838 0)
(0.0637475 0.20577 0)
(0.0715162 0.212539 0)
(0.0794992 0.218223 0)
(0.0876742 0.222893 0)
(0.0960161 0.226609 0)
(0.104495 0.229415 0)
(0.113076 0.231343 0)
(0.121718 0.232419 0)
(0.130373 0.232658 0)
(0.138991 0.232077 0)
(0.147523 0.230696 0)
(0.155915 0.228537 0)
(0.164121 0.225631 0)
(0.172095 0.222015 0)
(0.179799 0.217735 0)
(0.187198 0.212842 0)
(0.194268 0.207392 0)
(0.200988 0.201445 0)
(0.207346 0.195062 0)
(0.213333 0.188304 0)
(0.218947 0.181232 0)
(0.22419 0.173901 0)
(0.229069 0.166364 0)
(0.233589 0.158668 0)
(0.23776 0.150856 0)
(0.241591 0.142965 0)
(0.245094 0.135026 0)
(0.248276 0.127065 0)
(0.251147 0.119103 0)
(0.253714 0.111158 0)
(4.78377e-05 0.00645507 0)
(0.000410645 0.0209539 0)
(0.00131393 0.0365723 0)
(0.00279371 0.0529151 0)
(0.00491812 0.069619 0)
(0.00773994 0.0863357 0)
(0.011277 0.102737 0)
(0.0155158 0.118528 0)
(0.0204179 0.133456 0)
(0.0259283 0.147324 0)
(0.0319838 0.159998 0)
(0.0385203 0.171404 0)
(0.0454784 0.181525 0)
(0.0528064 0.190385 0)
(0.060461 0.198039 0)
(0.0684058 0.204559 0)
(0.0766093 0.210021 0)
(0.0850418 0.214495 0)
(0.0936725 0.218044 0)
(0.102468 0.220718 0)
(0.11139 0.222554 0)
(0.120396 0.22358 0)
(0.129438 0.223818 0)
(0.138468 0.223288 0)
(0.147433 0.222008 0)
(0.156281 0.220002 0)
(0.164962 0.217296 0)
(0.173431 0.213923 0)
(0.181644 0.209924 0)
(0.189566 0.205343 0)
(0.197168 0.20023 0)
(0.204424 0.194639 0)
(0.211317 0.188624 0)
(0.217836 0.182242 0)
(0.223974 0.175547 0)
(0.229729 0.168592 0)
(0.235103 0.161427 0)
(0.2401 0.154095 0)
(0.244726 0.146639 0)
(0.24899 0.139095 0)
(0.252899 0.131493 0)
(0.256462 0.123861 0)
(0.259688 0.116221 0)
(0.262582 0.10859 0)
(1.99364e-05 0.00629146 0)
(0.0002126 0.020418 0)
(0.000765629 0.0355674 0)
(0.00179232 0.0513388 0)
(0.00341043 0.0673885 0)
(0.00571158 0.0833993 0)
(0.00874762 0.0990775 0)
(0.0125323 0.114158 0)
(0.0170477 0.128414 0)
(0.022252 0.141663 0)
(0.028089 0.153781 0)
(0.0344957 0.164693 0)
(0.0414093 0.174378 0)
(0.0487709 0.182853 0)
(0.056528 0.190168 0)
(0.0646343 0.196388 0)
(0.0730488 0.201584 0)
(0.081733 0.205827 0)
(0.0906495 0.209179 0)
(0.0997595 0.211694 0)
(0.109022 0.213412 0)
(0.118391 0.214366 0)
(0.127819 0.214582 0)
(0.137256 0.21408 0)
(0.146648 0.21288 0)
(0.155945 0.211005 0)
(0.165095 0.208479 0)
(0.174051 0.205332 0)
(0.182767 0.201598 0)
(0.191206 0.197318 0)
(0.199333 0.192535 0)
(0.207122 0.187296 0)
(0.21455 0.181651 0)
(0.221603 0.175649 0)
(0.228268 0.169341 0)
(0.234542 0.162774 0)
(0.240421 0.155996 0)
(0.245907 0.149048 0)
(0.251003 0.141969 0)
(0.255715 0.134795 0)
(0.26005 0.127556 0)
(0.264014 0.120279 0)
(0.267614 0.112986 0)
(0.270857 0.105697 0)
(-1.37675e-05 0.00623851 0)
(-2.49062e-05 0.0201779 0)
(0.000113998 0.0349925 0)
(0.000613801 0.0502748 0)
(0.00165159 0.0657056 0)
(0.00336251 0.0810066 0)
(0.0058346 0.0959255 0)
(0.0091096 0.110236 0)
(0.0131891 0.123743 0)
(0.0180443 0.136288 0)
(0.0236253 0.147757 0)
(0.0298702 0.158085 0)
(0.0367124 0.167249 0)
(0.044086 0.175265 0)
(0.0519293 0.182173 0)
(0.0601856 0.188036 0)
(0.0688036 0.192919 0)
(0.0777357 0.196891 0)
(0.0869365 0.200015 0)
(0.0963609 0.202343 0)
(0.105963 0.203919 0)
(0.115695 0.204779 0)
(0.125507 0.20495 0)
(0.135347 0.204455 0)
(0.145163 0.203316 0)
(0.154902 0.201552 0)
(0.164512 0.199188 0)
(0.173945 0.19625 0)
(0.183154 0.192767 0)
(0.192099 0.188776 0)
(0.200743 0.184314 0)
(0.209056 0.179422 0)
(0.217014 0.174144 0)
(0.224595 0.168525 0)
(0.231787 0.16261 0)
(0.23858 0.156442 0)
(0.244968 0.150064 0)
(0.250948 0.143515 0)
(0.256523 0.136833 0)
(0.261695 0.130051 0)
(0.266467 0.123198 0)
(0.270847 0.1163 0)
(0.274838 0.10938 0)
(0.278448 0.102457 0)
(-5.7087e-05 0.00631979 0)
(-0.00031832 0.020292 0)
(-0.000675499 0.0349246 0)
(-0.000793522 0.0498044 0)
(-0.00042299 0.0646475 0)
(0.000620766 0.0792258 0)
(0.00246416 0.0933406 0)
(0.00517653 0.106813 0)
(0.00877717 0.119487 0)
(0.0132482 0.131233 0)
(0.0185446 0.141958 0)
(0.0246042 0.151607 0)
(0.0313563 0.160162 0)
(0.0387274 0.167635 0)
(0.0466461 0.174066 0)
(0.0550454 0.17951 0)
(0.0638631 0.18403 0)
(0.0730417 0.187691 0)
(0.082527 0.190551 0)
(0.092267 0.192664 0)
(0.10221 0.194075 0)
(0.112306 0.194819 0)
(0.1225 0.194926 0)
(0.132741 0.19442 0)
(0.142975 0.193322 0)
(0.153149 0.191653 0)
(0.16321 0.189433 0)
(0.173108 0.186688 0)
(0.182798 0.183443 0)
(0.192236 0.179728 0)
(0.201385 0.175577 0)
(0.21021 0.171025 0)
(0.218685 0.166112 0)
(0.226786 0.160876 0)
(0.234496 0.155357 0)
(0.241802 0.149596 0)
(0.248696 0.143629 0)
(0.255171 0.137494 0)
(0.261227 0.131225 0)
(0.266862 0.124853 0)
(0.27208 0.118406 0)
(0.276884 0.111911 0)
(0.281277 0.105388 0)
(0.285266 0.0988564 0)
(-0.000113692 0.00656803 0)
(-0.000687211 0.0208382 0)
(-0.0016483 0.0354613 0)
(-0.00249859 0.0500256 0)
(-0.0028982 0.0643016 0)
(-0.00260578 0.0781302 0)
(-0.00145586 0.0913811 0)
(0.000645601 0.103935 0)
(0.00373263 0.115681 0)
(0.00779508 0.126527 0)
(0.01279 0.136406 0)
(0.0186525 0.145276 0)
(0.0253063 0.153126 0)
(0.0326696 0.159974 0)
(0.0406609 0.165853 0)
(0.0492022 0.170816 0)
(0.0582203 0.17492 0)
(0.0676473 0.178224 0)
(0.0774201 0.180786 0)
(0.0874787 0.182656 0)
(0.097766 0.183877 0)
(0.108226 0.184486 0)
(0.118803 0.184511 0)
(0.129442 0.183977 0)
(0.140089 0.182905 0)
(0.150689 0.181315 0)
(0.161191 0.179226 0)
(0.171543 0.176659 0)
(0.181699 0.173638 0)
(0.191615 0.170188 0)
(0.201252 0.166339 0)
(0.210573 0.162121 0)
(0.219549 0.157568 0)
(0.228155 0.152714 0)
(0.236371 0.147594 0)
(0.244179 0.142243 0)
(0.251569 0.136696 0)
(0.258533 0.130986 0)
(0.265064 0.125144 0)
(0.271162 0.119199 0)
(0.276826 0.113178 0)
(0.282057 0.107104 0)
(0.286858 0.101 0)
(0.291233 0.0948831 0)
(-0.000189643 0.00703048 0)
(-0.0011607 0.0219209 0)
(-0.00286681 0.0367266 0)
(-0.00459157 0.0510568 0)
(-0.00588116 0.0647676 0)
(-0.00643155 0.0777971 0)
(-0.00603886 0.0901025 0)
(-0.00458864 0.101637 0)
(-0.00203843 0.112348 0)
(0.0016051 0.122184 0)
(0.00629663 0.131107 0)
(0.0119644 0.139094 0)
(0.0185249 0.146145 0)
(0.0258867 0.152279 0)
(0.0339573 0.157532 0)
(0.0426474 0.161948 0)
(0.0518726 0.165582 0)
(0.0615545 0.168488 0)
(0.0716206 0.170716 0)
(0.0820029 0.172315 0)
(0.0926379 0.173325 0)
(0.103464 0.173779 0)
(0.114424 0.173707 0)
(0.125459 0.173131 0)
(0.136513 0.172072 0)
(0.147533 0.170548 0)
(0.158464 0.168577 0)
(0.169257 0.166177 0)
(0.179864 0.163368 0)
(0.190241 0.160174 0)
(0.200346 0.156618 0)
(0.210144 0.152727 0)
(0.219603 0.148529 0)
(0.228695 0.144054 0)
(0.237397 0.139334 0)
(0.245691 0.134397 0)
(0.253563 0.129276 0)
(0.261001 0.124 0)
(0.267999 0.118596 0)
(0.274551 0.113092 0)
(0.280654 0.107513 0)
(0.28631 0.10188 0)
(0.291518 0.0962136 0)
(0.29628 0.0905319 0)
(-0.000294183 0.00777285 0)
(-0.00178004 0.0236796 0)
(-0.00441535 0.0388789 0)
(-0.00718991 0.0530408 0)
(-0.00950762 0.0661578 0)
(-0.0109973 0.0783049 0)
(-0.0114207 0.089554 0)
(-0.0106505 0.0999473 0)
(-0.00864277 0.109498 0)
(-0.00541059 0.118202 0)
(-0.00100782 0.126054 0)
(0.00448519 0.133051 0)
(0.0109736 0.139205 0)
(0.0183541 0.144541 0)
(0.0265222 0.149091 0)
(0.035377 0.152898 0)
(0.0448231 0.156009 0)
(0.0547716 0.158473 0)
(0.0651405 0.160335 0)
(0.075854 0.161636 0)
(0.086842 0.162413 0)
(0.0980383 0.162697 0)
(0.109381 0.162514 0)
(0.120809 0.161885 0)
(0.132266 0.160829 0)
(0.143696 0.159361 0)
(0.155046 0.157498 0)
(0.166266 0.155256 0)
(0.177307 0.152652 0)
(0.188126 0.149704 0)
(0.19868 0.146434 0)
(0.208933 0.142863 0)
(0.218851 0.139017 0)
(0.228406 0.134919 0)
(0.237573 0.130597 0)
(0.246332 0.126077 0)
(0.254665 0.121386 0)
(0.26256 0.11655 0)
(0.270008 0.111595 0)
(0.277 0.106543 0)
(0.283534 0.101419 0)
(0.289605 0.0962415 0)
(0.295214 0.0910306 0)
(0.300362 0.0858024 0)
(-0.000441447 0.00888795 0)
(-0.00260382 0.0263008 0)
(-0.00640789 0.042119 0)
(-0.010446 0.0561478 0)
(-0.0139469 0.0685952 0)
(-0.0164723 0.0797303 0)
(-0.0177592 0.0897738 0)
(-0.0176795 0.0988748 0)
(-0.0162 0.107121 0)
(-0.0133492 0.114559 0)
(-0.00919681 0.121218 0)
(-0.00383899 0.127117 0)
(0.00261594 0.132279 0)
(0.0100512 0.136731 0)
(0.0183481 0.140507 0)
(0.0273942 0.143645 0)
(0.0370831 0.146185 0)
(0.0473156 0.148167 0)
(0.058001 0.149631 0)
(0.0690558 0.150611 0)
(0.0804036 0.151138 0)
(0.0919735 0.151238 0)
(0.103699 0.150934 0)
(0.115518 0.150243 0)
(0.127372 0.149182 0)
(0.139205 0.147765 0)
(0.150962 0.146004 0)
(0.162594 0.143913 0)
(0.174052 0.141506 0)
(0.185292 0.1388 0)
(0.196273 0.135809 0)
(0.206958 0.132554 0)
(0.217312 0.129054 0)
(0.227305 0.125331 0)
(0.236912 0.121407 0)
(0.246111 0.117305 0)
(0.254884 0.113047 0)
(0.263215 0.108657 0)
(0.271093 0.104156 0)
(0.278509 0.0995664 0)
(0.285458 0.0949077 0)
(0.291934 0.0901988 0)
(0.297936 0.0854571 0)
(0.303465 0.0806978 0)
(-0.000653637 0.0105085 0)
(-0.00371671 0.0300344 0)
(-0.00899919 0.0466991 0)
(-0.014556 0.0605751 0)
(-0.0194066 0.0722089 0)
(-0.0230547 0.0821407 0)
(-0.0252311 0.0907817 0)
(-0.0258256 0.098406 0)
(-0.0248314 0.105182 0)
(-0.0223044 0.11121 0)
(-0.0183387 0.11655 0)
(-0.0130515 0.121242 0)
(-0.00657073 0.125319 0)
(0.000971105 0.12881 0)
(0.00944244 0.131747 0)
(0.0187179 0.134161 0)
(0.0286801 0.136086 0)
(0.0392207 0.137553 0)
(0.0502408 0.138592 0)
(0.0616501 0.13923 0)
(0.0733663 0.139493 0)
(0.0853144 0.139399 0)
(0.0974246 0.138966 0)
(0.109633 0.138209 0)
(0.121878 0.13714 0)
(0.134104 0.135769 0)
(0.146256 0.134107 0)
(0.158286 0.132164 0)
(0.170144 0.129951 0)
(0.181787 0.127481 0)
(0.193173 0.124766 0)
(0.204267 0.121823 0)
(0.215032 0.118667 0)
(0.22544 0.115317 0)
(0.235463 0.111789 0)
(0.24508 0.108104 0)
(0.254269 0.104281 0)
(0.263016 0.10034 0)
(0.271307 0.096299 0)
(0.279132 0.0921774 0)
(0.286483 0.0879927 0)
(0.293356 0.0837615 0)
(0.299747 0.0794996 0)
(0.305656 0.0752207 0)
(-0.000966783 0.012827 0)
(-0.00524341 0.0352151 0)
(-0.0124002 0.0529307 0)
(-0.0197699 0.0665441 0)
(-0.0261337 0.0771232 0)
(-0.0309644 0.0855821 0)
(-0.0340184 0.0925676 0)
(-0.0352298 0.098495 0)
(-0.0346384 0.103616 0)
(-0.0323412 0.108079 0)
(-0.0284665 0.111973 0)
(-0.0231589 0.115354 0)
(-0.0165692 0.118259 0)
(-0.00884811 0.12072 0)
(-0.000141194 0.122761 0)
(0.00941418 0.124406 0)
(0.0196905 0.12568 0)
(0.030571 0.126604 0)
(0.0419497 0.127199 0)
(0.0537308 0.127483 0)
(0.0658274 0.127471 0)
(0.0781607 0.127177 0)
(0.0906586 0.126613 0)
(0.103255 0.125787 0)
(0.115888 0.124708 0)
(0.128501 0.123383 0)
(0.14104 0.121819 0)
(0.153455 0.120023 0)
(0.1657 0.118003 0)
(0.17773 0.115767 0)
(0.189506 0.113327 0)
(0.200991 0.110693 0)
(0.212151 0.107878 0)
(0.222956 0.104897 0)
(0.233379 0.101765 0)
(0.243397 0.0984966 0)
(0.252991 0.0951084 0)
(0.262142 0.0916167 0)
(0.270839 0.0880377 0)
(0.279069 0.0843871 0)
(0.286825 0.0806804 0)
(0.2941 0.0769319 0)
(0.300891 0.0731556 0)
(0.307196 0.0693636 0)
(-0.00144164 0.0161281 0)
(-0.00737188 0.0422915 0)
(-0.0168995 0.0611893 0)
(-0.0263984 0.0742852 0)
(-0.0344037 0.0834359 0)
(-0.0404158 0.0900559 0)
(-0.044267 0.0950719 0)
(-0.0459716 0.0990475 0)
(-0.0456399 0.102311 0)
(-0.0434254 0.105052 0)
(-0.0395001 0.107377 0)
(-0.0340423 0.109351 0)
(-0.027228 0.111012 0)
(-0.0192273 0.112384 0)
(-0.0102002 0.113485 0)
(-0.000295202 0.114329 0)
(0.0103519 0.114928 0)
(0.0216175 0.115291 0)
(0.0333905 0.11543 0)
(0.0455708 0.11535 0)
(0.0580685 0.11506 0)
(0.0708024 0.114565 0)
(0.0836989 0.113869 0)
(0.0966909 0.112977 0)
(0.109717 0.111891 0)
(0.122719 0.110614 0)
(0.135646 0.109149 0)
(0.148447 0.1075 0)
(0.161077 0.105672 0)
(0.173494 0.10367 0)
(0.185658 0.101502 0)
(0.197534 0.0991747 0)
(0.209088 0.0966988 0)
(0.220292 0.0940846 0)
(0.231119 0.0913437 0)
(0.241546 0.0884886 0)
(0.251554 0.085532 0)
(0.261126 0.0824874 0)
(0.270247 0.0793679 0)
(0.278907 0.0761867 0)
(0.287098 0.0729567 0)
(0.294813 0.0696901 0)
(0.302047 0.0663988 0)
(0.308801 0.0630934 0)
(-0.00218509 0.0208439 0)
(-0.0103931 0.0518615 0)
(-0.0228895 0.0719042 0)
(-0.0348064 0.0839998 0)
(-0.0444762 0.091172 0)
(-0.0515374 0.095476 0)
(-0.0559739 0.0981475 0)
(-0.0579258 0.0998887 0)
(-0.0576007 0.101087 0)
(-0.0552248 0.101952 0)
(-0.0510229 0.102599 0)
(-0.0452111 0.103088 0)
(-0.0379929 0.103448 0)
(-0.029557 0.103694 0)
(-0.0200769 0.103829 0)
(-0.00970994 0.103854 0)
(0.00140191 0.103767 0)
(0.0131313 0.103564 0)
(0.0253641 0.103244 0)
(0.0379986 0.102802 0)
(0.0509438 0.102236 0)
(0.0641182 0.101543 0)
(0.0774482 0.100721 0)
(0.0908671 0.0997656 0)
(0.104314 0.0986759 0)
(0.117734 0.0974499 0)
(0.131074 0.0960868 0)
(0.144287 0.0945864 0)
(0.15733 0.0929502 0)
(0.170161 0.0911804 0)
(0.182743 0.0892808 0)
(0.195042 0.0872566 0)
(0.207026 0.0851139 0)
(0.218667 0.0828603 0)
(0.229941 0.0805042 0)
(0.240824 0.0780548 0)
(0.251298 0.0755222 0)
(0.261347 0.0729166 0)
(0.270957 0.0702485 0)
(0.280117 0.0675285 0)
(0.28882 0.0647671 0)
(0.297058 0.0619742 0)
(0.304828 0.0591598 0)
(0.31213 0.0563327 0)
(-0.00339357 0.0276527 0)
(-0.0147706 0.0647118 0)
(-0.0308941 0.0855089 0)
(-0.0453587 0.0957684 0)
(-0.0564538 0.100184 0)
(-0.0641491 0.101574 0)
(-0.0686859 0.101473 0)
(-0.0703846 0.100684 0)
(-0.0695811 0.0996169 0)
(-0.0665903 0.0984771 0)
(-0.0616984 0.0973639 0)
(-0.0551629 0.0963194 0)
(-0.0472143 0.0953546 0)
(-0.0380582 0.0944639 0)
(-0.0278777 0.0936333 0)
(-0.0168352 0.0928453 0)
(-0.00507468 0.0920816 0)
(0.00727687 0.0913243 0)
(0.0201067 0.090557 0)
(0.0333148 0.089765 0)
(0.0468126 0.0889348 0)
(0.0605211 0.0880547 0)
(0.0743694 0.0871142 0)
(0.0882936 0.0861043 0)
(0.102236 0.0850173 0)
(0.116142 0.0838466 0)
(0.129965 0.0825873 0)
(0.14366 0.0812357 0)
(0.157184 0.0797895 0)
(0.1705 0.0782479 0)
(0.183572 0.0766115 0)
(0.196369 0.0748823 0)
(0.208861 0.0730637 0)
(0.221023 0.0711601 0)
(0.232829 0.069177 0)
(0.24426 0.0671207 0)
(0.255297 0.0649984 0)
(0.265925 0.0628176 0)
(0.276132 0.0605863 0)
(0.285906 0.0583125 0)
(0.29524 0.0560043 0)
(0.304128 0.0536698 0)
(0.312564 0.0513167 0)
(0.32055 0.0489524 0)
(-0.00544331 0.0376715 0)
(-0.0212626 0.0818403 0)
(-0.0415635 0.102281 0)
(-0.0582128 0.109325 0)
(-0.0698691 0.109921 0)
(-0.0771546 0.107679 0)
(-0.0807077 0.104347 0)
(-0.0810963 0.100746 0)
(-0.0788213 0.0972535 0)
(-0.0743064 0.0940307 0)
(-0.0679072 0.0911343 0)
(-0.0599233 0.0885682 0)
(-0.0506082 0.0863105 0)
(-0.040178 0.0843268 0)
(-0.0288177 0.0825783 0)
(-0.0166865 0.0810256 0)
(-0.00392179 0.0796316 0)
(0.00935705 0.0783623 0)
(0.0230459 0.0771869 0)
(0.0370533 0.0760784 0)
(0.0512991 0.0750132 0)
(0.0657119 0.0739706 0)
(0.0802282 0.0729328 0)
(0.0947906 0.0718844 0)
(0.109347 0.0708124 0)
(0.123851 0.0697056 0)
(0.138259 0.0685551 0)
(0.152529 0.0673536 0)
(0.166627 0.0660957 0)
(0.180517 0.0647775 0)
(0.194168 0.0633968 0)
(0.207551 0.0619528 0)
(0.220639 0.0604461 0)
(0.233409 0.0588784 0)
(0.245839 0.0572526 0)
(0.257909 0.0555725 0)
(0.269604 0.0538426 0)
(0.280907 0.052068 0)
(0.291808 0.0502542 0)
(0.302296 0.0484071 0)
(0.312362 0.0465328 0)
(0.322002 0.0446371 0)
(0.331209 0.0427261 0)
(0.339983 0.0408057 0)
(-0.00908708 0.0528714 0)
(-0.0311364 0.104381 0)
(-0.0554893 0.121914 0)
(-0.0725781 0.123553 0)
(-0.0824365 0.118935 0)
(-0.086856 0.11225 0)
(-0.0870514 0.105247 0)
(-0.0839261 0.0986361 0)
(-0.0781909 0.0926756 0)
(-0.0703935 0.0874246 0)
(-0.0609551 0.0828569 0)
(-0.0502032 0.0789111 0)
(-0.0383951 0.0755136 0)
(-0.0257365 0.0725902 0)
(-0.0123941 0.0700696 0)
(0.00149605 0.0678867 0)
(0.0158204 0.0659837 0)
(0.0304836 0.0643095 0)
(0.0454043 0.0628195 0)
(0.0605122 0.0614753 0)
(0.0757464 0.0602438 0)
(0.0910529 0.0590965 0)
(0.106384 0.0580091 0)
(0.121695 0.056961 0)
(0.136947 0.0559345 0)
(0.152104 0.0549148 0)
(0.167131 0.0538897 0)
(0.181998 0.052849 0)
(0.196674 0.0517847 0)
(0.211132 0.0506907 0)
(0.225345 0.0495623 0)
(0.23929 0.0483965 0)
(0.252945 0.0471918 0)
(0.266288 0.0459477 0)
(0.2793 0.0446648 0)
(0.291965 0.0433449 0)
(0.304268 0.0419903 0)
(0.316194 0.040604 0)
(0.327733 0.0391896 0)
(0.338874 0.0377509 0)
(0.349609 0.0362922 0)
(0.359933 0.0348178 0)
(0.369838 0.0333319 0)
(0.379324 0.031839 0)
(-0.0158743 0.0768529 0)
(-0.0464077 0.13302 0)
(-0.0719754 0.142405 0)
(-0.0838501 0.135288 0)
(-0.0860117 0.123736 0)
(-0.0821593 0.111863 0)
(-0.0742408 0.101008 0)
(-0.063533 0.0915298 0)
(-0.050929 0.0834198 0)
(-0.0370352 0.0765434 0)
(-0.0222609 0.070735 0)
(-0.00688523 0.065835 0)
(0.00889906 0.0617001 0)
(0.024956 0.0582056 0)
(0.0411875 0.0552444 0)
(0.0575226 0.0527251 0)
(0.0739077 0.0505704 0)
(0.0903014 0.0487147 0)
(0.10667 0.0471024 0)
(0.122986 0.0456869 0)
(0.139226 0.0444285 0)
(0.155366 0.043294 0)
(0.171388 0.0422552 0)
(0.187271 0.0412884 0)
(0.202998 0.0403737 0)
(0.21855 0.0394944 0)
(0.233908 0.0386366 0)
(0.249054 0.0377889 0)
(0.263971 0.036942 0)
(0.27864 0.0360885 0)
(0.293044 0.0352225 0)
(0.307166 0.0343399 0)
(0.320989 0.0334377 0)
(0.334498 0.0325141 0)
(0.347677 0.0315683 0)
(0.360513 0.0306005 0)
(0.372993 0.0296116 0)
(0.385105 0.028603 0)
(0.396839 0.0275767 0)
(0.408186 0.026535 0)
(0.419137 0.0254807 0)
(0.429688 0.0244165 0)
(0.43983 0.0233454 0)
(0.449564 0.0222705 0)
(-0.0286936 0.115874 0)
(-0.0683212 0.164271 0)
(-0.0808253 0.154718 0)
(-0.0713435 0.134546 0)
(-0.0531619 0.115267 0)
(-0.0314788 0.0988368 0)
(-0.00831426 0.08532 0)
(0.0152032 0.0743454 0)
(0.0384348 0.0654439 0)
(0.0610671 0.0581949 0)
(0.0829729 0.0522642 0)
(0.104124 0.0473916 0)
(0.124541 0.0433726 0)
(0.144272 0.0400433 0)
(0.163372 0.0372735 0)
(0.181902 0.034958 0)
(0.199916 0.0330116 0)
(0.217467 0.0313651 0)
(0.234598 0.0299614 0)
(0.251348 0.0287538 0)
(0.267747 0.0277036 0)
(0.283821 0.026779 0)
(0.299589 0.0259533 0)
(0.315064 0.0252047 0)
(0.330258 0.0245148 0)
(0.345174 0.0238685 0)
(0.359816 0.0232534 0)
(0.374182 0.0226592 0)
(0.388269 0.0220774 0)
(0.402072 0.0215015 0)
(0.415584 0.020926 0)
(0.428796 0.0203471 0)
(0.441699 0.0197615 0)
(0.454285 0.0191674 0)
(0.466543 0.0185636 0)
(0.478464 0.0179494 0)
(0.490038 0.017325 0)
(0.501257 0.0166909 0)
(0.512113 0.0160481 0)
(0.522599 0.0153979 0)
(0.532707 0.0147417 0)
(0.542434 0.0140812 0)
(0.551774 0.0134182 0)
(0.560726 0.0127546 0)
(-0.0499084 0.200644 0)
(-0.0662157 0.178305 0)
(-0.0109982 0.128433 0)
(0.047005 0.0996116 0)
(0.0986656 0.0795067 0)
(0.144561 0.063976 0)
(0.185403 0.052108 0)
(0.221724 0.043167 0)
(0.254095 0.0363718 0)
(0.283113 0.0311136 0)
(0.309319 0.0269839 0)
(0.333168 0.0237071 0)
(0.355039 0.0210865 0)
(0.375248 0.0189751 0)
(0.39406 0.0172623 0)
(0.411695 0.0158636 0)
(0.428334 0.0147135 0)
(0.444127 0.013761 0)
(0.459196 0.0129656 0)
(0.473644 0.0122951 0)
(0.48755 0.0117236 0)
(0.500983 0.0112302 0)
(0.513993 0.0107981 0)
(0.526623 0.0104137 0)
(0.538906 0.0100657 0)
(0.550865 0.00974519 0)
(0.562519 0.00944474 0)
(0.57388 0.00915844 0)
(0.584957 0.00888151 0)
(0.595754 0.00861017 0)
(0.606273 0.00834148 0)
(0.616513 0.00807319 0)
(0.626471 0.00780368 0)
(0.636144 0.00753184 0)
(0.645527 0.00725699 0)
(0.654616 0.00697884 0)
(0.663405 0.00669739 0)
(0.67189 0.00641291 0)
(0.680064 0.00612587 0)
(0.687925 0.00583688 0)
(0.695468 0.00554665 0)
(0.702692 0.00525604 0)
(0.709591 0.00496583 0)
(0.716169 0.00467692 0)
(0.22971 0.140195 0)
(0.278482 0.113361 0)
(0.39406 0.0762092 0)
(0.484054 0.0533105 0)
(0.546144 0.0387205 0)
(0.591849 0.0284996 0)
(0.627634 0.0211853 0)
(0.656401 0.0159917 0)
(0.679885 0.0123002 0)
(0.699385 0.00964544 0)
(0.715876 0.00771007 0)
(0.730061 0.00628277 0)
(0.742451 0.00521951 0)
(0.753428 0.00441965 0)
(0.763283 0.00381202 0)
(0.772239 0.00334591 0)
(0.780468 0.00298482 0)
(0.788107 0.00270218 0)
(0.795259 0.00247841 0)
(0.802007 0.00229896 0)
(0.808415 0.00215289 0)
(0.814532 0.00203194 0)
(0.820399 0.00192982 0)
(0.826045 0.0018417 0)
(0.831491 0.00176386 0)
(0.836757 0.00169345 0)
(0.841853 0.00162826 0)
(0.846789 0.00156657 0)
(0.85157 0.00150708 0)
(0.8562 0.00144882 0)
(0.860681 0.00139105 0)
(0.865012 0.00133327 0)
(0.869194 0.00127514 0)
(0.873226 0.00121644 0)
(0.877105 0.0011571 0)
(0.880829 0.00109713 0)
(0.884398 0.00103659 0)
(0.887809 0.000975626 0)
(0.89106 0.000914419 0)
(0.894152 0.000853185 0)
(0.897083 0.000792135 0)
(0.899854 0.000731522 0)
(0.902464 0.000671576 0)
(0.904915 0.000612472 0)
)
;

boundaryField
{
    movingWall
    {
        type            fixedValue;
        value           uniform (1 0 0);
    }
    fixedWalls
    {
        type            noSlip;
    }
    frontAndBack
    {
        type            empty;
    }
    procBoundary2to3
    {
        type            processor;
        value           nonuniform List<vector> 
45
(
(0.122009 0.282387 0)
(0.125268 0.27575 0)
(0.128225 0.268308 0)
(0.130894 0.260188 0)
(0.133292 0.251514 0)
(0.135442 0.242403 0)
(0.13737 0.232963 0)
(0.139101 0.223285 0)
(0.14066 0.213449 0)
(0.14207 0.203518 0)
(0.143351 0.193542 0)
(0.144519 0.183556 0)
(0.145585 0.173585 0)