/*--------------------------------*- C++ -*----------------------------------*\
  =========                 |
  \\      /  F ield         | OpenFOAM: The Open Source CFD Toolbox
   \\    /   O peration     | Website:  https://openfoam.org
    \\  /    A nd           | Version:  9
     \\/     M anipulation  |
\*---------------------------------------------------------------------------*/
FoamFile
{
    format      ascii;
    class       volScalarField;
    location    "2";
    object      p;
}
// * * * * * * * * * * * * * * * * * * * * * * * * * * * * * * * * * * * * * //

dimensions      [0 2 -2 0 0 0 0];

internalField   nonuniform List<scalar> 
1250
(
-0.0537919
-0.0562133
-0.0586436
-0.0610676
-0.0634714
-0.0658427
-0.0681701
-0.0704442
-0.0726563
-0.0747991
-0.076866
-0.0788514
-0.0807501
-0.0825575
-0.0842691
-0.0858809
-0.0873889
-0.0887893
-0.0262912
-0.0260983
-0.0259663
-0.025874
-0.0258225
-0.0258264
-0.0258992
-0.0260529
-0.0262985
-0.0266456
-0.0271029
-0.0276776
-0.0283765
-0.0292055
-0.03017
-0.0312742
-0.0325211
-0.033912
-0.035446
-0.0371197
-0.0389272
-0.0408595
-0.0429056
-0.0450519
-0.0472835
-0.0495839
-0.0519364
-0.054324
-0.0567301
-0.059139
-0.0615361
-0.063908
-0.0662425
-0.068529
-0.0707581
-0.0729212
-0.0750112
-0.0770214
-0.0789461
-0.08078
-0.0825182
-0.0841562
-0.0856898
-0.0871149
-0.0261049
-0.0259203
-0.0257903
-0.0256936
-0.0256298
-0.0256116
-0.0256513
-0.02576
-0.0259487
-0.0262278
-0.0266068
-0.0270945
-0.027699
-0.0284277
-0.0292873
-0.0302836
-0.031421
-0.0327023
-0.0341281
-0.0356968
-0.0374037
-0.0392418
-0.041201
-0.0432693
-0.0454324
-0.0476745
-0.0499793
-0.0523295
-0.0547085
-0.0570999
-0.0594885
-0.0618598
-0.0642008
-0.0664998
-0.0687463
-0.0709309
-0.0730453
-0.0750822
-0.0770351
-0.0788979
-0.0806653
-0.0823323
-0.0838942
-0.0853467
-0.0259037
-0.0257288
-0.0256019
-0.025502
-0.0254272
-0.0253881
-0.0253951
-0.0254586
-0.0255893
-0.0257982
-0.0260957
-0.0264922
-0.0269974
-0.0276204
-0.0283695
-0.0292521
-0.0302742
-0.0314402
-0.0327524
-0.0342105
-0.0358118
-0.0375505
-0.0394181
-0.0414036
-0.0434936
-0.0456733
-0.0479263
-0.0502358
-0.0525847
-0.0549562
-0.0573342
-0.0597036
-0.0620503
-0.0643616
-0.0666258
-0.0688327
-0.0709729
-0.0730382
-0.0750212
-0.0769153
-0.0787144
-0.080413
-0.082006
-0.0834887
-0.0256908
-0.0255265
-0.0254039
-0.0253021
-0.0252177
-0.0251587
-0.0251337
-0.0251519
-0.0252235
-0.02536
-0.025573
-0.0258742
-0.0262753
-0.0267873
-0.0274202
-0.0281834
-0.0290846
-0.0301298
-0.031323
-0.0326656
-0.0341564
-0.0357911
-0.0375625
-0.0394608
-0.0414737
-0.0435869
-0.0457846
-0.0480499
-0.0503657
-0.0527146
-0.0550801
-0.057446
-0.0597973
-0.0621204
-0.0644025
-0.0666322
-0.0687992
-0.0708944
-0.0729095
-0.0748369
-0.0766701
-0.0784029
-0.0800297
-0.0815454
-0.0254687
-0.0253163
-0.0251993
-0.0250969
-0.025004
-0.0249263
-0.0248699
-0.0248427
-0.0248544
-0.0249165
-0.0250419
-0.0252441
-0.0255364
-0.0259321
-0.0264435
-0.0270817
-0.0278565
-0.0287758
-0.0298451
-0.0310675
-0.0324433
-0.0339697
-0.0356408
-0.0374481
-0.03938
-0.0414231
-0.043562
-0.0457799
-0.0480596
-0.0503835
-0.0527342
-0.0550949
-0.0574498
-0.059784
-0.0620838
-0.0643366
-0.0665313
-0.0686576
-0.0707063
-0.0726691
-0.0745386
-0.076308
-0.0779712
-0.0795226
-0.02524
-0.0251007
-0.0249904
-0.0248888
-0.0247887
-0.0246932
-0.024606
-0.0245332
-0.024484
-0.0244699
-0.024505
-0.0246042
-0.0247834
-0.0250579
-0.0254425
-0.0259506
-0.026594
-0.0273825
-0.0283234
-0.0294214
-0.0306782
-0.0320926
-0.03366
-0.0353727
-0.0372205
-0.0391903
-0.0412673
-0.0434349
-0.0456759
-0.0479723
-0.0503061
-0.05266
-0.0550171
-0.0573615
-0.0596786
-0.0619548
-0.0641776
-0.066336
-0.0684197
-0.0704195
-0.0723273
-0.0741356
-0.0758376
-0.0774272
-0.0250069
-0.024882
-0.0247797
-0.02468
-0.0245739
-0.0244613
-0.0243436
-0.0242251
-0.0241138
-0.0240216
-0.0239634
-0.0239562
-0.024018
-0.0241668
-0.0244198
-0.0247929
-0.0253003
-0.0259536
-0.0267621
-0.0277321
-0.0288668
-0.0301663
-0.031627
-0.0332427
-0.0350036
-0.0368976
-0.0389102
-0.0410252
-0.0432251
-0.0454918
-0.0478069
-0.0501522
-0.0525101
-0.0548639
-0.0571977
-0.059497
-0.0617483
-0.0639394
-0.0660591
-0.0680974
-0.0700452
-0.0718943
-0.0736374
-0.0752676
-0.0247711
-0.0246623
-0.0245694
-0.0244728
-0.0243616
-0.0242326
-0.0240843
-0.0239192
-0.0237445
-0.023572
-0.0234179
-0.0233008
-0.0232412
-0.0232599
-0.023377
-0.0236109
-0.0239782
-0.0244928
-0.0251657
-0.0260049
-0.0270151
-0.0281974
-0.0295497
-0.0310664
-0.0327387
-0.0345552
-0.0365016
-0.0385621
-0.0407191
-0.0429544
-0.045249
-0.0475843
-0.0499417
-0.0523038
-0.0546536
-0.0569757
-0.0592554
-0.0614796
-0.063636
-0.0657138
-0.067703
-0.0695946
-0.0713806
-0.0730536
-0.0245344
-0.0244436
-0.0243616
-0.0242693
-0.0241537
-0.0240082
-0.0238289
-0.0236162
-0.0233762
-0.0231211
-0.022868
-0.0226376
-0.022453
-0.0223379
-0.0223152
-0.0224064
-0.0226304
-0.0230034
-0.0235384
-0.024245
-0.0251291
-0.0261931
-0.027436
-0.0288529
-0.0304359
-0.0321739
-0.0340532
-0.0360581
-0.0381711
-0.0403736
-0.0426464
-0.0449703
-0.0473262
-0.0496955
-0.0520606
-0.0544049
-0.0567128
-0.0589701
-0.0611638
-0.0632818
-0.0653134
-0.0672488
-0.0690793
-0.0707968
-0.0242982
-0.024228
-0.0241586
-0.0240716
-0.0239519
-0.0237896
-0.0235781
-0.0233159
-0.0230083
-0.0226678
-0.0223125
-0.0219656
-0.0216526
-0.0214004
-0.0212349
-0.0211805
-0.021259
-0.0214886
-0.0218844
-0.0224575
-0.0232153
-0.0241611
-0.0252947
-0.0266121
-0.028106
-0.0297656
-0.0315777
-0.0335267
-0.0355951
-0.0377642
-0.0400145
-0.0423262
-0.0446794
-0.0470551
-0.0494346
-0.0518005
-0.0541362
-0.0564266
-0.0586575
-0.0608161
-0.0628908
-0.064871
-0.0667471
-0.0685106
-0.024064
-0.0240176
-0.0239628
-0.0238819
-0.0237581
-0.023578
-0.0233323
-0.0230179
-0.0226397
-0.0222103
-0.0217496
-0.0212829
-0.0208385
-0.0204464
-0.0201359
-0.0199343
-0.0198659
-0.0199516
-0.0202082
-0.0206483
-0.0212805
-0.0221093
-0.0231351
-0.0243545
-0.0257605
-0.027343
-0.0290889
-0.0309827
-0.0330069
-0.0351426
-0.03737
-0.0396689
-0.042019
-0.0444003
-0.0467936
-0.0491803
-0.0515433
-0.0538663
-0.0561343
-0.0583336
-0.0604517
-0.0624772
-0.0643998
-0.0662103
-0.0238335
-0.0238151
-0.0237772
-0.0237032
-0.0235744
-0.0233744
-0.0230915
-0.0227214
-0.0222685
-0.0217464
-0.0211766
-0.0205868
-0.0200084
-0.0194746
-0.0190177
-0.0186682
-0.0184532
-0.0183957
-0.0185143
-0.0188233
-0.0193323
-0.0200465
-0.0209671
-0.0220912
-0.0234121
-0.0249198
-0.0266015
-0.0284416
-0.0304228
-0.0325259
-0.0347308
-0.037017
-0.0393637
-0.0417502
-0.0441566
-0.0465637
-0.0489533
-0.0513083
-0.053613
-0.0558528
-0.0580142
-0.0600852
-0.0620548
-0.063913
-0.0236081
-0.0236246
-0.0236056
-0.0235389
-0.0234037
-0.0231806
-0.0228563
-0.0224254
-0.0218929
-0.0212734
-0.0205905
-0.0198744
-0.0191599
-0.0184831
-0.0178797
-0.0173831
-0.0170229
-0.0168244
-0.016808
-0.0169892
-0.0173786
-0.0179823
-0.0188018
-0.0198345
-0.021074
-0.0225104
-0.024131
-0.0259201
-0.0278603
-0.0299324
-0.032116
-0.0343901
-0.0367335
-0.0391251
-0.0415443
-0.0439711
-0.0463867
-0.0487732
-0.051114
-0.0533937
-0.0555982
-0.0577145
-0.059731
-0.0616371
-0.0233921
-0.023451
-0.0234542
-0.0233938
-0.0232494
-0.0229988
-0.0226272
-0.0221294
-0.021511
-0.0207886
-0.0199882
-0.0191429
-0.0182905
-0.0174705
-0.0167215
-0.0160799
-0.0155776
-0.015242
-0.015095
-0.0151534
-0.0154287
-0.0159272
-0.016651
-0.0175976
-0.0187607
-0.0201305
-0.021694
-0.0234357
-0.025338
-0.0273814
-0.0295454
-0.0318086
-0.0341495
-0.0365464
-0.0389782
-0.0414243
-0.0438653
-0.0462826
-0.0486587
-0.0509776
-0.0532245
-0.0553856
-0.0574488
-0.0594026
-0.0231907
-0.0233023
-0.023331
-0.0232757
-0.0231176
-0.0228328
-0.0224061
-0.0218333
-0.0211215
-0.02029
-0.0193672
-0.0183897
-0.0173984
-0.0164358
-0.0155436
-0.0147606
-0.0141209
-0.0136538
-0.0133825
-0.0133247
-0.0134925
-0.0138928
-0.0145276
-0.0153947
-0.0164876
-0.0177964
-0.019308
-0.0210068
-0.0228749
-0.0248928
-0.0270395
-0.0292936
-0.0316331
-0.0340359
-0.0364805
-0.0389458
-0.0414116
-0.0438589
-0.0462695
-0.0486267
-0.0509151
-0.0531203
-0.0552293
-0.0572304
-0.0230131
-0.0231914
-0.0232486
-0.0231951
-0.0230165
-0.0226884
-0.0221966
-0.0215387
-0.0207248
-0.0197769
-0.0187262
-0.0176139
-0.0164832
-0.0153797
-0.0143478
-0.0134285
-0.0126579
-0.0120665
-0.0116787
-0.0115129
-0.0115816
-0.0118919
-0.0124459
-0.0132412
-0.0142711
-0.0155255
-0.0169912
-0.0186524
-0.0204908
-0.0224869
-0.0246194
-0.0268666
-0.0292063
-0.031616
-0.0340737
-0.0365581
-0.0390484
-0.0415249
-0.0439691
-0.0463636
-0.0486923
-0.0509404
-0.0530944
-0.0551418
-0.022875
-0.0231381
-0.0232264
-0.0231687
-0.0229593
-0.0225754
-0.0220054
-0.02125
-0.020323
-0.0192501
-0.0180669
-0.0168166
-0.0155465
-0.0143049
-0.0131382
-0.0120892
-0.0111956
-0.0104887
-0.00999391
-0.00972982
-0.00970919
-0.00993909
-0.0104214
-0.0111535
-0.0121286
-0.0133361
-0.0147626
-0.016392
-0.0182059
-0.0201844
-0.0223062
-0.0245492
-0.0268909
-0.0293087
-0.0317803
-0.0342838
-0.0367982
-0.0393032
-0.04178
-0.0442106
-0.0465783
-0.048868
-0.0510655
-0.053158
-0.0228027
-0.023174
-0.023294
-0.0232214
-0.0229659
-0.0225093
-0.0218441
-0.0209759
-0.019923
-0.0187154
-0.0173929
-0.0160023
-0.0145936
-0.0132171
-0.0119216
-0.0107509
-0.00974358
-0.00893169
-0.00834063
-0.00798925
-0.00789018
-0.00805024
-0.00847104
-0.00914951
-0.0100785
-0.0112472
-0.0126417
-0.0142457
-0.0160406
-0.0180062
-0.020121
-0.0223627
-0.0247086
-0.027136
-0.0296221
-0.032145
-0.034683
-0.0372159
-0.0397241
-0.0421894
-0.0445947
-0.0469242
-0.0491636
-0.0512995
-0.0228402
-0.0233489
-0.023497
-0.0233912
-0.0230668
-0.022514
-0.0217316
-0.0207313
-0.0195368
-0.018183
-0.0167141
-0.01518
-0.0136334
-0.012127
-0.0107089
-0.00942535
-0.00831495
-0.00740937
-0.00673392
-0.00630722
-0.00614146
-0.00624302
-0.00661302
-0.00724791
-0.00814006
-0.00927828
-0.0106484
-0.0122336
-0.0140151
-0.0159725
-0.0180842
-0.0203277
-0.0226802
-0.0251185
-0.02762
-0.0301623
-0.0327237
-0.0352835
-0.0378219
-0.0403203
-0.0427613
-0.0451288
-0.047408
-0.0495851
-0.0230609
-0.0237417
-0.0239054
-0.023735
-0.0233078
-0.0226262
-0.0216974
-0.0205404
-0.0191849
-0.0176709
-0.0160467
-0.0143653
-0.0126814
-0.0110486
-0.00951719
-0.00812859
-0.0069265
-0.00593928
-0.00519187
-0.00470229
-0.00448203
-0.00453676
-0.00486695
-0.00546846
-0.00633312
-0.0074493
-0.00880241
-0.0103754
-0.0121492
-0.0141032
-0.0162156
-0.0184638
-0.0208248
-0.0232755
-0.0257929
-0.0283546
-0.0309387
-0.0335243
-0.0360913
-0.0386209
-0.0410954
-0.0434984
-0.0458148
-0.0480305
-0.0235897
-0.0244785
-0.0246256
-0.0243374
-0.0237558
-0.0228998
-0.0217856
-0.0204399
-0.0188986
-0.0172067
-0.0154161
-0.0135821
-0.0117605
-0.010005
-0.00836524
-0.0068844
-0.00560009
-0.0045429
-0.00373585
-0.00319571
-0.00293294
-0.00295227
-0.00325336
-0.00383137
-0.00467752
-0.0057797
-0.0071229
-0.00868976
-0.010461
-0.0124158
-0.0145322
-0.0167876
-0.0191589
-0.0216228
-0.0241564
-0.026737
-0.0293427
-0.0319524
-0.0345459
-0.0371042
-0.0396093
-0.0420446
-0.0443949
-0.0466457
-0.0246419
-0.0257617
-0.025818
-0.0253199
-0.024505
-0.0234094
-0.0220569
-0.0204807
-0.0187219
-0.0168295
-0.0148579
-0.0128636
-0.0109022
-0.00902656
-0.00728455
-0.00571812
-0.00436249
-0.00324617
-0.00239076
-0.00181137
-0.00151706
-0.00151142
-0.00179311
-0.00235647
-0.00319208
-0.00428727
-0.00562665
-0.00719255
-0.00896544
-0.0109244
-0.0130473
-0.0153115
-0.0176938
-0.020171
-0.0227201
-0.0253183
-0.0279437
-0.030575
-0.033192
-0.0357756
-0.0383076
-0.0407713
-0.0431511
-0.0454325
-0.0266008
-0.0279173
-0.0277148
-0.0268448
-0.0256744
-0.0242461
-0.0225834
-0.0207219
-0.0187054
-0.0165844
-0.0144135
-0.0122486
-0.0101434
-0.00814829
-0.00630836
-0.00466267
-0.00324377
-0.00207747
-0.00118314
-0.000573885
-0.0002571
-0.000234975
-0.000505041
-0.00106073
-0.0018919
-0.00298533
-0.00432523
-0.00589362
-0.00767077
-0.00963559
-0.011766
-0.0140392
-0.016432
-0.0189212
-0.0214838
-0.0240971
-0.0267391
-0.0293885
-0.0320251
-0.0346295
-0.0371837
-0.0396707
-0.0420749
-0.0443817
-0.0301875
-0.0314698
-0.0306165
-0.0290856
-0.0273709
-0.0254768
-0.0234074
-0.0211916
-0.0188697
-0.0164888
-0.0141001
-0.011755
-0.00950319
-0.00739038
-0.00545735
-0.00373909
-0.00226456
-0.00105639
-0.000131159
0.000500313
0.000832516
0.000864799
0.000600849
4.81885e-05
-0.000782312
-0.0018769
-0.00321938
-0.00479151
-0.0065734
-0.00854387
-0.0106808
-0.0129614
-0.0153625
-0.017861
-0.0204339
-0.0230585
-0.0257129
-0.0283758
-0.031027
-0.0336472
-0.0362182
-0.038723
-0.0411459
-0.0434722
-0.0369139
-0.0372344
-0.034797
-0.0321087
-0.0295684
-0.027024
-0.0244249
-0.0217775
-0.0191062
-0.0164455
-0.0138347
-0.0113154
-0.00892818
-0.00671186
-0.00470084
-0.00292491
-0.00140862
-0.000171041
0.000774189
0.00141859
0.00175854
0.00179482
0.00153225
0.000979176
0.000147069
-0.000949894
-0.00229524
-0.00387057
-0.00565592
-0.00763011
-0.00977103
-0.012056
-0.014462
-0.0169659
-0.0195448
-0.0221763
-0.0248384
-0.02751
-0.0301707
-0.0328014
-0.0353839
-0.0379012
-0.0403375
-0.0426781
-0.0502866
-0.0462416
-0.0402758
-0.0356397
-0.031843
-0.028409
-0.0251643
-0.0220479
-0.0190377
-0.0161344
-0.0133514
-0.0107111
-0.00824076
-0.00596875
-0.00392214
-0.0021251
-0.000597901
0.000643588
0.00158812
0.00222899
0.00256386
0.00259445
0.00232615
0.00176774
0.000930891
-0.000170116
-0.00151881
-0.00309687
-0.00488445
-0.00686051
-0.00900313
-0.0112898
-0.0136976
-0.0162038
-0.0187855
-0.0214204
-0.0240866
-0.0267633
-0.02943
-0.0320677
-0.0346582
-0.0371844
-0.0396308
-0.0419824
-0.0779532
-0.0579302
-0.0450636
-0.0373706
-0.03195
-0.0276628
-0.0240024
-0.0207089
-0.0176424
-0.014743
-0.0119961
-0.00940877
-0.00699867
-0.00478809
-0.00280062
-0.00105855
0.000418833
0.00161606
0.00252192
0.00312949
0.00343605
0.00344283
0.00315475
0.00258001
0.00172981
0.000617898
-0.000739726
-0.00232518
-0.00411902
-0.00610058
-0.00824828
-0.0105399
-0.0129528
-0.0154644
-0.0180521
-0.0206936
-0.0233674
-0.0260524
-0.0287285
-0.0313765
-0.0339783
-0.0365169
-0.0389765
-0.0413423
-0.16507
-0.0640338
-0.0339743
-0.026844
-0.0229429
-0.0196933
-0.0171116
-0.0149019
-0.0127708
-0.0106225
-0.00847263
-0.0063634
-0.00433757
-0.00243621
-0.000697908
0.000842968
0.00215754
0.00322279
0.00402145
0.00454176
0.00477702
0.00472525
0.00438873
0.00377349
0.00288892
0.00174734
0.000363521
-0.00124562
-0.00306147
-0.005064
-0.00723215
-0.00954412
-0.0119776
-0.0145103
-0.0171197
-0.0197838
-0.0224809
-0.0251901
-0.0278913
-0.0305653
-0.0331939
-0.0357599
-0.0382476
-0.040642
)
;

boundaryField
{
    movingWall
    {
        type            zeroGradient;
    }
    fixedWalls
    {
        type            zeroGradient;
    }
    frontAndBack
    {
        type            empty;
    }
    procBoundary2to3
    {
        type            processor;
        value           nonuniform List<scalar> 
45
(
-0.0555405
-0.0579923
-0.0604439
-0.0628807
-0.0652897
-0.0676593
-0.0699794
-0.0722412
-0.0744371
-0.0765608
-0.0786063
-0.0805689
-0.0824439
-0.0842271
-0.0859147
-0.0875029
-0.088988
-0.0903665
-0.0264596
-0.0262594
-0.0261267
-0.0260402
-0.0260023
-0.0260292
-0.0261358
-0.0263343
-0.0266354
-0.0270483
-0.0275804
-0.0282379
-0.0290263
-0.0299503
-0.0310139
-0.0322201
-0.0335707
-0.0350654
-0.0367019
-0.0384751
-0.0403775
-0.0423988
-0.0445265
-0.046746
-0.0490413
-0.0513956
-0.0513956
)
;
    }
    procBoundary2to5
    {
        type            processor;
        value           nonuniform List<scalar> 
29
(
-0.0900786
-0.0884277
-0.0866857
-0.0848567
-0.0829452
-0.080957
-0.0788989
-0.0767791
-0.0746071
-0.0723943
-0.0701538
-0.0679004
-0.0656509
-0.0634234
-0.0612373
-0.0591131
-0.0570717
-0.055134
-0.05332
-0.051648
-0.050133
-0.0487843
-0.0476027
-0.0465779
-0.0456886
-0.0449096
-0.0442257
-0.0436006
-0.0429294
)
;
    }
}


// ************************************************************************* //
