/*--------------------------------*- C++ -*----------------------------------*\
  =========                 |
  \\      /  F ield         | OpenFOAM: The Open Source CFD Toolbox
   \\    /   O peration     | Website:  https://openfoam.org
    \\  /    A nd           | Version:  9
     \\/     M anipulation  |
\*---------------------------------------------------------------------------*/
FoamFile
{
    format      ascii;
    class       surfaceScalarField;
    location    "2";
    object      phi;
}
// * * * * * * * * * * * * * * * * * * * * * * * * * * * * * * * * * * * * * //

dimensions      [0 3 -1 0 0 0 0];

internalField   nonuniform List<scalar> 
2427
(
1.37472e-06
2.77899e-06
1.40367e-06
2.70126e-06
1.42983e-06
2.61715e-06
1.4534e-06
2.52789e-06
1.47461e-06
2.43461e-06
1.49371e-06
2.33833e-06
1.51094e-06
2.23995e-06
1.52653e-06
2.14025e-06
1.54068e-06
2.03984e-06
1.55356e-06
1.93924e-06
1.56531e-06
1.83883e-06
1.57602e-06
1.73886e-06
1.58575e-06
1.63952e-06
1.59454e-06
1.54091e-06
1.60237e-06
1.44307e-06
1.60923e-06
1.34601e-06
1.61507e-06
1.24969e-06
1.15406e-06
8.45804e-09
1.06602e-07
3.21022e-08
3.37982e-07
6.91031e-08
5.83186e-07
1.17359e-07
8.36432e-07
1.745e-07
1.09107e-06
2.38037e-07
1.34035e-06
3.05564e-07
1.57817e-06
3.74984e-07
1.79968e-06
4.4466e-07
2.00165e-06
5.13487e-07
2.18242e-06
5.80866e-07
2.34177e-06
6.46607e-07
2.48042e-06
7.10785e-07
2.59972e-06
7.73604e-07
2.70115e-06
8.35271e-07
2.78608e-06
8.95914e-07
2.85562e-06
9.55539e-07
2.91054e-06
1.01402e-06
2.95134e-06
1.07113e-06
2.97832e-06
1.12656e-06
2.99171e-06
1.17996e-06
2.99175e-06
1.231e-06
2.97881e-06
1.27938e-06
2.95339e-06
1.32485e-06
2.91617e-06
1.36725e-06
2.868e-06
1.40649e-06
2.80988e-06
1.44258e-06
2.74291e-06
1.47558e-06
2.66825e-06
1.50563e-06
2.5871e-06
1.53291e-06
2.50062e-06
1.55762e-06
2.4099e-06
1.58e-06
2.31595e-06
1.60028e-06
2.21967e-06
1.61869e-06
2.12184e-06
1.63542e-06
2.02311e-06
1.65066e-06
1.924e-06
1.66456e-06
1.82493e-06
1.67721e-06
1.7262e-06
1.68871e-06
1.62802e-06
1.69909e-06
1.53052e-06
1.70838e-06
1.43379e-06
1.71655e-06
1.33784e-06
1.72357e-06
1.24267e-06
1.14823e-06
7.99063e-09
9.86116e-08
3.05505e-08
3.15422e-07
6.61743e-08
5.47562e-07
1.13083e-07
7.89524e-07
1.69201e-07
1.03495e-06
2.32267e-07
1.27728e-06
3.00022e-07
1.51041e-06
3.70408e-07
1.7293e-06
4.41746e-07
1.93031e-06
5.12825e-07
2.11135e-06
5.82907e-07
2.27168e-06
6.51664e-07
2.41167e-06
7.19062e-07
2.53232e-06
7.85224e-07
2.63499e-06
8.50318e-07
2.72099e-06
9.14464e-07
2.79148e-06
9.77678e-07
2.84733e-06
1.03986e-06
2.88916e-06
1.10079e-06
2.91739e-06
1.16019e-06
2.93231e-06
1.2177e-06
2.93424e-06
1.27298e-06
2.92353e-06
1.3257e-06
2.90066e-06
1.3756e-06
2.86627e-06
1.42246e-06
2.82113e-06
1.46616e-06
2.76618e-06
1.50665e-06
2.70241e-06
1.54396e-06
2.63094e-06
1.57818e-06
2.55288e-06
1.60946e-06
2.46934e-06
1.63798e-06
2.38138e-06
1.66395e-06
2.28998e-06
1.68759e-06
2.19603e-06
1.70911e-06
2.10032e-06
1.72872e-06
2.0035e-06
1.7466e-06
1.90613e-06
1.7629e-06
1.80863e-06
1.77774e-06
1.71135e-06
1.79122e-06
1.61454e-06
1.8034e-06
1.51835e-06
1.8143e-06
1.42289e-06
1.82394e-06
1.32821e-06
1.83228e-06
1.23432e-06
1.14122e-06
7.48772e-09
9.11239e-08
2.88341e-08
2.94076e-07
6.28433e-08
5.13553e-07
1.08054e-07
7.44313e-07
1.62695e-07
9.80314e-07
2.2476e-07
1.21522e-06
2.92165e-07
1.44301e-06
3.62938e-07
1.65852e-06
4.35394e-07
1.85785e-06
5.08244e-07
2.0385e-06
5.80633e-07
2.19929e-06
6.52101e-07
2.3402e-06
7.22493e-07
2.46193e-06
7.91844e-07
2.56564e-06
8.60266e-07
2.65257e-06
9.27854e-07
2.72389e-06
9.94627e-07
2.78056e-06
1.06049e-06
2.82329e-06
1.12526e-06
2.85262e-06
1.18865e-06
2.86893e-06
1.25032e-06
2.87257e-06
1.30992e-06
2.86393e-06
1.36709e-06
2.84349e-06
1.42155e-06
2.81182e-06
1.47303e-06
2.76965e-06
1.52138e-06
2.71783e-06
1.5665e-06
2.6573e-06
1.60837e-06
2.58907e-06
1.64704e-06
2.51421e-06
1.68261e-06
2.43376e-06
1.71525e-06
2.34874e-06
1.74512e-06
2.2601e-06
1.77244e-06
2.16872e-06
1.79739e-06
2.07536e-06
1.82018e-06
1.98071e-06
1.84099e-06
1.88532e-06
1.85998e-06
1.78965e-06
1.87728e-06
1.69406e-06
1.89299e-06
1.59883e-06
1.90718e-06
1.50415e-06
1.91991e-06
1.41016e-06
1.93119e-06
1.31693e-06
1.94102e-06
1.22449e-06
1.13286e-06
6.95081e-09
8.4173e-08
2.69576e-08
2.74069e-07
5.91184e-08
4.81392e-07
1.02285e-07
7.01146e-07
1.54995e-07
9.27604e-07
2.15517e-07
1.1547e-06
2.81978e-07
1.37655e-06
3.52529e-07
1.58797e-06
4.25519e-07
1.78486e-06
4.99616e-07
1.9644e-06
5.73866e-07
2.12504e-06
6.4769e-07
2.26638e-06
7.20812e-07
2.38881e-06
7.93166e-07
2.49328e-06
8.64795e-07
2.58094e-06
9.35754e-07
2.65293e-06
1.00605e-06
2.71026e-06
1.07559e-06
2.75375e-06
1.1442e-06
2.78401e-06
1.21161e-06
2.80152e-06
1.27748e-06
2.8067e-06
1.34146e-06
2.79996e-06
1.40317e-06
2.78177e-06
1.4623e-06
2.75269e-06
1.51856e-06
2.71339e-06
1.57173e-06
2.66465e-06
1.62169e-06
2.60734e-06
1.66835e-06
2.54241e-06
1.71173e-06
2.47084e-06
1.75188e-06
2.39361e-06
1.78893e-06
2.31169e-06
1.82302e-06
2.22601e-06
1.85433e-06
2.13741e-06
1.88304e-06
2.04666e-06
1.90933e-06
1.95441e-06
1.93339e-06
1.86126e-06
1.95537e-06
1.76767e-06
1.9754e-06
1.67402e-06
1.99361e-06
1.58062e-06
2.01008e-06
1.48768e-06
2.02487e-06
1.39537e-06
2.03801e-06
1.30379e-06
2.04951e-06
1.21299e-06
1.123e-06
6.38011e-09
7.77929e-08
2.49208e-08
2.55528e-07
5.49991e-08
4.51314e-07
9.57739e-08
6.60372e-07
1.46098e-07
8.7728e-07
2.04533e-07
1.09626e-06
2.69442e-07
1.31164e-06
3.3914e-07
1.51827e-06
4.12047e-07
1.71196e-06
4.86823e-07
1.88962e-06
5.62447e-07
2.04942e-06
6.38229e-07
2.19059e-06
7.13776e-07
2.31326e-06
7.88916e-07
2.41814e-06
8.63606e-07
2.50625e-06
9.37848e-07
2.57869e-06
1.01162e-06
2.63649e-06
1.08482e-06
2.68055e-06
1.15728e-06
2.71155e-06
1.22873e-06
2.73007e-06
1.29884e-06
2.73658e-06
1.36725e-06
2.73155e-06
1.43359e-06
2.71544e-06
1.49749e-06
2.68879e-06
1.55864e-06
2.65223e-06
1.6168e-06
2.60649e-06
1.67177e-06
2.55237e-06
1.72344e-06
2.49074e-06
1.77177e-06
2.42251e-06
1.81677e-06
2.34861e-06
1.85852e-06
2.26994e-06
1.89713e-06
2.1874e-06
1.93275e-06
2.1018e-06
1.96553e-06
2.01387e-06
1.99566e-06
1.92429e-06
2.02328e-06
1.83364e-06
2.04856e-06
1.74238e-06
2.07164e-06
1.65094e-06
2.09264e-06
1.55962e-06
2.11166e-06
1.46867e-06
2.12876e-06
1.37827e-06
2.14399e-06
1.28855e-06
2.15739e-06
1.19959e-06
1.11143e-06
5.77326e-09
7.20197e-08
2.27149e-08
2.38587e-07
5.04688e-08
4.2356e-07
8.84982e-08
6.22342e-07
1.35976e-07
8.29801e-07
1.91772e-07
1.04047e-06
2.54514e-07
1.2489e-06
3.2271e-07
1.45008e-06
3.94892e-07
1.63977e-06
4.69749e-07
1.81477e-06
5.46217e-07
1.97295e-06
6.23518e-07
2.11329e-06
7.01148e-07
2.23563e-06
7.78824e-07
2.34047e-06
8.56407e-07
2.42866e-06
9.33827e-07
2.50127e-06
1.01102e-06
2.55931e-06
1.08786e-06
2.6037e-06
1.16417e-06
2.63524e-06
1.23968e-06
2.65455e-06
1.31407e-06
2.66219e-06
1.38696e-06
2.65865e-06
1.45798e-06
2.64442e-06
1.52674e-06
2.62003e-06
1.5929e-06
2.58607e-06
1.65617e-06
2.54322e-06
1.71632e-06
2.49222e-06
1.77319e-06
2.43387e-06
1.82668e-06
2.36901e-06
1.87677e-06
2.29851e-06
1.92349e-06
2.22323e-06
1.96691e-06
2.14399e-06
2.00713e-06
2.06157e-06
2.04431e-06
1.9767e-06
2.07857e-06
1.89003e-06
2.11008e-06
1.80212e-06
2.13899e-06
1.71348e-06
2.16543e-06
1.6245e-06
2.18953e-06
1.53552e-06
2.21138e-06
1.44682e-06
2.23106e-06
1.35858e-06
2.24865e-06
1.27096e-06
2.26418e-06
1.18406e-06
1.09795e-06
5.1243e-09
6.68954e-08
2.03186e-08
2.23392e-07
4.5488e-08
3.98391e-07
8.04016e-08
5.87429e-07
1.24561e-07
7.85641e-07
1.77159e-07
9.87868e-07
2.37109e-07
1.18894e-06
3.03145e-07
1.38404e-06
3.73945e-07
1.56897e-06
4.4826e-07
1.74045e-06
5.25014e-07
1.8962e-06
6.03362e-07
2.03495e-06
6.82698e-07
2.1563e-06
7.62629e-07
2.26054e-06
8.4291e-07
2.34838e-06
9.23388e-07
2.42079e-06
1.00393e-06
2.47876e-06
1.08439e-06
2.52325e-06
1.16455e-06
2.55508e-06
1.24414e-06
2.57496e-06
1.32284e-06
2.5835e-06
1.40026e-06
2.58123e-06
1.47602e-06
2.56867e-06
1.5497e-06
2.54634e-06
1.62096e-06
2.51482e-06
1.68945e-06
2.47473e-06
1.75491e-06
2.42676e-06
1.81714e-06
2.37165e-06
1.87598e-06
2.31017e-06
1.93137e-06
2.24312e-06
1.98329e-06
2.17131e-06
2.03177e-06
2.0955e-06
2.07689e-06
2.01645e-06
2.11874e-06
1.93484e-06
2.15746e-06
1.85131e-06
2.19318e-06
1.76641e-06
2.22602e-06
1.68063e-06
2.25613e-06
1.59439e-06
2.28363e-06
1.50803e-06
2.30861e-06
1.42183e-06
2.33117e-06
1.33602e-06
2.35138e-06
1.25075e-06
2.36929e-06
1.16615e-06
1.0823e-06
4.42238e-09
6.2473e-08
1.76945e-08
2.1012e-07
3.99859e-08
3.76099e-07
7.13832e-08
5.56031e-07
1.1173e-07
7.45295e-07
1.60556e-07
9.39042e-07
2.17085e-07
1.13242e-06
2.80298e-07
1.32083e-06
3.49052e-07
1.50022e-06
4.22191e-07
1.66731e-06
4.98656e-07
1.81973e-06
5.77557e-07
1.95604e-06
6.58199e-07
2.07566e-06
7.40078e-07
2.17866e-06
8.22843e-07
2.26562e-06
9.06241e-07
2.33739e-06
9.90064e-07
2.39494e-06
1.0741e-06
2.43921e-06
1.15812e-06
2.47106e-06
1.24182e-06
2.49126e-06
1.32485e-06
2.50046e-06
1.40684e-06
2.49924e-06
1.48738e-06
2.48813e-06
1.56605e-06
2.46767e-06
1.64247e-06
2.4384e-06
1.71627e-06
2.40093e-06
1.78714e-06
2.35589e-06
1.85485e-06
2.30394e-06
1.9192e-06
2.24582e-06
1.98006e-06
2.18226e-06
2.03739e-06
2.11398e-06
2.09116e-06
2.04173e-06
2.14141e-06
1.9662e-06
2.18822e-06
1.88804e-06
2.23167e-06
1.80786e-06
2.27188e-06
1.7262e-06
2.30896e-06
1.64354e-06
2.34305e-06
1.5603e-06
2.37424e-06
1.47683e-06
2.40266e-06
1.39342e-06
2.42838e-06
1.3103e-06
2.45149e-06
1.22764e-06
2.47205e-06
1.1456e-06
1.06426e-06
3.64978e-09
5.88232e-08
1.47819e-08
1.98988e-07
3.385e-08
3.57031e-07
6.12824e-08
5.28599e-07
9.72867e-08
7.0929e-07
1.4175e-07
8.94578e-07
1.94221e-07
1.07995e-06
2.53953e-07
1.26109e-06
3.20003e-07
1.43417e-06
3.91336e-07
1.59598e-06
4.66936e-07
1.74413e-06
5.45886e-07
1.87709e-06
6.27419e-07
1.99412e-06
7.10928e-07
2.09515e-06
7.95946e-07
2.1806e-06
8.82114e-07
2.25122e-06
9.69132e-07
2.30792e-06
1.05672e-06
2.35162e-06
1.14459e-06
2.38319e-06
1.23241e-06
2.40344e-06
1.31982e-06
2.41305e-06
1.40642e-06
2.41264e-06
1.49178e-06
2.40277e-06
1.57548e-06
2.38396e-06
1.65711e-06
2.35678e-06
1.73628e-06
2.32176e-06
1.81265e-06
2.27952e-06
1.88592e-06
2.23067e-06
1.95589e-06
2.17586e-06
2.02237e-06
2.11578e-06
2.08526e-06
2.05109e-06
2.1445e-06
1.98249e-06
2.2001e-06
1.9106e-06
2.25208e-06
1.83606e-06
2.30052e-06
1.75943e-06
2.34548e-06
1.68123e-06
2.38708e-06
1.60194e-06
2.42542e-06
1.52197e-06
2.4606e-06
1.44165e-06
2.49273e-06
1.36129e-06
2.5219e-06
1.28113e-06
2.54818e-06
1.20136e-06
2.57165e-06
1.12213e-06
1.04355e-06
2.7791e-09
5.60441e-08
1.14896e-08
1.90278e-07
2.69115e-08
3.41609e-07
4.98601e-08
5.0565e-07
8.09408e-08
6.7821e-07
1.20422e-07
8.55097e-07
1.68194e-07
1.03217e-06
2.23798e-07
1.20549e-06
2.86506e-07
1.37146e-06
3.55425e-07
1.52706e-06
4.296e-07
1.66996e-06
5.0811e-07
1.79858e-06
5.90124e-07
1.91211e-06
6.74939e-07
2.01033e-06
7.61975e-07
2.09356e-06
8.50756e-07
2.16244e-06
9.4088e-07
2.2178e-06
1.03198e-06
2.26052e-06
1.1237e-06
2.29147e-06
1.21567e-06
2.31148e-06
1.30748e-06
2.32124e-06
1.39872e-06
2.3214e-06
1.48895e-06
2.31254e-06
1.57772e-06
2.29519e-06
1.6646e-06
2.2699e-06
1.74917e-06
2.23719e-06
1.83108e-06
2.19761e-06
1.90999e-06
2.15175e-06
1.98564e-06
2.10021e-06
2.05783e-06
2.04359e-06
2.1264e-06
1.98252e-06
2.19127e-06
1.91762e-06
2.25237e-06
1.84949e-06
2.30972e-06
1.77871e-06
2.36333e-06
1.70581e-06
2.41328e-06
1.63129e-06
2.45963e-06
1.55559e-06
2.50248e-06
1.47912e-06
2.54191e-06
1.40222e-06
2.57801e-06
1.32518e-06
2.61088e-06
1.24826e-06
2.6406e-06
1.17164e-06
2.66723e-06
1.0955e-06
1.01995e-06
1.76932e-09
5.42748e-08
7.68468e-09
1.84362e-07
1.89277e-08
3.30366e-07
3.6775e-08
4.87803e-07
6.2281e-08
6.52704e-07
9.61243e-08
8.21254e-07
1.38552e-07
9.89747e-07
1.894e-07
1.15464e-06
2.48166e-07
1.3127e-06
3.14105e-07
1.46112e-06
3.86339e-07
1.59772e-06
4.63951e-07
1.72097e-06
5.46063e-07
1.83e-06
6.31878e-07
1.92452e-06
7.20704e-07
2.00474e-06
8.11945e-07
2.0712e-06
9.05085e-07
2.12466e-06
9.9966e-07
2.16594e-06
1.09523e-06
2.1959e-06
1.19136e-06
2.21534e-06
1.28762e-06
2.22498e-06
1.38354e-06
2.22548e-06
1.47866e-06
2.21741e-06
1.57253e-06
2.20133e-06
1.66468e-06
2.17775e-06
1.75469e-06
2.14718e-06
1.84215e-06
2.11015e-06
1.92672e-06
2.06718e-06
2.00811e-06
2.01883e-06
2.08605e-06
1.96564e-06
2.16038e-06
1.9082e-06
2.23094e-06
1.84706e-06
2.29767e-06
1.78277e-06
2.36051e-06
1.71587e-06
2.41947e-06
1.64685e-06
2.47457e-06
1.57619e-06
2.52587e-06
1.5043e-06
2.57342e-06
1.43157e-06
2.61732e-06
1.35833e-06
2.65763e-06
1.28487e-06
2.69444e-06
1.21145e-06
2.72783e-06
1.13826e-06
2.75786e-06
1.06547e-06
9.93212e-07
5.76174e-10
5.36986e-08
3.17518e-09
1.81763e-07
9.55793e-09
3.23984e-07
2.15558e-08
4.75805e-07
4.07446e-08
6.33515e-07
6.82505e-08
7.93748e-07
1.04688e-07
9.5331e-07
1.50187e-07
1.10914e-06
2.04465e-07
1.25842e-06
2.66926e-07
1.39866e-06
3.36769e-07
1.52788e-06
4.1309e-07
1.64465e-06
4.94964e-07
1.74812e-06
5.8151e-07
1.83797e-06
6.71924e-07
1.91432e-06
7.65488e-07
1.97764e-06
8.61564e-07
2.02858e-06
9.59579e-07
2.06793e-06
1.059e-06
2.09648e-06
1.15932e-06
2.11502e-06
1.26005e-06
2.12426e-06
1.36069e-06
2.12484e-06
1.46074e-06
2.11736e-06
1.55972e-06
2.10235e-06
1.65715e-06
2.08031e-06
1.75259e-06
2.05174e-06
1.84562e-06
2.01713e-06
1.93585e-06
1.97695e-06
2.02296e-06
1.93171e-06
2.10668e-06
1.88193e-06
2.18678e-06
1.8281e-06
2.26309e-06
1.77075e-06
2.33549e-06
1.71037e-06
2.4039e-06
1.64745e-06
2.4683e-06
1.58245e-06
2.52868e-06
1.51581e-06
2.58506e-06
1.44792e-06
2.63749e-06
1.37914e-06
2.68602e-06
1.30979e-06
2.73072e-06
1.24017e-06
2.77167e-06
1.1705e-06
2.80893e-06
1.101e-06
2.84257e-06
1.03183e-06
9.63134e-07
-9.29764e-10
5.46284e-08
-2.30589e-09
1.83139e-07
-1.67863e-09
3.23356e-07
3.5566e-09
4.7057e-07
1.55827e-08
6.21489e-07
3.60035e-08
7.73327e-07
6.58104e-08
9.23503e-07
1.05416e-07
1.06954e-06
1.54741e-07
1.20909e-06
2.13321e-07
1.34008e-06
2.80422e-07
1.46078e-06
3.55146e-07
1.56993e-06
4.36527e-07
1.66674e-06
5.23599e-07
1.7509e-06
6.15446e-07
1.82248e-06
7.11227e-07
1.88186e-06
8.10179e-07
1.92963e-06
9.11611e-07
1.96649e-06
1.01489e-06
1.9932e-06
1.11943e-06
2.01048e-06
1.22466e-06
2.01903e-06
1.33004e-06
2.01946e-06
1.43505e-06
2.01236e-06
1.53915e-06
1.99824e-06
1.64187e-06
1.9776e-06
1.74273e-06
1.95089e-06
1.84129e-06
1.91857e-06
1.93715e-06
1.88109e-06
2.02995e-06
1.8389e-06
2.11941e-06
1.79247e-06
2.20526e-06
1.74225e-06
2.2873e-06
1.68871e-06
2.36538e-06
1.63229e-06
2.43939e-06
1.57344e-06
2.50927e-06
1.51257e-06
2.57498e-06
1.4501e-06
2.63653e-06
1.38637e-06
2.69393e-06
1.32174e-06
2.74722e-06
1.25651e-06
2.79645e-06
1.19094e-06
2.84168e-06
1.12527e-06
2.88297e-06
1.05971e-06
2.92038e-06
9.94417e-07
9.29539e-07
-2.81309e-09
5.74415e-08
-9.10845e-09
1.89435e-07
-1.53618e-08
3.2961e-07
-1.80278e-08
4.73236e-07
-1.41668e-08
6.17628e-07
-1.63566e-09
7.60796e-07
2.09215e-08
9.00946e-07
5.41624e-08
1.0363e-06
9.81768e-08
1.16508e-06
1.52597e-07
1.28566e-06
2.16736e-07
1.39664e-06
2.89684e-07
1.49698e-06
3.70425e-07
1.586e-06
4.57906e-07
1.66342e-06
5.51101e-07
1.72928e-06
6.49044e-07
1.78391e-06
7.50844e-07
1.82783e-06
8.55691e-07
1.86165e-06
9.62845e-07
1.88605e-06
1.07162e-06
1.9017e-06
1.18139e-06
1.90926e-06
1.29155e-06
1.9093e-06
1.40152e-06
1.90239e-06
1.51075e-06
1.889e-06
1.61874e-06
1.86961e-06
1.72498e-06
1.84464e-06
1.82903e-06
1.81452e-06
1.93046e-06
1.77966e-06
2.02889e-06
1.74046e-06
2.12402e-06
1.69735e-06
2.21555e-06
1.65072e-06
2.30326e-06
1.601e-06
2.38697e-06
1.54858e-06
2.46654e-06
1.49387e-06
2.54188e-06
1.43723e-06
2.61293e-06
1.37905e-06
2.67966e-06
1.31964e-06
2.74207e-06
1.25933e-06
2.80018e-06
1.1984e-06
2.85401e-06
1.1371e-06
2.90362e-06
1.07566e-06
2.94906e-06
1.01427e-06
2.99037e-06
9.53106e-07
8.92297e-07
-5.27803e-09
6.27195e-08
-1.7758e-08
2.01915e-07
-3.23822e-08
3.44234e-07
-4.43193e-08
4.85173e-07
-4.97395e-08
6.23048e-07
-4.59334e-08
7.5699e-07
-3.12033e-08
8.86216e-07
-4.68732e-09
1.00978e-06
3.3797e-08
1.12659e-06
8.39382e-08
1.23552e-06
1.45061e-07
1.33552e-06
2.16211e-07
1.42583e-06
2.96305e-07
1.50591e-06
3.84198e-07
1.57552e-06
4.78748e-07
1.63473e-06
5.78867e-07
1.6838e-06
6.83536e-07
1.72316e-06
7.91826e-07
1.75336e-06
9.02885e-07
1.77499e-06
1.01594e-06
1.78865e-06
1.13027e-06
1.79493e-06
1.24521e-06
1.79436e-06
1.36016e-06
1.78745e-06
1.47451e-06
1.77465e-06
1.58773e-06
1.75639e-06
1.69931e-06
1.73307e-06
1.80878e-06
1.70506e-06
1.91569e-06
1.67275e-06
2.01966e-06
1.63649e-06
2.12035e-06
1.59666e-06
2.21745e-06
1.55361e-06
2.31073e-06
1.50772e-06
2.39997e-06
1.45934e-06
2.48501e-06
1.40882e-06
2.56573e-06
1.35651e-06
2.64206e-06
1.30272e-06
2.71393e-06
1.24777e-06
2.78133e-06
1.19193e-06
2.84425e-06
1.13548e-06
2.90271e-06
1.07864e-06
2.95673e-06
1.02164e-06
3.00636e-06
9.64641e-07
3.05164e-06
9.07824e-07
8.51318e-07
-8.56644e-09
7.12859e-08
-2.89396e-08
2.22288e-07
-5.38304e-08
3.69125e-07
-7.67051e-08
5.08048e-07
-9.26721e-08
6.39015e-07
-9.84401e-08
7.62758e-07
-9.20297e-08
8.79805e-07
-7.24685e-08
9.9022e-07
-3.95315e-08
1.09366e-06
6.44204e-09
1.18955e-06
6.46762e-08
1.27729e-06
1.34192e-07
1.35631e-06
2.13803e-07
1.4263e-06
3.02253e-07
1.48707e-06
3.98284e-07
1.5387e-06
5.00681e-07
1.5814e-06
6.08304e-07
1.61553e-06
7.20103e-07
1.64156e-06
8.35122e-07
1.65997e-06
9.52487e-07
1.67129e-06
1.07141e-06
1.67601e-06
1.19115e-06
1.67461e-06
1.31106e-06
1.66754e-06
1.4305e-06
1.6552e-06
1.54891e-06
1.63798e-06
1.66575e-06
1.61622e-06
1.78054e-06
1.59028e-06
1.89282e-06
1.56047e-06
2.0022e-06
1.52712e-06
2.10831e-06
1.49055e-06
2.21084e-06
1.45108e-06
2.30953e-06
1.40903e-06
2.40415e-06
1.36472e-06
2.49452e-06
1.31845e-06
2.5805e-06
1.27053e-06
2.66199e-06
1.22124e-06
2.73891e-06
1.17085e-06
2.81122e-06
1.11963e-06
2.87889e-06
1.06781e-06
2.94193e-06
1.0156e-06
3.00036e-06
9.6321e-07
3.05419e-06
9.10807e-07
3.10347e-06
8.58545e-07
8.06554e-07
-1.30331e-08
8.4319e-08
-4.35988e-08
2.52854e-07
-8.11612e-08
4.06687e-07
-1.16946e-07
5.43832e-07
-1.44832e-07
6.66901e-07
-1.60979e-07
7.78905e-07
-1.63235e-07
8.82061e-07
-1.50638e-07
9.77623e-07
-1.23059e-07
1.06608e-06
-8.0957e-08
1.14744e-06
-2.51857e-08
1.22151e-06
4.3091e-08
1.28804e-06
1.22575e-07
1.34681e-06
2.11895e-07
1.39775e-06
3.09666e-07
1.44093e-06
4.14549e-07
1.47652e-06
5.25285e-07
1.5048e-06
6.40711e-07
1.52613e-06
7.5977e-07
1.54091e-06
8.815e-07
1.54956e-06
1.00503e-06
1.55247e-06
1.12958e-06
1.55006e-06
1.25442e-06
1.5427e-06
1.3789e-06
1.53072e-06
1.50242e-06
1.51446e-06
1.62443e-06
1.49422e-06
1.74442e-06
1.47029e-06
1.86193e-06
1.44295e-06
1.97656e-06
1.41249e-06
2.08792e-06
1.37918e-06
2.1957e-06
1.3433e-06
2.29962e-06
1.30512e-06
2.39943e-06
1.2649e-06
2.49495e-06
1.22293e-06
2.58602e-06
1.17946e-06
2.6725e-06
1.13475e-06
2.75432e-06
1.08903e-06
2.83142e-06
1.04253e-06
2.90375e-06
9.95476e-07
2.9713e-06
9.48051e-07
3.03407e-06
9.00436e-07
3.09208e-06
8.52793e-07
3.14536e-06
8.05265e-07
7.57973e-07
-1.91982e-08
1.03517e-07
-6.30378e-08
2.96693e-07
-1.16272e-07
4.59921e-07
-1.67227e-07
5.94787e-07
-2.08437e-07
7.08112e-07
-2.35629e-07
8.06097e-07
-2.46662e-07
8.93094e-07
-2.40761e-07
9.71721e-07
-2.18031e-07
1.04335e-06
-1.79162e-07
1.10857e-06
-1.25228e-07
1.16758e-06
-5.75511e-08
1.22036e-06
2.23952e-08
1.26686e-06
1.13069e-07
1.30708e-06
2.12987e-07
1.34101e-06
3.20678e-07
1.36883e-06
4.34768e-07
1.39071e-06
5.53994e-07
1.4069e-06
6.77207e-07
1.4177e-06
8.03367e-07
1.4234e-06
9.31536e-07
1.42431e-06
1.06087e-06
1.42073e-06
1.19061e-06
1.41296e-06
1.32005e-06
1.40127e-06
1.44859e-06
1.38592e-06
1.57564e-06
1.36717e-06
1.70069e-06
1.34524e-06
1.82327e-06
1.32037e-06
1.94296e-06
1.2928e-06
2.05938e-06
1.26276e-06
2.17221e-06
1.23047e-06
2.28115e-06
1.19618e-06
2.38596e-06
1.1601e-06
2.48643e-06
1.12246e-06
2.58239e-06
1.0835e-06
2.6737e-06
1.04343e-06
2.76027e-06
1.00246e-06
2.84202e-06
9.60786e-07
2.9189e-06
9.18596e-07
2.99088e-06
8.76064e-07
3.05797e-06
8.33352e-07
3.12016e-06
7.90602e-07
3.17748e-06
7.47946e-07
7.05496e-07
-2.78388e-08
1.31356e-07
-8.90581e-08
3.57913e-07
-1.61613e-07
5.32476e-07
-2.30195e-07
6.63369e-07
-2.86002e-07
7.63918e-07
-3.24594e-07
8.44689e-07
-3.44128e-07
9.12627e-07
-3.44251e-07
9.71845e-07
-3.25483e-07
1.02458e-06
-2.88873e-07
1.07196e-06
-2.35795e-07
1.1145e-06
-1.67821e-07
1.15239e-06
-8.66161e-08
1.18566e-06
6.13969e-09
1.21432e-06
1.08733e-07
1.23842e-06
2.19674e-07
1.25789e-06
3.37447e-07
1.27294e-06
4.60706e-07
1.28365e-06
5.88227e-07
1.29018e-06
7.18901e-07
1.29272e-06
8.51737e-07
1.29147e-06
9.85843e-07
1.28662e-06
1.12042e-06
1.27838e-06
1.25475e-06
1.26694e-06
1.38819e-06
1.25248e-06
1.52016e-06
1.2352e-06
1.65012e-06
1.21527e-06
1.77761e-06
1.19288e-06
1.9022e-06
1.16822e-06
2.02351e-06
1.14145e-06
2.1412e-06
1.11278e-06
2.25499e-06
1.08239e-06
2.36462e-06
1.05046e-06
2.46988e-06
1.0172e-06
2.5706e-06
9.82788e-07
2.66663e-06
9.47403e-07
2.75786e-06
9.11227e-07
2.84422e-06
8.7443e-07
2.92564e-06
8.37173e-07
3.0021e-06
7.99608e-07
3.07357e-06
7.61874e-07
3.14008e-06
7.24098e-07
3.20162e-06
6.86398e-07
6.48875e-07
-4.01465e-08
1.71502e-07
-1.24173e-07
4.41939e-07
-2.20307e-07
6.2861e-07
-3.08899e-07
7.51961e-07
-3.80105e-07
8.35125e-07
-4.29819e-07
8.94403e-07
-4.56916e-07
9.39725e-07
-4.61771e-07
9.76699e-07
-4.45521e-07
1.00833e-06
-4.09712e-07
1.03615e-06
-3.5611e-07
1.0609e-06
-2.86587e-07
1.08286e-06
-2.03041e-07
1.10211e-06
-1.07334e-07
1.11862e-06
-1.2194e-09
1.1323e-06
1.1351e-07
1.14316e-06
2.35404e-07
1.15104e-06
3.6302e-07
1.15603e-06
4.95069e-07
1.15813e-06
6.30398e-07
1.15739e-06
7.67975e-07
1.15389e-06
9.06878e-07
1.14772e-06
1.04629e-06
1.13898e-06
1.18546e-06
1.12776e-06
1.32375e-06
1.1142e-06
1.46056e-06
1.09839e-06
1.59536e-06
1.08048e-06
1.72767e-06
1.06057e-06
1.85708e-06
1.03881e-06
1.9832e-06
1.01533e-06
2.10571e-06
9.90272e-07
2.22431e-06
9.63787e-07
2.33875e-06
9.36021e-07
2.44883e-06
9.07128e-07
2.55436e-06
8.77258e-07
2.6552e-06
8.46561e-07
2.75124e-06
8.15185e-07
2.8424e-06
7.83272e-07
2.92862e-06
7.50956e-07
3.00986e-06
7.18366e-07
3.08611e-06
6.8562e-07
3.15738e-06
6.5283e-07
3.22368e-06
6.20096e-07
5.87507e-07
-5.80156e-08
2.29518e-07
-1.71921e-07
5.55844e-07
-2.96185e-07
7.52874e-07
-4.06448e-07
8.62224e-07
-4.92668e-07
9.21345e-07
-5.51923e-07
9.53658e-07
-5.84397e-07
9.72199e-07
-5.91558e-07
9.83861e-07
-5.75392e-07
9.92164e-07
-5.3808e-07
9.98842e-07
-4.81858e-07
1.00468e-06
-4.08941e-07
1.00995e-06
-3.21468e-07
1.01464e-06
-2.21474e-07
1.01862e-06
-1.1087e-07
1.0217e-06
8.62116e-09
1.02367e-06
1.35337e-07
1.02433e-06
2.67846e-07
1.02352e-06
4.04835e-07
1.02114e-06
5.45131e-07
1.0171e-06
6.87687e-07
1.01134e-06
8.31573e-07
1.00384e-06
9.7596e-07
9.94589e-07
1.12011e-06
9.83613e-07
1.26337e-06
9.70941e-07
1.40514e-06
9.5662e-07
1.54491e-06
9.40708e-07
1.6822e-06
9.23275e-07
1.81661e-06
9.04402e-07
1.94776e-06
8.8418e-07
2.07532e-06
8.62706e-07
2.19903e-06
8.40085e-07
2.31862e-06
8.16428e-07
2.4339e-06
7.9185e-07
2.54469e-06
7.66468e-07
2.65085e-06
7.40399e-07
2.75227e-06
7.13759e-07
2.84888e-06
6.86664e-07
2.94062e-06
6.59222e-07
3.02744e-06
6.3154e-07
3.10935e-06
6.03715e-07
3.18634e-06
5.7584e-07
3.25843e-06
5.48e-07
5.20271e-07
-8.45893e-08
3.14107e-07
-2.37308e-07
7.08564e-07
-3.93545e-07
9.09111e-07
-5.24889e-07
9.93568e-07
-6.22961e-07
1.01942e-06
-6.87368e-07
1.01806e-06
-7.20391e-07
1.00522e-06
-7.25039e-07
9.88508e-07
-7.04394e-07
9.7152e-07
-6.61417e-07
9.55864e-07
-5.98877e-07
9.42139e-07
-5.19346e-07
9.30415e-07
-4.25192e-07
9.20487e-07
-3.18583e-07
9.12015e-07
-2.01494e-07
9.04611e-07
-7.57125e-08
8.97883e-07
5.71505e-08
8.91463e-07
1.95641e-07
8.8503e-07
3.3847e-07
8.78311e-07
4.84487e-07
8.7108e-07
6.32668e-07
8.63156e-07
7.82104e-07
8.54399e-07
9.3199e-07
8.44703e-07
1.08161e-06
8.33996e-07
1.23032e-06
8.22231e-07
1.37755e-06
8.09384e-07
1.52281e-06
7.95453e-07
1.66563e-06
7.80451e-07
1.80563e-06
7.64409e-07
1.94243e-06
7.47371e-07
2.07575e-06
7.29391e-07
2.2053e-06
7.10536e-07
2.33085e-06
6.90878e-07
2.4522e-06
6.70497e-07
2.56919e-06
6.49477e-07
2.68169e-06
6.27905e-07
2.78958e-06
6.05868e-07
2.89279e-06
5.83455e-07
2.99126e-06
5.6075e-07
3.08496e-06
5.37838e-07
3.17388e-06
5.14797e-07
3.25802e-06
4.91702e-07
3.3374e-06
4.68622e-07
4.45621e-07
-1.25352e-07
4.39459e-07
-3.27365e-07
9.10577e-07
-5.15872e-07
1.09762e-06
-6.61816e-07
1.13951e-06
-7.62154e-07
1.11975e-06
-8.21057e-07
1.07697e-06
-8.43946e-07
1.02811e-06
-8.35933e-07
9.80495e-07
-8.01511e-07
9.37098e-07
-7.44561e-07
8.98914e-07
-6.68428e-07
8.66006e-07
-5.76009e-07
8.37996e-07
-4.69828e-07
8.14306e-07
-3.52096e-07
7.94283e-07
-2.24756e-07
7.77271e-07
-8.95247e-08
7.62652e-07
5.20774e-08
7.49861e-07
1.98704e-07
7.38404e-07
3.49163e-07
7.27851e-07
5.02399e-07
7.17844e-07
6.57475e-07
7.0808e-07
8.13558e-07
6.98316e-07
9.69909e-07
6.88352e-07
1.12587e-06
6.78035e-07
1.28085e-06
6.67246e-07
1.43434e-06
6.55899e-07
1.58586e-06
6.43933e-07
1.735e-06
6.31314e-07
1.88138e-06
6.18026e-07
2.02468e-06
6.0407e-07
2.16461e-06
5.89463e-07
2.30091e-06
5.74234e-07
2.43337e-06
5.58422e-07
2.56179e-06
5.42076e-07
2.68601e-06
5.2525e-07
2.80592e-06
5.08002e-07
2.92139e-06
4.90394e-07
3.03236e-06
4.72489e-07
3.13876e-06
4.54351e-07
3.24055e-06
4.36044e-07
3.33772e-06
4.17627e-07
3.43026e-06
3.99158e-07
3.51819e-06
3.80694e-07
3.62284e-07
-1.90498e-07
6.29957e-07
-4.51306e-07
1.17138e-06
-6.60741e-07
1.30705e-06
-7.99967e-07
1.27874e-06
-8.78167e-07
1.19795e-06
-9.07098e-07
1.1059e-06
-8.96768e-07
1.01778e-06
-8.55131e-07
9.38858e-07
-7.88408e-07
8.70375e-07
-7.01447e-07
8.11953e-07
-5.98052e-07
7.62611e-07
-4.81245e-07
7.2119e-07
-3.53469e-07
6.86529e-07
-2.16737e-07
6.57551e-07
-7.27331e-08
6.33267e-07
7.71125e-08
6.12806e-07
2.31567e-07
5.95407e-07
3.89558e-07
5.80412e-07
5.50144e-07
5.67265e-07
7.12494e-07
5.55494e-07
8.75867e-07
5.44707e-07
1.03961e-06
5.34578e-07
1.20312e-06
5.24841e-07
1.36587e-06
5.15283e-07
1.52738e-06
5.05733e-07
1.68722e-06
4.96057e-07
1.845e-06
4.86156e-07
2.00036e-06
4.75954e-07
2.15298e-06
4.65404e-07
2.30258e-06
4.54472e-07
2.44889e-06
4.43148e-07
2.5917e-06
4.3143e-07
2.73079e-06
4.19332e-07
2.86599e-06
4.06874e-07
2.99715e-06
3.94087e-07
3.12415e-06
3.81006e-07
3.24687e-06
3.6767e-07
3.36524e-06
3.54122e-07
3.47919e-06
3.40405e-07
3.58867e-06
3.26565e-07
3.69365e-06
3.12646e-07
3.79411e-06
2.9869e-07
3.89007e-06
2.8474e-07
2.70833e-07
-3.00482e-07
9.30439e-07
-6.15363e-07
1.48627e-06
-7.98303e-07
1.48999e-06
-8.72386e-07
1.35282e-06
-8.71378e-07
1.19695e-06
-8.18842e-07
1.05336e-06
-7.30695e-07
9.29632e-07
-6.17862e-07
8.26025e-07
-4.87805e-07
7.40318e-07
-3.45591e-07
6.69739e-07
-1.94661e-07
6.11681e-07
-3.74014e-08
5.6393e-07
1.24491e-07
5.24637e-07
2.89785e-07
4.92257e-07
4.57548e-07
4.65503e-07
6.27051e-07
4.43304e-07
7.97696e-07
4.24762e-07
9.68975e-07
4.09133e-07
1.14044e-06
3.95796e-07
1.3117e-06
3.84236e-07
1.48238e-06
3.74028e-07
1.65214e-06
3.64823e-07
1.82064e-06
3.56335e-07
1.98759e-06
3.48332e-07
2.1527e-06
3.4063e-07
2.31568e-06
3.33079e-07
2.47627e-06
3.25566e-07
2.63422e-06
3.18002e-07
2.7893e-06
3.10322e-07
2.94129e-06
3.02481e-07
3.08999e-06
2.9445e-07
3.2352e-06
2.86214e-07
3.37677e-06
2.77766e-07
3.51453e-06
2.69114e-07
3.64835e-06
2.60267e-07
3.77811e-06
2.51246e-07
3.90371e-06
2.42072e-07
4.02506e-06
2.32771e-07
4.14209e-06
2.2337e-07
4.25476e-06
2.13899e-07
4.36302e-06
2.04388e-07
4.46685e-06
1.94864e-07
4.56623e-06
1.85357e-07
1.75893e-07
-4.97004e-07
1.42744e-06
-7.69502e-07
1.75876e-06
-7.68582e-07
1.48907e-06
-6.3588e-07
1.22012e-06
-4.44009e-07
1.00508e-06
-2.25811e-07
8.35167e-07
2.44781e-09
7.01373e-07
2.31766e-07
5.96707e-07
4.57374e-07
5.14711e-07
6.77144e-07
4.49968e-07
8.90379e-07
3.98447e-07
1.0971e-06
3.57207e-07
1.29769e-06
3.24046e-07
1.49268e-06
2.97265e-07
1.68265e-06
2.75537e-07
1.86814e-06
2.57817e-07
2.04963e-06
2.43273e-07
2.22752e-06
2.31236e-07
2.40215e-06
2.21169e-07
2.57375e-06
2.12634e-07
2.7425e-06
2.0528e-07
2.9085e-06
1.98821e-07
3.07181e-06
1.93027e-07
3.23243e-06
1.87713e-07
3.39033e-06
1.82732e-07
3.54544e-06
1.77965e-07
3.69768e-06
1.73323e-07
3.84695e-06
1.68734e-07
3.99313e-06
1.64146e-07
4.13609e-06
1.59519e-07
4.27571e-06
1.54829e-07
4.41187e-06
1.50058e-07
4.54443e-06
1.45198e-07
4.6733e-06
1.40248e-07
4.79836e-06
1.35211e-07
4.91951e-06
1.30096e-07
5.03667e-06
1.24913e-07
5.14976e-06
1.19677e-07
5.25873e-06
1.14403e-07
5.36352e-06
1.09106e-07
5.4641e-06
1.03803e-07
5.56046e-06
9.85115e-08
5.65257e-06
9.3246e-08
8.80231e-08
-6.72821e-07
2.10026e-06
-3.7523e-07
1.46117e-06
1.91579e-07
9.22265e-07
7.30326e-07
6.81372e-07
1.21074e-06
5.24663e-07
1.63887e-06
4.07033e-07
2.01976e-06
3.2048e-07
2.35859e-06
2.57876e-07
2.66132e-06
2.11981e-07
2.93372e-06
1.77577e-07
3.1808e-06
1.51362e-07
3.40683e-06
1.31181e-07
3.61535e-06
1.15518e-07
3.80935e-06
1.03267e-07
3.99128e-06
9.36108e-08
4.16315e-06
8.59428e-08
4.32662e-06
7.98028e-08
4.48302e-06
7.48383e-08
4.63341e-06
7.0776e-08
4.77864e-06
6.74026e-08
4.91937e-06
6.45513e-08
5.0561e-06
6.2091e-08
5.18921e-06
5.99187e-08
5.31897e-06
5.79538e-08
5.44557e-06
5.61334e-08
5.56913e-06
5.44086e-08
5.68971e-06
5.27421e-08
5.80734e-06
5.11057e-08
5.922e-06
4.94785e-08
6.03368e-06
4.7846e-08
6.14231e-06
4.61982e-08
6.24784e-06
4.45294e-08
6.3502e-06
4.28369e-08
6.44932e-06
4.11207e-08
6.54515e-06
3.93827e-08
6.63762e-06
3.76262e-08
6.72668e-06
3.5856e-08
6.81228e-06
3.40772e-08
6.89439e-06
3.22958e-08
6.97297e-06
3.05178e-08
7.04803e-06
2.87491e-08
7.11954e-06
2.6996e-08
7.18753e-06
2.52637e-08
2.35574e-08
2.10026e-06
3.56144e-06
4.4837e-06
5.16507e-06
5.68974e-06
6.09677e-06
6.41725e-06
6.67513e-06
6.88711e-06
7.06468e-06
7.21605e-06
7.34723e-06
7.46275e-06
7.56601e-06
7.65962e-06
7.74557e-06
7.82537e-06
7.90021e-06
7.97098e-06
8.03839e-06
8.10294e-06
8.16503e-06
8.22495e-06
8.2829e-06
8.33903e-06
8.39344e-06
8.44619e-06
8.49729e-06
8.54677e-06
8.59462e-06
8.64081e-06
8.68534e-06
8.72818e-06
8.7693e-06
8.80868e-06
8.84631e-06
8.88217e-06
8.91624e-06
8.94854e-06
8.97906e-06
9.00781e-06
9.0348e-06
9.06007e-06
)
;

boundaryField
{
    movingWall
    {
        type            calculated;
        value           uniform 0;
    }
    fixedWalls
    {
        type            calculated;
        value           uniform 0;
    }
    frontAndBack
    {
        type            empty;