/*--------------------------------*- C++ -*----------------------------------*\
  =========                 |
  \\      /  F ield         | OpenFOAM: The Open Source CFD Toolbox
   \\    /   O peration     | Website:  https://openfoam.org
    \\  /    A nd           | Version:  9
     \\/     M anipulation  |
\*---------------------------------------------------------------------------*/
FoamFile
{
    format      ascii;
    class       volVectorField;
    location    "2";
    object      U;
}
// * * * * * * * * * * * * * * * * * * * * * * * * * * * * * * * * * * * * * //

dimensions      [0 1 -1 0 0 0 0];

internalField   nonuniform List<vector> 
1250
(
(0.135941 0.2796 0)
(0.138982 0.271674 0)
(0.141734 0.26312 0)
(0.144215 0.254059 0)
(0.146449 0.244608 0)
(0.148459 0.234868 0)
(0.15027 0.224931 0)
(0.151907 0.214873 0)
(0.15339 0.204755 0)
(0.154738 0.194626 0)
(0.155967 0.184522 0)
(0.157088 0.174469 0)
(0.158109 0.164482 0)
(0.159035 0.154569 0)
(0.159867 0.144735 0)
(0.160603 0.134977 0)
(0.161239 0.125291 0)
(0.16177 0.11567 0)
(0.000227054 0.0110735 0)
(0.00165182 0.034957 0)
(0.00474263 0.0601392 0)
(0.00907916 0.0860287 0)
(0.0144109 0.111946 0)
(0.020506 0.137209 0)
(0.0271162 0.161208 0)
(0.0340103 0.183473 0)
(0.0409986 0.203699 0)
(0.0479439 0.221748 0)
(0.0547627 0.23762 0)
(0.0614188 0.251411 0)
(0.06791 0.263267 0)
(0.0742536 0.273344 0)
(0.0804727 0.281781 0)
(0.0865854 0.288685 0)
(0.0925991 0.294129 0)
(0.0985076 0.298154 0)
(0.104293 0.300786 0)
(0.109926 0.302044 0)
(0.115375 0.301951 0)
(0.120604 0.300541 0)
(0.12558 0.297868 0)
(0.130277 0.294002 0)
(0.134673 0.289032 0)
(0.138756 0.283062 0)
(0.142521 0.276205 0)
(0.145974 0.268583 0)
(0.149123 0.260317 0)
(0.151985 0.251525 0)
(0.154579 0.24232 0)
(0.156929 0.232803 0)
(0.159057 0.223064 0)
(0.160987 0.213181 0)
(0.16274 0.203219 0)
(0.164335 0.193227 0)
(0.165789 0.183247 0)
(0.167115 0.173307 0)
(0.168321 0.163426 0)
(0.169415 0.153616 0)
(0.170398 0.143883 0)
(0.171272 0.134229 0)
(0.172032 0.124651 0)
(0.172676 0.115145 0)
(0.000211687 0.0102501 0)
(0.0015628 0.0326434 0)
(0.00452142 0.0565019 0)
(0.00871289 0.0812616 0)
(0.0139195 0.106272 0)
(0.0199357 0.130865 0)
(0.0265318 0.154429 0)
(0.0334862 0.176468 0)
(0.0406084 0.196635 0)
(0.0477528 0.214741 0)
(0.0548231 0.230737 0)
(0.0617684 0.244678 0)
(0.0685738 0.256682 0)
(0.0752469 0.26689 0)
(0.0818051 0.27544 0)
(0.0882642 0.282444 0)
(0.094632 0.287985 0)
(0.100904 0.292119 0)
(0.107065 0.294883 0)
(0.113088 0.296303 0)
(0.11894 0.296406 0)
(0.124587 0.295227 0)
(0.129993 0.292816 0)
(0.13513 0.289238 0)
(0.139971 0.284574 0)
(0.144501 0.27892 0)
(0.14871 0.272383 0)
(0.152599 0.265075 0)
(0.156173 0.257111 0)
(0.159445 0.248606 0)
(0.16243 0.239667 0)
(0.16515 0.230394 0)
(0.167626 0.220876 0)
(0.169879 0.211193 0)
(0.171932 0.201409 0)
(0.173803 0.191579 0)
(0.175508 0.181745 0)
(0.177063 0.171938 0)
(0.178478 0.162183 0)
(0.17976 0.152494 0)
(0.180914 0.142879 0)
(0.181941 0.133344 0)
(0.182841 0.123887 0)
(0.18361 0.114507 0)
(0.000195768 0.00947519 0)
(0.00146643 0.0304448 0)
(0.0042747 0.0530143 0)
(0.00829155 0.0766469 0)
(0.0133325 0.100723 0)
(0.0192196 0.124595 0)
(0.0257453 0.147657 0)
(0.032701 0.169395 0)
(0.0399001 0.189431 0)
(0.047192 0.207532 0)
(0.0544697 0.223604 0)
(0.0616691 0.237659 0)
(0.0687624 0.249787 0)
(0.0757465 0.260111 0)
(0.0826314 0.268762 0)
(0.0894293 0.275856 0)
(0.096147 0.281486 0)
(0.102781 0.285718 0)
(0.109318 0.288599 0)
(0.115732 0.290166 0)
(0.121992 0.290449 0)
(0.128062 0.289486 0)
(0.133908 0.287324 0)
(0.139495 0.284024 0)
(0.144796 0.279661 0)
(0.14979 0.274323 0)
(0.154465 0.268109 0)
(0.158814 0.261123 0)
(0.162839 0.253474 0)
(0.166549 0.245271 0)
(0.169955 0.236617 0)
(0.173077 0.22761 0)
(0.175932 0.218338 0)
(0.178541 0.208878 0)
(0.180924 0.199298 0)
(0.183101 0.189653 0)
(0.185087 0.179989 0)
(0.186899 0.170339 0)
(0.188548 0.160731 0)
(0.190042 0.151182 0)
(0.191388 0.141704 0)
(0.192588 0.132304 0)
(0.193644 0.122983 0)
(0.194554 0.113743 0)
(0.000179351 0.0087523 0)
(0.00136298 0.0283738 0)
(0.00400311 0.0496998 0)
(0.00781617 0.0722192 0)
(0.012651 0.0953436 0)
(0.0183586 0.118452 0)
(0.0247562 0.140948 0)
(0.0316523 0.162313 0)
(0.0388676 0.182143 0)
(0.0462508 0.200171 0)
(0.053687 0.216259 0)
(0.0611007 0.230385 0)
(0.0684511 0.242604 0)
(0.075724 0.253021 0)
(0.0829207 0.261756 0)
(0.090048 0.268927 0)
(0.0971103 0.274631 0)
(0.104104 0.278947 0)
(0.111016 0.28193 0)
(0.117823 0.283626 0)
(0.124494 0.284073 0)
(0.130994 0.283309 0)
(0.137286 0.281382 0)
(0.143334 0.278348 0)
(0.149108 0.274278 0)
(0.154584 0.269252 0)
(0.159742 0.26336 0)
(0.164574 0.256702 0)
(0.169075 0.249379 0)
(0.17325 0.241492 0)
(0.177107 0.233141 0)
(0.180661 0.224421 0)
(0.183927 0.215416 0)
(0.186924 0.206204 0)
(0.18967 0.196853 0)
(0.192184 0.187419 0)
(0.194482 0.177949 0)
(0.196581 0.168481 0)
(0.198491 0.159043 0)
(0.200223 0.149656 0)
(0.201785 0.140335 0)
(0.203181 0.131089 0)
(0.204414 0.121923 0)
(0.205483 0.112837 0)
(0.000162462 0.00808475 0)
(0.00125245 0.0264431 0)
(0.0037066 0.0465818 0)
(0.00728672 0.0680132 0)
(0.011875 0.0901803 0)
(0.0173525 0.11249 0)
(0.0235636 0.134364 0)
(0.030337 0.155284 0)
(0.0375054 0.174832 0)
(0.04492 0.192712 0)
(0.0524615 0.208752 0)
(0.0600448 0.222893 0)
(0.0676174 0.235162 0)
(0.0751532 0.245639 0)
(0.082644 0.254436 0)
(0.0900895 0.261664 0)
(0.09749 0.267426 0)
(0.10484 0.271808 0)
(0.112127 0.274877 0)
(0.119329 0.276684 0)
(0.126414 0.277274 0)
(0.133347 0.276691 0)
(0.140092 0.274981 0)
(0.146611 0.272199 0)
(0.15287 0.26841 0)
(0.15884 0.263689 0)
(0.164499 0.258119 0)
(0.169833 0.251791 0)
(0.174833 0.2448 0)
(0.179499 0.237241 0)
(0.183835 0.229209 0)
(0.18785 0.220794 0)
(0.191558 0.212078 0)
(0.194975 0.203139 0)
(0.198117 0.194041 0)
(0.201 0.184844 0)
(0.203643 0.175595 0)
(0.206058 0.166334 0)
(0.20826 0.157091 0)
(0.210259 0.14789 0)
(0.212064 0.138748 0)
(0.21368 0.129677 0)
(0.215112 0.120684 0)
(0.21636 0.111772 0)
(0.000145039 0.00747599 0)
(0.00113436 0.0246654 0)
(0.00338388 0.0436839 0)
(0.00670116 0.064064 0)
(0.0110019 0.0852784 0)
(0.0161983 0.106765 0)
(0.0221637 0.127966 0)
(0.0287504 0.148373 0)
(0.0358063 0.167561 0)
(0.0431894 0.185214 0)
(0.0507793 0.201134 0)
(0.0584837 0.215227 0)
(0.0662393 0.227493 0)
(0.0740087 0.237991 0)
(0.0817728 0.246817 0)
(0.0895232 0.254077 0)
(0.0972544 0.259877 0)
(0.104958 0.264305 0)
(0.11262 0.267438 0)
(0.120216 0.269336 0)
(0.127718 0.27005 0)
(0.13509 0.269627 0)
(0.142293 0.268115 0)
(0.14929 0.265568 0)
(0.156042 0.262047 0)
(0.162519 0.257621 0)
(0.168694 0.252367 0)
(0.174548 0.246369 0)
(0.180067 0.239715 0)
(0.185247 0.232493 0)
(0.190086 0.224793 0)
(0.194591 0.2167 0)
(0.198771 0.208294 0)
(0.202638 0.199649 0)
(0.206207 0.190831 0)
(0.209492 0.181896 0)
(0.212511 0.172895 0)
(0.215275 0.163867 0)
(0.2178 0.154845 0)
(0.220095 0.145855 0)
(0.222171 0.136917 0)
(0.224034 0.128044 0)
(0.225689 0.119245 0)
(0.22714 0.110525 0)
(0.000126913 0.00692983 0)
(0.00100752 0.0230546 0)
(0.00303194 0.0410309 0)
(0.00605461 0.0604072 0)
(0.0100254 0.0806844 0)
(0.0148886 0.101331 0)
(0.0205485 0.121815 0)
(0.0268835 0.141644 0)
(0.0337603 0.160395 0)
(0.0410472 0.17774 0)
(0.0486259 0.193458 0)
(0.0563993 0.207432 0)
(0.0642955 0.219635 0)
(0.0722657 0.230103 0)
(0.0802798 0.238918 0)
(0.0883197 0.246179 0)
(0.0963726 0.251988 0)
(0.104425 0.25644 0)
(0.11246 0.259615 0)
(0.120454 0.261581 0)
(0.128375 0.262397 0)
(0.136189 0.262112 0)
(0.143856 0.260778 0)
(0.151336 0.258448 0)
(0.15859 0.255179 0)
(0.165584 0.251036 0)
(0.172286 0.24609 0)
(0.178674 0.240419 0)
(0.18473 0.234103 0)
(0.190443 0.227225 0)
(0.195808 0.219868 0)
(0.200828 0.212113 0)
(0.205506 0.204035 0)
(0.209852 0.195706 0)
(0.213878 0.18719 0)
(0.217597 0.178544 0)
(0.221023 0.169816 0)
(0.224168 0.161048 0)
(0.227046 0.152274 0)
(0.229668 0.143522 0)
(0.232044 0.134813 0)
(0.234182 0.126162 0)
(0.236087 0.117581 0)
(0.237764 0.109076 0)
(0.000107755 0.00645089 0)
(0.000869789 0.0216264 0)
(0.00264538 0.03865 0)
(0.00533833 0.0570811 0)
(0.00893414 0.0764462 0)
(0.0134103 0.0962448 0)
(0.0187039 0.115975 0)
(0.0247219 0.135165 0)
(0.0313526 0.1534 0)
(0.0384777 0.17035 0)
(0.045984 0.185782 0)
(0.0537727 0.199557 0)
(0.0617645 0.211625 0)
(0.0699003 0.222004 0)
(0.0781385 0.23076 0)
(0.0864506 0.237981 0)
(0.0948149 0.243767 0)
(0.103212 0.248214 0)
(0.111619 0.251406 0)
(0.120011 0.253417 0)
(0.128354 0.254311 0)
(0.136614 0.254143 0)
(0.144748 0.252965 0)
(0.152717 0.250832 0)
(0.160479 0.247798 0)
(0.167997 0.243924 0)
(0.175237 0.239276 0)
(0.18217 0.233926 0)
(0.188776 0.227947 0)
(0.195039 0.221417 0)
(0.20095 0.214411 0)
(0.206505 0.207006 0)
(0.211705 0.199273 0)
(0.216556 0.191281 0)
(0.221067 0.18309 0)
(0.225248 0.174756 0)
(0.229111 0.166328 0)
(0.232667 0.157847 0)
(0.235929 0.149348 0)
(0.238907 0.140861 0)
(0.241613 0.132407 0)
(0.244053 0.124004 0)
(0.246236 0.115665 0)
(0.248165 0.107399 0)
(8.70098e-05 0.00604519 0)
(0.000717738 0.0204002 0)
(0.00221563 0.0365727 0)
(0.00453843 0.0541278 0)
(0.00770984 0.0726149 0)
(0.0117425 0.0915651 0)
(0.0166081 0.110509 0)
(0.0222438 0.129001 0)
(0.0285619 0.146643 0)
(0.0354601 0.163111 0)
(0.0428331 0.178164 0)
(0.0505827 0.191651 0)
(0.058624 0.203505 0)
(0.0668886 0.213726 0)
(0.0753237 0.222364 0)
(0.0838892 0.229499 0)
(0.0925536 0.235223 0)
(0.101289 0.239631 0)
(0.110067 0.242812 0)
(0.118858 0.244842 0)
(0.127627 0.24579 0)
(0.136335 0.245714 0)
(0.144942 0.244671 0)
(0.153404 0.242714 0)
(0.161679 0.239897 0)
(0.169726 0.236277 0)
(0.17751 0.231917 0)
(0.184998 0.22688 0)
(0.192164 0.221235 0)
(0.198989 0.215053 0)
(0.20546 0.208405 0)
(0.211568 0.20136 0)
(0.21731 0.193986 0)
(0.222688 0.186347 0)
(0.227708 0.178502 0)
(0.232376 0.170504 0)
(0.236702 0.162401 0)
(0.240698 0.154234 0)
(0.244372 0.146037 0)
(0.247736 0.137842 0)
(0.250799 0.12967 0)
(0.25357 0.121542 0)
(0.256056 0.113472 0)
(0.258264 0.105469 0)
(6.37771e-05 0.00572093 0)
(0.000546093 0.0194002 0)
(0.00172978 0.0348367 0)
(0.00363416 0.0515949 0)
(0.00632552 0.0692455 0)
(0.00985424 0.087352 0)
(0.0142284 0.105481 0)
(0.0194171 0.123218 0)
(0.0253578 0.140189 0)
(0.0319663 0.156083 0)
(0.0391472 0.170661 0)
(0.0468048 0.183766 0)
(0.0548504 0.195317 0)
(0.0632071 0.205302 0)
(0.0718112 0.213755 0)
(0.0806109 0.220747 0)
(0.0895634 0.226363 0)
(0.0986312 0.230696 0)
(0.107779 0.233833 0)
(0.11697 0.235853 0)
(0.126167 0.23683 0)
(0.135329 0.236824 0)
(0.144411 0.235893 0)
(0.15337 0.234092 0)
(0.162161 0.231473 0)
(0.170742 0.228091 0)
(0.179073 0.224004 0)
(0.187121 0.219272 0)
(0.194854 0.213956 0)
(0.20225 0.208122 0)
(0.209291 0.201835 0)
(0.215965 0.195158 0)
(0.222264 0.188156 0)
(0.228187 0.180886 0)
(0.233735 0.173405 0)
(0.238912 0.165765 0)
(0.243725 0.15801 0)
(0.248184 0.150181 0)
(0.252296 0.142314 0)
(0.256071 0.134437 0)
(0.259518 0.126576 0)
(0.262646 0.11875 0)
(0.265463 0.110974 0)
(0.267974 0.103261 0)
(3.6643e-05 0.00548956 0)
(0.000347054 0.0186586 0)
(0.00116916 0.0334889 0)
(0.00259583 0.0495386 0)
(0.00474277 0.0663991 0)
(0.0077018 0.083669 0)
(0.0115193 0.100955 0)
(0.0161971 0.11788 0)
(0.0216989 0.134101 0)
(0.027959 0.149326 0)
(0.0348934 0.163328 0)
(0.04241 0.175948 0)
(0.0504175 0.187101 0)
(0.0588316 0.196763 0)
(0.0675781 0.204957 0)
(0.0765931 0.211742 0)
(0.0858219 0.217198 0)
(0.0952162 0.221411 0)
(0.104732 0.224468 0)
(0.114325 0.226449 0)
(0.123953 0.227427 0)
(0.133571 0.227467 0)
(0.143133 0.226627 0)
(0.152592 0.224961 0)
(0.161902 0.222523 0)
(0.171018 0.219363 0)
(0.1799 0.215537 0)
(0.188509 0.211099 0)
(0.196813 0.206106 0)
(0.204784 0.200617 0)
(0.212401 0.194692 0)
(0.219649 0.188389 0)
(0.226515 0.181767 0)
(0.232994 0.17488 0)
(0.239085 0.167781 0)
(0.244787 0.160517 0)
(0.250107 0.153133 0)
(0.255048 0.145667 0)
(0.259619 0.138154 0)
(0.263828 0.130623 0)
(0.267683 0.123098 0)
(0.271192 0.115601 0)
(0.274362 0.108148 0)
(0.2772 0.10075 0)
(3.69706e-06 0.0053669 0)
(0.000109499 0.0182191 0)
(0.000507398 0.0325892 0)
(0.00138218 0.0480264 0)
(0.00290886 0.0641451 0)
(0.00522561 0.0805837 0)
(0.00841908 0.0969953 0)
(0.0125241 0.113048 0)
(0.0175301 0.128436 0)
(0.0233897 0.142895 0)
(0.03003 0.156213 0)
(0.0373631 0.168243 0)
(0.0452959 0.178895 0)
(0.0537373 0.188139 0)
(0.0626026 0.19599 0)
(0.071816 0.202499 0)
(0.0813104 0.207736 0)
(0.0910258 0.211781 0)
(0.100908 0.214719 0)
(0.110905 0.216628 0)
(0.120967 0.21758 0)
(0.131045 0.21764 0)
(0.141089 0.216869 0)
(0.151051 0.21532 0)
(0.160881 0.213044 0)
(0.170534 0.210091 0)
(0.179965 0.206513 0)
(0.189136 0.202358 0)
(0.19801 0.197681 0)
(0.206557 0.192534 0)
(0.214753 0.186972 0)
(0.222577 0.181047 0)
(0.230015 0.174812 0)
(0.237058 0.168319 0)
(0.243699 0.161615 0)
(0.249938 0.154746 0)
(0.255776 0.147752 0)
(0.261216 0.140672 0)
(0.266263 0.133537 0)
(0.270924 0.126377 0)
(0.275205 0.119216 0)
(0.279115 0.112074 0)
(0.282659 0.10497 0)
(0.285844 0.0979153 0)
(-3.69495e-05 0.00537711 0)
(-0.000181794 0.0181395 0)
(-0.000292692 0.0322151 0)
(-6.30435e-05 0.0471406 0)
(0.000753225 0.0625623 0)
(0.00234705 0.0781686 0)
(0.00484724 0.0936676 0)
(0.00832077 0.10878 0)
(0.0127808 0.123245 0)
(0.0181967 0.136834 0)
(0.0245052 0.149359 0)
(0.0316221 0.160684 0)
(0.0394522 0.170727 0)
(0.0478976 0.179454 0)
(0.0568637 0.186874 0)
(0.0662625 0.19303 0)
(0.0760143 0.197984 0)
(0.0860469 0.201809 0)
(0.0962946 0.204585 0)
(0.106697 0.206386 0)
(0.117196 0.207283 0)
(0.127738 0.207341 0)
(0.138268 0.206618 0)
(0.148734 0.205166 0)
(0.159085 0.203037 0)
(0.169273 0.200277 0)
(0.179253 0.196933 0)
(0.188982 0.193053 0)
(0.198423 0.188684 0)
(0.207543 0.183875 0)
(0.216313 0.178673 0)
(0.224712 0.173129 0)
(0.232722 0.167288 0)
(0.240329 0.161198 0)
(0.247525 0.154902 0)
(0.254306 0.148443 0)
(0.260669 0.141858 0)
(0.266616 0.135183 0)
(0.27215 0.128449 0)
(0.277276 0.121683 0)
(0.281998 0.114911 0)
(0.286323 0.108151 0)
(0.290258 0.101422 0)
(0.293808 0.0947362 0)
(-9.11688e-05 0.00555374 0)
(-0.000550095 0.0184985 0)
(-0.00128121 0.0324661 0)
(-0.00181571 0.0469828 0)
(-0.00181652 0.0617429 0)
(-0.00103474 0.0765015 0)
(0.000701605 0.0910351 0)
(0.00348975 0.105128 0)
(0.00736323 0.118572 0)
(0.0123042 0.131179 0)
(0.0182565 0.142794 0)
(0.0251374 0.153298 0)
(0.0328485 0.162619 0)
(0.0412848 0.170725 0)
(0.0503415 0.177622 0)
(0.0599188 0.183344 0)
(0.0699239 0.187947 0)
(0.0802723 0.191496 0)
(0.0908867 0.194064 0)
(0.101697 0.195721 0)
(0.112636 0.196535 0)
(0.123644 0.196565 0)
(0.134662 0.19587 0)
(0.145633 0.1945 0)
(0.156505 0.192502 0)
(0.167227 0.189921 0)
(0.17775 0.186802 0)
(0.188033 0.183187 0)
(0.198034 0.17912 0)
(0.207719 0.174644 0)
(0.217058 0.169803 0)
(0.226025 0.164639 0)
(0.2346 0.159197 0)
(0.242768 0.153517 0)
(0.250516 0.14764 0)
(0.257837 0.141604 0)
(0.264727 0.135444 0)
(0.271184 0.129193 0)
(0.27721 0.12288 0)
(0.282807 0.116532 0)
(0.287979 0.110171 0)
(0.29273 0.103817 0)
(0.297067 0.0974883 0)
(0.300994 0.0911976 0)
(-0.000165494 0.00594377 0)
(-0.0010271 0.0194044 0)
(-0.00252565 0.0334717 0)
(-0.00397394 0.0476779 0)
(-0.00491919 0.0617931 0)
(-0.00504749 0.0756651 0)
(-0.00414443 0.0891586 0)
(-0.00208741 0.102133 0)
(0.0011717 0.114444 0)
(0.0056223 0.125952 0)
(0.0112105 0.136533 0)
(0.0178521 0.146096 0)
(0.0254429 0.15458 0)
(0.0338699 0.161959 0)
(0.0430178 0.168237 0)
(0.0527746 0.173443 0)
(0.0630349 0.177625 0)
(0.0737015 0.180842 0)
(0.0846857 0.183156 0)
(0.0959065 0.184632 0)
(0.10729 0.185331 0)
(0.118767 0.185312 0)
(0.130273 0.184625 0)
(0.14175 0.18332 0)
(0.15314 0.181441 0)
(0.164391 0.179029 0)
(0.175452 0.176125 0)
(0.18628 0.172768 0)
(0.196833 0.168997 0)
(0.207073 0.164851 0)
(0.216969 0.160368 0)
(0.226494 0.155587 0)
(0.235624 0.150546 0)
(0.244342 0.145284 0)
(0.252633 0.139834 0)
(0.260488 0.134233 0)
(0.2679 0.128512 0)
(0.274864 0.122702 0)
(0.281381 0.116828 0)
(0.28745 0.110917 0)
(0.293074 0.104989 0)
(0.298256 0.0990648 0)
(0.303001 0.09316 0)
(0.307314 0.0872884 0)
(-0.000269666 0.00661574 0)
(-0.0016572 0.0210035 0)
(-0.00411775 0.0353993 0)
(-0.00666639 0.0493773 0)
(-0.00870451 0.0628327 0)
(-0.0098477 0.0757449 0)
(-0.00984313 0.088093 0)
(-0.00855032 0.0998284 0)
(-0.00591603 0.110877 0)
(-0.00195233 0.121153 0)
(0.00328446 0.130573 0)
(0.00970361 0.139071 0)
(0.0171911 0.146603 0)
(0.0256244 0.153149 0)
(0.0348771 0.158714 0)
(0.0448247 0.163323 0)
(0.0553494 0.167015 0)
(0.0663418 0.169841 0)
(0.0777018 0.171855 0)
(0.0893382 0.173113 0)
(0.101168 0.17367 0)
(0.113116 0.173578 0)
(0.125112 0.172883 0)
(0.137092 0.17163 0)
(0.148996 0.169858 0)
(0.16077 0.167607 0)
(0.172361 0.164911 0)
(0.183724 0.161806 0)
(0.194816 0.158326 0)
(0.205598 0.154507 0)
(0.216037 0.150382 0)
(0.226104 0.145984 0)
(0.235775 0.141349 0)
(0.245028 0.136509 0)
(0.253849 0.131495 0)
(0.262226 0.126339 0)
(0.270148 0.121069 0)
(0.277611 0.115713 0)
(0.284611 0.110296 0)
(0.291147 0.10484 0)
(0.297221 0.0993655 0)
(0.302834 0.0938909 0)
(0.307989 0.0884319 0)
(0.312692 0.0830018 0)
(-0.000418798 0.00766754 0)
(-0.00250341 0.0234933 0)
(-0.00618079 0.0384627 0)
(-0.0100588 0.0522635 0)
(-0.0133582 0.0649952 0)
(-0.015623 0.0768259 0)
(-0.0165716 0.0878825 0)
(-0.0160585 0.0982263 0)
(-0.0140372 0.107863 0)
(-0.0105305 0.116763 0)
(-0.00560803 0.124888 0)
(0.000627006 0.132197 0)
(0.00804932 0.138662 0)
(0.016523 0.144273 0)
(0.0259091 0.149035 0)
(0.0360708 0.152967 0)
(0.0468782 0.156104 0)
(0.0582101 0.158485 0)
(0.0699556 0.160155 0)
(0.0820142 0.161161 0)
(0.0942947 0.16155 0)
(0.106714 0.161364 0)
(0.119198 0.160646 0)
(0.131678 0.159433 0)
(0.14409 0.15776 0)
(0.156378 0.155662 0)
(0.168488 0.153169 0)
(0.180373 0.150312 0)
(0.191989 0.147122 0)
(0.203296 0.143628 0)
(0.21426 0.139861 0)
(0.224852 0.135849 0)
(0.235044 0.131622 0)
(0.244815 0.127209 0)
(0.254148 0.122638 0)
(0.263029 0.117935 0)
(0.271447 0.113128 0)
(0.279394 0.108239 0)
(0.286867 0.103292 0)
(0.293862 0.0983074 0)
(0.300378 0.0933033 0)
(0.306418 0.088297 0)
(0.311983 0.0833032 0)
(0.317076 0.0783347 0)
(-0.000636515 0.00923975 0)
(-0.00365595 0.0271393 0)
(-0.0088801 0.0429315 0)
(-0.0143623 0.0565502 0)
(-0.0191055 0.068423 0)
(-0.0225913 0.0789852 0)
(-0.0245275 0.0885533 0)
(-0.0247823 0.097317 0)
(-0.0233324 0.105368 0)
(-0.0202243 0.112738 0)
(-0.0155503 0.119427 0)
(-0.00943335 0.125422 0)
(-0.00201571 0.130711 0)
(0.00655172 0.135291 0)
(0.0161164 0.139165 0)
(0.0265287 0.142351 0)
(0.0376467 0.144872 0)
(0.0493385 0.146759 0)
(0.0614838 0.148046 0)
(0.0739734 0.14877 0)
(0.0867086 0.148966 0)
(0.0996006 0.148671 0)
(0.112569 0.147916 0)
(0.125543 0.146735 0)
(0.138455 0.145155 0)
(0.151246 0.143206 0)
(0.163862 0.140913 0)
(0.176253 0.138303 0)
(0.188375 0.135402 0)
(0.200189 0.132234 0)
(0.211659 0.128825 0)
(0.222754 0.1252 0)
(0.233447 0.121385 0)
(0.243716 0.117404 0)
(0.253542 0.113281 0)
(0.262909 0.10904 0)
(0.271806 0.104704 0)
(0.280224 0.100293 0)
(0.288157 0.0958285 0)
(0.295601 0.091328 0)
(0.302556 0.0868088 0)
(0.30902 0.0822861 0)
(0.314995 0.0777738 0)
(0.320486 0.0732834 0)
(-0.000960623 0.0115363 0)
(-0.00524562 0.0322973 0)
(-0.0124375 0.0491396 0)
(-0.019841 0.0624783 0)
(-0.0262104 0.0732563 0)
(-0.0309914 0.08228 0)
(-0.0339127 0.0901023 0)
(-0.0348833 0.0970575 0)
(-0.0339234 0.103327 0)
(-0.0311185 0.108999 0)
(-0.0265939 0.11411 0)
(-0.0204996 0.11867 0)
(-0.0129997 0.122681 0)
(-0.00426441 0.126143 0)
(0.00554025 0.129059 0)
(0.0162536 0.131435 0)
(0.0277206 0.133291 0)
(0.0398002 0.134644 0)
(0.0523642 0.135516 0)
(0.0652963 0.135932 0)
(0.0784919 0.135918 0)
(0.0918569 0.135499 0)
(0.105307 0.1347 0)
(0.118767 0.133544 0)
(0.132169 0.132054 0)
(0.145452 0.130252 0)
(0.158559 0.128159 0)
(0.171442 0.125796 0)
(0.184055 0.123183 0)
(0.196358 0.120343 0)
(0.208315 0.117294 0)
(0.219896 0.114059 0)
(0.231073 0.110658 0)
(0.241823 0.107113 0)
(0.252126 0.103444 0)
(0.261967 0.0996699 0)
(0.271333 0.0958114 0)
(0.280215 0.0918867 0)
(0.288605 0.0879131 0)
(0.296501 0.0839068 0)
(0.303898 0.0798829 0)
(0.310798 0.075855 0)
(0.3172 0.0718356 0)
(0.32311 0.0678353 0)
(-0.00145373 0.0148573 0)
(-0.00746591 0.039441 0)
(-0.0171497 0.057488 0)
(-0.0268161 0.0703007 0)
(-0.0349606 0.0796109 0)
(-0.0410514 0.086725 0)
(-0.0448886 0.092478 0)
(-0.0464575 0.0973571 0)
(-0.0458467 0.101628 0)
(-0.0431975 0.105428 0)
(-0.0386789 0.108822 0)
(-0.032475 0.111837 0)
(-0.0247757 0.11448 0)
(-0.0157705 0.116751 0)
(-0.00564431 0.118649 0)
(0.00543451 0.120172 0)
(0.0173033 0.121324 0)
(0.0298085 0.122112 0)
(0.0428179 0.122546 0)
(0.0562102 0.122638 0)
(0.0698764 0.122402 0)
(0.0837191 0.121851 0)
(0.0976514 0.121002 0)
(0.111596 0.119869 0)
(0.125482 0.118467 0)
(0.139249 0.116812 0)
(0.152841 0.11492 0)
(0.166207 0.112804 0)
(0.179302 0.110482 0)
(0.192086 0.10797 0)
(0.204525 0.105283 0)
(0.216587 0.102439 0)
(0.228245 0.0994551 0)
(0.239476 0.0963474 0)
(0.250261 0.0931334 0)
(0.260583 0.0898296 0)
(0.27043 0.0864522 0)
(0.279793 0.0830169 0)
(0.288663 0.0795385 0)
(0.297038 0.076031 0)
(0.304913 0.0725072 0)
(0.31229 0.0689792 0)
(0.319168 0.0654577 0)
(0.325553 0.0619524 0)
(-0.00222392 0.0196533 0)
(-0.01061 0.049196 0)
(-0.0234104 0.0684327 0)
(-0.0356517 0.0802425 0)
(-0.0456142 0.0875311 0)
(-0.0528989 0.0922487 0)
(-0.0574524 0.0955429 0)
(-0.0593821 0.0980463 0)
(-0.0588734 0.100093 0)
(-0.0561405 0.101851 0)
(-0.0514067 0.103402 0)
(-0.0448956 0.104777 0)
(-0.0368257 0.105982 0)
(-0.0274062 0.107011 0)
(-0.0168348 0.107851 0)
(-0.0052929 0.108492 0)
(0.00705179 0.108918 0)
(0.0200441 0.109126 0)
(0.0335459 0.10911 0)
(0.0474341 0.10887 0)
(0.061598 0.108405 0)
(0.075939 0.10772 0)
(0.0903695 0.106819 0)
(0.104812 0.105708 0)
(0.119195 0.104396 0)
(0.133459 0.102889 0)
(0.147547 0.101197 0)
(0.16141 0.0993295 0)
(0.175004 0.0972979 0)
(0.18829 0.0951132 0)
(0.201233 0.0927874 0)
(0.213803 0.0903331 0)
(0.225973 0.0877632 0)
(0.237722 0.0850911 0)
(0.249029 0.0823301 0)
(0.25988 0.0794936 0)
(0.270263 0.0765948 0)
(0.280167 0.0736463 0)
(0.289586 0.0706605 0)
(0.298515 0.0676489 0)
(0.306952 0.0646225 0)
(0.314898 0.0615914 0)
(0.322352 0.0585649 0)
(0.329319 0.0555512 0)
(-0.00346646 0.0266215 0)
(-0.0151349 0.0623732 0)
(-0.0317282 0.0824297 0)
(-0.0466891 0.0924038 0)
(-0.0582436 0.0968859 0)
(-0.0663188 0.0985959 0)
(-0.0711134 0.0989863 0)
(-0.0729135 0.0987994 0)
(-0.0720332 0.0984032 0)
(-0.068778 0.0979733 0)
(-0.063435 0.0975851 0)
(-0.0562711 0.0972603 0)
(-0.0475327 0.0969917 0)
(-0.0374462 0.0967577 0)
(-0.0262184 0.0965306 0)
(-0.0140368 0.0962823 0)
(-0.00107052 0.0959843 0)
(0.0125273 0.0956134 0)
(0.0266198 0.0951506 0)
(0.0410856 0.0945801 0)
(0.0558162 0.0938904 0)
(0.0707156 0.0930729 0)
(0.0856982 0.0921222 0)
(0.100688 0.0910353 0)
(0.115618 0.0898116 0)
(0.130427 0.088452 0)
(0.145062 0.0869594 0)
(0.159475 0.0853379 0)
(0.173625 0.0835929 0)
(0.187473 0.0817312 0)
(0.200986 0.0797603 0)
(0.214135 0.0776886 0)
(0.226896 0.0755254 0)
(0.239245 0.0732803 0)
(0.251167 0.0709633 0)
(0.262644 0.0685844 0)
(0.273667 0.066154 0)
(0.284224 0.0636821 0)
(0.29431 0.0611783 0)
(0.30392 0.0586521 0)
(0.313052 0.0561123 0)
(0.321705 0.0535672 0)
(0.329881 0.0510246 0)
(0.337583 0.0484914 0)
(-0.0055512 0.0368906 0)
(-0.0217761 0.0799803 0)
(-0.0427075 0.0997638 0)
(-0.0600174 0.106525 0)
(-0.0722926 0.10713 0)
(-0.0801087 0.105101 0)
(-0.0840581 0.102111 0)
(-0.0846765 0.0989371 0)
(-0.082447 0.0959262 0)
(-0.0777871 0.0932211 0)
(-0.0710558 0.0908638 0)
(-0.0625626 0.0888449 0)
(-0.0525767 0.0871294 0)
(-0.0413329 0.0856703 0)
(-0.0290377 0.0844172 0)
(-0.0158731 0.0833205 0)
(-0.00199989 0.082334 0)
(0.0124392 0.0814169 0)
(0.0273179 0.0805342 0)
(0.042524 0.0796563 0)
(0.0579586 0.0787588 0)
(0.0735333 0.0778221 0)
(0.08917 0.0768309 0)
(0.104799 0.0757735 0)
(0.120358 0.0746412 0)
(0.135793 0.0734285 0)
(0.151053 0.072132 0)
(0.166095 0.0707504 0)
(0.180878 0.0692844 0)
(0.19537 0.0677359 0)
(0.209538 0.0661086 0)
(0.223355 0.0644069 0)
(0.236798 0.0626365 0)
(0.249846 0.0608035 0)
(0.262483 0.0589149 0)
(0.274693 0.0569777 0)
(0.286464 0.0549993 0)
(0.297789 0.0529874 0)
(0.308659 0.0509492 0)
(0.31907 0.0488919 0)
(0.329019 0.0468227 0)
(0.338506 0.044748 0)
(0.347529 0.042674 0)
(0.356093 0.0406065 0)
(-0.00921547 0.0524212 0)
(-0.0317495 0.103127 0)
(-0.0568432 0.1201 0)
(-0.0747015 0.12146 0)
(-0.0852862 0.116788 0)
(-0.0903421 0.110196 0)
(-0.0910413 0.103382 0)
(-0.0882624 0.097022 0)
(-0.0827048 0.0913582 0)
(-0.0749132 0.0864403 0)
(-0.0653122 0.0822342 0)
(-0.0542367 0.07867 0)
(-0.0419554 0.075665 0)
(-0.0286878 0.0731349 0)
(-0.0146163 0.0709986 0)
(0.000105318 0.0691817 0)
(0.0153452 0.0676178 0)
(0.0309888 0.0662488 0)
(0.0469363 0.0650247 0)
(0.0630994 0.0639032 0)
(0.0794001 0.0628488 0)
(0.0957687 0.0618323 0)
(0.112143 0.0608298 0)
(0.128467 0.0598224 0)
(0.14469 0.058795 0)
(0.160766 0.0577361 0)
(0.176655 0.0566373 0)
(0.19232 0.0554928 0)
(0.207726 0.054299 0)
(0.222843 0.0530542 0)
(0.237644 0.0517581 0)
(0.252106 0.0504122 0)
(0.266205 0.0490188 0)
(0.279924 0.0475813 0)
(0.293246 0.0461035 0)
(0.306157 0.0445902 0)
(0.318646 0.0430462 0)
(0.330703 0.0414768 0)
(0.342321 0.0398873 0)
(0.353494 0.0382829 0)
(0.364218 0.0366689 0)
(0.374492 0.0350503 0)
(0.384313 0.0334318 0)
(0.393684 0.0318181 0)
(-0.0159831 0.0767547 0)
(-0.0469853 0.132404 0)
(-0.0732748 0.141335 0)
(-0.0858943 0.133948 0)
(-0.0887719 0.12228 0)
(-0.0855668 0.110394 0)
(-0.0781938 0.0995932 0)
(-0.0679147 0.090218 0)
(-0.0556149 0.0822516 0)
(-0.0418971 0.0755552 0)
(-0.0271695 0.0699589 0)
(-0.0117122 0.0652973 0)
(0.00427875 0.0614206 0)
(0.020662 0.0581965 0)
(0.037332 0.0555097 0)
(0.0542082 0.0532613 0)
(0.0712258 0.0513663 0)
(0.0883304 0.0497526 0)
(0.105475 0.0483594 0)
(0.122618 0.0471358 0)
(0.139721 0.0460391 0)
(0.156749 0.0450342 0)
(0.173668 0.0440923 0)
(0.190446 0.04319 0)
(0.207055 0.0423084 0)
(0.223464 0.0414327 0)
(0.239648 0.0405514 0)
(0.25558 0.0396557 0)
(0.271237 0.0387394 0)
(0.286595 0.0377982 0)
(0.301634 0.0368295 0)
(0.316334 0.0358323 0)
(0.330678 0.0348066 0)
(0.344648 0.0337535 0)
(0.35823 0.0326749 0)
(0.371412 0.0315733 0)
(0.384183 0.0304516 0)
(0.396533 0.029313 0)
(0.408455 0.0281612 0)
(0.419942 0.0269996 0)
(0.430989 0.0258319 0)
(0.441595 0.0246617 0)
(0.451755 0.0234923 0)
(0.461473 0.0223273 0)
(-0.0287213 0.11602 0)
(-0.0686361 0.164156 0)
(-0.0816301 0.154274 0)
(-0.0726867 0.133871 0)
(-0.055072 0.114452 0)
(-0.0339439 0.0979474 0)
(-0.0112941 0.0844047 0)
(0.011761 0.0734421 0)
(0.0345929 0.064586 0)
(0.0568984 0.0574128 0)
(0.0785584 0.0515857 0)
(0.0995512 0.0468405 0)
(0.119904 0.042968 0)
(0.139668 0.0397993 0)
(0.158899 0.0371985 0)
(0.177656 0.0350548 0)
(0.195991 0.0332778 0)
(0.213948 0.0317932 0)
(0.231565 0.03054 0)
(0.248868 0.0294679 0)
(0.26588 0.0285358 0)
(0.282613 0.0277099 0)
(0.299076 0.0269627 0)
(0.315271 0.026272 0)
(0.331197 0.0256197 0)
(0.346848 0.0249916 0)
(0.362217 0.0243765 0)
(0.377295 0.0237657 0)
(0.392069 0.0231525 0)
(0.406529 0.0225323 0)
(0.420661 0.0219018 0)
(0.434453 0.0212589 0)
(0.447892 0.0206027 0)
(0.460967 0.019933 0)
(0.473666 0.0192505 0)
(0.485979 0.0185561 0)
(0.497897 0.0178513 0)
(0.509411 0.0171381 0)
(0.520516 0.0164183 0)
(0.531206 0.0156943 0)
(0.541476 0.014968 0)
(0.551325 0.0142419 0)
(0.560748 0.013518 0)
(0.569749 0.0127984 0)
(-0.0498513 0.200838 0)
(-0.0661475 0.178452 0)
(-0.0110638 0.128405 0)
(0.0466943 0.0994347 0)
(0.0980104 0.0792215 0)
(0.143512 0.0636167 0)
(0.183939 0.0517041 0)
(0.21984 0.0427434 0)
(0.251804 0.0359505 0)
(0.280443 0.0307137 0)
(0.306309 0.0266216 0)
(0.329872 0.0233965 0)
(0.351521 0.0208386 0)
(0.371579 0.0187982 0)
(0.390319 0.0171617 0)
(0.407961 0.0158416 0)
(0.424689 0.0147699 0)
(0.44065 0.0138928 0)
(0.455963 0.0131679 0)
(0.470723 0.0125612 0)
(0.485004 0.0120455 0)
(0.498864 0.0115991 0)
(0.512346 0.0112045 0)
(0.525482 0.0108479 0)
(0.538295 0.0105183 0)
(0.550799 0.0102071 0)
(0.563004 0.00990734 0)
(0.574913 0.00961401 0)
(0.586528 0.00932315 0)
(0.597846 0.00903193 0)
(0.608862 0.00873838 0)
(0.619571 0.00844125 0)
(0.629967 0.00813988 0)
(0.640044 0.00783406 0)
(0.649793 0.00752398 0)
(0.65921 0.0072101 0)
(0.668288 0.00689311 0)
(0.677023 0.00657387 0)
(0.685409 0.00625332 0)
(0.693445 0.0059325 0)
(0.701128 0.00561242 0)
(0.708458 0.00529416 0)
(0.715432 0.00497867 0)
(0.722056 0.00466691 0)
(0.229774 0.140273 0)
(0.278658 0.113471 0)
(0.394278 0.0762905 0)
(0.484243 0.0533461 0)
(0.546219 0.0387152 0)
(0.591745 0.0284611 0)
(0.627313 0.0211224 0)
(0.655844 0.0159133 0)
(0.679085 0.0122144 0)
(0.698352 0.00955929 0)
(0.714627 0.00762934 0)
(0.728625 0.0062121 0)
(0.740862 0.00516241 0)
(0.751726 0.00437858 0)
(0.761511 0.00378844 0)
(0.770443 0.00334041 0)
(0.778694 0.0029972 0)
(0.786397 0.00273158 0)
(0.793656 0.00252342 0)
(0.800548 0.00235776 0)
(0.807132 0.00222337 0)
(0.813454 0.00211181 0)
(0.819546 0.00201669 0)
(0.825434 0.00193321 0)
(0.831134 0.00185773 0)
(0.836658 0.00178753 0)
(0.842014 0.00172059 0)
(0.847205 0.00165543 0)
(0.852233 0.00159099 0)
(0.857099 0.00152657 0)
(0.861802 0.00146168 0)
(0.866339 0.00139608 0)
(0.870708 0.00132967 0)
(0.874906 0.00126247 0)
(0.878932 0.00119459 0)
(0.882783 0.00112623 0)
(0.886458 0.00105761 0)
(0.889955 0.000988999 0)
(0.893274 0.000920669 0)
(0.896415 0.000852911 0)
(0.899379 0.000785988 0)
(0.902166 0.000720179 0)
(0.904779 0.000655722 0)
(0.90722 0.000592795 0)
)
;

boundaryField
{
    movingWall
    {
        type            fixedValue;
        value           uniform (1 0 0);
    }
    fixedWalls
    {
        type            noSlip;
    }
    frontAndBack
    {
        type            empty;
    }
    procBoundary2to3
    {
        type            processor;
        value           nonuniform List<vector> 
45
(
(0.129006 0.28259 0)
(0.131663 0.274374 0)
(0.134045 0.265547 0)
(0.136175 0.256237 0)
(0.138078 0.24656 0)
(0.139779 0.236621 0)
(0.141303 0.226509 0)
(0.142675 0.216298 0)
(0.143916 0.206047 0)
(0.145043 0.195802 0)
(0.146071 0.185595 0)
(0.14701 0.175447 0)
(0.147866 0.165371 0)
(0.148642 0.155372 0)
(0.149338 0.14545 0)
(0.14995 0.1356 0)
(0.150474 0.125817 0)