/*--------------------------------*- C++ -*----------------------------------*\
  =========                 |
  \\      /  F ield         | OpenFOAM: The Open Source CFD Toolbox
   \\    /   O peration     | Website:  https://openfoam.org
    \\  /    A nd           | Version:  9
     \\/     M anipulation  |
\*---------------------------------------------------------------------------*/
FoamFile
{
    format      ascii;
    class       volScalarField;
    location    "2.5";
    object      p;
}
// * * * * * * * * * * * * * * * * * * * * * * * * * * * * * * * * * * * * * //

dimensions      [0 2 -2 0 0 0 0];

internalField   nonuniform List<scalar> 
1250
(
-0.0594991
-0.0619445
-0.0643754
-0.0667789
-0.0691436
-0.0714595
-0.0737178
-0.075911
-0.0780325
-0.0800766
-0.0820384
-0.0839135
-0.0856978
-0.0873877
-0.0889797
-0.0904707
-0.0918575
-0.0931372
-0.0286182
-0.0283923
-0.0282341
-0.0281219
-0.0280601
-0.0280696
-0.0281691
-0.0283746
-0.0286999
-0.0291554
-0.0297493
-0.0304871
-0.0313727
-0.0324083
-0.033595
-0.0349324
-0.0364185
-0.0380491
-0.0398183
-0.0417173
-0.0437355
-0.0458599
-0.048076
-0.0503678
-0.0527187
-0.0551119
-0.0575309
-0.0599595
-0.062383
-0.0647874
-0.0671604
-0.0694909
-0.0717691
-0.0739865
-0.0761354
-0.0782095
-0.0802029
-0.0821105
-0.0839278
-0.0856505
-0.0872749
-0.0887974
-0.0902146
-0.0915234
-0.0283388
-0.0281232
-0.0279677
-0.0278503
-0.027774
-0.0277571
-0.0278166
-0.0279681
-0.0282252
-0.0285999
-0.0291019
-0.0297387
-0.0305163
-0.0314391
-0.0325101
-0.0337308
-0.0351011
-0.0366189
-0.0382796
-0.0400765
-0.0420004
-0.0440396
-0.0461806
-0.0484083
-0.0507065
-0.0530584
-0.0554471
-0.0578563
-0.0602703
-0.0626743
-0.065055
-0.0674002
-0.069699
-0.0719416
-0.0741198
-0.0762258
-0.0782533
-0.0801962
-0.0820493
-0.083808
-0.085468
-0.0870251
-0.0884758
-0.0898167
-0.0280468
-0.0278426
-0.027691
-0.0275702
-0.0274812
-0.0274394
-0.0274601
-0.0275574
-0.0277453
-0.0280366
-0.0284427
-0.0289732
-0.0296365
-0.0304394
-0.0313873
-0.0324837
-0.0337307
-0.035128
-0.0366731
-0.038361
-0.0401839
-0.0421317
-0.0441919
-0.0463503
-0.0485909
-0.0508973
-0.0532524
-0.0556393
-0.0580416
-0.0604437
-0.0628313
-0.0651909
-0.0675107
-0.0697798
-0.0719886
-0.0741286
-0.0761924
-0.0781733
-0.0800652
-0.0818629
-0.0835614
-0.0851564
-0.0866438
-0.0880198
-0.0277455
-0.0275539
-0.0274076
-0.0272849
-0.0271848
-0.0271199
-0.0271028
-0.0271464
-0.0272642
-0.0274697
-0.027776
-0.0281952
-0.028738
-0.0294141
-0.0302312
-0.0311957
-0.0323117
-0.0335812
-0.0350036
-0.0365756
-0.0382912
-0.0401416
-0.0421154
-0.0441992
-0.0463776
-0.0486344
-0.0509522
-0.0533138
-0.0557021
-0.0581007
-0.0604941
-0.0628678
-0.0652088
-0.0675051
-0.0697459
-0.0719217
-0.0740241
-0.0760454
-0.0779788
-0.0798184
-0.0815587
-0.0831948
-0.0847221
-0.0861365
-0.027438
-0.02726
-0.0271202
-0.0269973
-0.0268879
-0.0268014
-0.0267478
-0.0267381
-0.0267851
-0.0269028
-0.0271059
-0.0274088
-0.0278251
-0.0283675
-0.0290466
-0.0298716
-0.0308491
-0.0319834
-0.0332761
-0.0347257
-0.0363277
-0.0380749
-0.0399569
-0.0419612
-0.044073
-0.0462761
-0.0485531
-0.0508865
-0.0532584
-0.0556517
-0.0580497
-0.060437
-0.0627992
-0.0651233
-0.0673972
-0.0696104
-0.0717533
-0.0738174
-0.075795
-0.0776794
-0.0794644
-0.0811446
-0.082715
-0.084171
-0.027127
-0.0269636
-0.0268317
-0.02671
-0.026593
-0.0264866
-0.0263976
-0.026335
-0.0263105
-0.0263385
-0.0264351
-0.0266171
-0.0269012
-0.0273032
-0.0278373
-0.0285155
-0.0293472
-0.0303394
-0.0314957
-0.0328165
-0.0342992
-0.0359378
-0.0377231
-0.0396434
-0.0416843
-0.0438299
-0.0460629
-0.0483652
-0.0507184
-0.0531045
-0.0555059
-0.0579061
-0.0602894
-0.0626416
-0.0649495
-0.0672014
-0.0693866
-0.0714956
-0.0735198
-0.0754516
-0.0772843
-0.0790116
-0.0806281
-0.0821288
-0.0268145
-0.026667
-0.0265443
-0.0264254
-0.0263023
-0.0261773
-0.026054
-0.0259387
-0.025842
-0.0257784
-0.0257653
-0.0258221
-0.0259686
-0.0262241
-0.0266063
-0.0271308
-0.02781
-0.0286534
-0.0296671
-0.0308536
-0.0322118
-0.0337369
-0.0354211
-0.0372533
-0.0392197
-0.0413046
-0.0434906
-0.0457592
-0.0480915
-0.0504687
-0.0528722
-0.0552844
-0.0576885
-0.060069
-0.0624116
-0.0647033
-0.0669323
-0.069088
-0.0711609
-0.0731426
-0.0750255
-0.0768027
-0.0784683
-0.0800167
-0.0265024
-0.0263721
-0.0262601
-0.0261454
-0.0260177
-0.0258752
-0.025718
-0.02555
-0.0253802
-0.025223
-0.0250972
-0.0250246
-0.0250284
-0.0251316
-0.0253559
-0.0257204
-0.0262408
-0.0269297
-0.0277954
-0.0288426
-0.0300717
-0.0314794
-0.0330588
-0.0347996
-0.0366885
-0.03871
-0.0408464
-0.0430792
-0.0453887
-0.0477554
-0.0501598
-0.0525832
-0.0550076
-0.0574164
-0.059794
-0.0621263
-0.0644002
-0.0666042
-0.0687278
-0.0707615
-0.072697
-0.0745267
-0.0762441
-0.077843
-0.026192
-0.0260808
-0.025981
-0.025872
-0.0257407
-0.0255814
-0.0253905
-0.0251691
-0.0249248
-0.0246718
-0.0244302
-0.0242243
-0.0240807
-0.0240266
-0.0240875
-0.0242864
-0.0246428
-0.0251722
-0.0258854
-0.0267892
-0.0278857
-0.0291729
-0.0306449
-0.0322918
-0.034101
-0.036057
-0.0381421
-0.0403373
-0.0426225
-0.0449774
-0.0473817
-0.0498154
-0.0522597
-0.0546967
-0.0571095
-0.0594829
-0.0618027
-0.0640562
-0.0662318
-0.0683194
-0.0703095
-0.072194
-0.0739655
-0.0756175
-0.0258843
-0.0257946
-0.0257088
-0.0256067
-0.0254726
-0.0252966
-0.0250714
-0.0247954
-0.0244746
-0.0241231
-0.0237624
-0.0234195
-0.0231244
-0.0229085
-0.0228014
-0.0228304
-0.0230186
-0.0233846
-0.0239421
-0.0246997
-0.0256613
-0.0268261
-0.0281889
-0.0297406
-0.0314689
-0.0333582
-0.0353909
-0.0375475
-0.0398074
-0.0421496
-0.0445528
-0.0469963
-0.04946
-0.0519248
-0.0543729
-0.0567877
-0.0591539
-0.0614577
-0.0636867
-0.0658294
-0.0678758
-0.069817
-0.0716447
-0.073352
-0.0255802
-0.025515
-0.0254453
-0.0253513
-0.0252148
-0.0250215
-0.0247604
-0.0244275
-0.0240274
-0.0235743
-0.0230911
-0.0226075
-0.0221574
-0.0217759
-0.0214975
-0.0213534
-0.0213706
-0.0215709
-0.0219707
-0.0225807
-0.0234064
-0.0244481
-0.0257014
-0.0271578
-0.0288049
-0.0306275
-0.0326075
-0.0347251
-0.0369594
-0.0392884
-0.0416901
-0.0441428
-0.0466255
-0.0491179
-0.0516011
-0.0540573
-0.0564703
-0.058825
-0.061108
-0.0633069
-0.0654109
-0.0674101
-0.0692958
-0.0710602
-0.02528
-0.0252438
-0.0251927
-0.0251079
-0.0249686
-0.0247563
-0.0244568
-0.0240636
-0.0235804
-0.0230217
-0.0224123
-0.0217846
-0.0211762
-0.0206267
-0.0201748
-0.0198559
-0.0197008
-0.0197348
-0.0199767
-0.0204394
-0.0211298
-0.0220493
-0.0231942
-0.0245563
-0.0261235
-0.0278802
-0.0298083
-0.0318875
-0.0340964
-0.0364122
-0.0388124
-0.0412742
-0.0437755
-0.0462953
-0.0488133
-0.0513109
-0.0537705
-0.0561763
-0.0585136
-0.0607694
-0.0629317
-0.06499
-0.0669349
-0.0687578
-0.0249843
-0.0249838
-0.0249541
-0.024879
-0.0247357
-0.0245018
-0.0241596
-0.0237013
-0.02313
-0.0224611
-0.0217214
-0.0209463
-0.0201773
-0.0194582
-0.0188319
-0.0183383
-0.0180118
-0.0178806
-0.0179664
-0.0182839
-0.0188415
-0.0196414
-0.0206805
-0.0219509
-0.0234403
-0.0251333
-0.0270112
-0.0290535
-0.031238
-0.0335414
-0.0359404
-0.0384113
-0.0409312
-0.043478
-0.0460306
-0.0485692
-0.0510753
-0.0535319
-0.0559237
-0.0582364
-0.0604574
-0.0625753
-0.06458
-0.0664625
-0.0246961
-0.0247388
-0.0247334
-0.0246681
-0.0245185
-0.0242588
-0.0238682
-0.0233384
-0.0226728
-0.021888
-0.0210134
-0.0200878
-0.0191565
-0.0182674
-0.0174679
-0.0168015
-0.0163062
-0.0160134
-0.015947
-0.0161235
-0.0165525
-0.0172372
-0.0181748
-0.0193574
-0.0207729
-0.0224054
-0.024236
-0.0262436
-0.0284055
-0.0306978
-0.0330964
-0.0355769
-0.0381155
-0.0406892
-0.043276
-0.0458551
-0.0484071
-0.0509142
-0.0533599
-0.0557293
-0.0580088
-0.0601864
-0.0622512
-0.0641935
-0.0244181
-0.0245152
-0.0245381
-0.0244816
-0.0243216
-0.024029
-0.0235826
-0.0229732
-0.0222055
-0.0212981
-0.0202838
-0.0192048
-0.0181103
-0.0170524
-0.0160822
-0.015247
-0.0145881
-0.0141393
-0.0139268
-0.0139687
-0.0142756
-0.0148513
-0.0156933
-0.0167938
-0.0181403
-0.0197168
-0.0215039
-0.02348
-0.0256218
-0.0279049
-0.0303044
-0.0327952
-0.0353528
-0.0379533
-0.0405739
-0.0431929
-0.0457902
-0.0483469
-0.0508458
-0.0532711
-0.0556086
-0.0578454
-0.05997
-0.061972
-0.0241577
-0.0243241
-0.0243792
-0.0243286
-0.0241516
-0.0238174
-0.0233046
-0.0226053
-0.0217264
-0.0206883
-0.0195294
-0.0182944
-0.0170367
-0.0158124
-0.014676
-0.0136782
-0.0128628
-0.0122662
-0.0119162
-0.0118321
-0.0120253
-0.0125001
-0.013254
-0.0142794
-0.0155633
-0.0170893
-0.0188377
-0.0207863
-0.0229112
-0.0251875
-0.0275896
-0.0300917
-0.0326688
-0.0352961
-0.0379501
-0.0406084
-0.0432499
-0.0458552
-0.0484061
-0.0508862
-0.0532805
-0.0555754
-0.0577589
-0.0598201
-0.0239286
-0.0241839
-0.0242744
-0.0242242
-0.0240202
-0.0236319
-0.0230393
-0.0222371
-0.0212352
-0.0200593
-0.0187496
-0.0173559
-0.0159359
-0.0145491
-0.0132529
-0.0121007
-0.0111385
-0.0104044
-0.00992754
-0.00972808
-0.00981804
-0.0102018
-0.010877
-0.0118355
-0.0130643
-0.0145464
-0.0162617
-0.0181874
-0.0202992
-0.0225715
-0.0249782
-0.027493
-0.0300901
-0.0327442
-0.0354311
-0.0381278
-0.0408124
-0.0434648
-0.0460662
-0.0485995
-0.051049
-0.0534006
-0.0556417
-0.0577607
-0.0237556
-0.024125
-0.0242524
-0.0241923
-0.0239462
-0.0234868
-0.0227973
-0.0218762
-0.020738
-0.0194135
-0.017947
-0.0163936
-0.0148122
-0.0132682
-0.0118202
-0.0105236
-0.00942624
-0.00856713
-0.00797613
-0.00767396
-0.00767277
-0.0079769
-0.00858381
-0.00948505
-0.0106672
-0.0121128
-0.0138012
-0.0157093
-0.017812
-0.0200835
-0.022497
-0.0250259
-0.0276437
-0.0303246
-0.0330438
-0.0357777
-0.0385039
-0.0412017
-0.0438517
-0.0464361
-0.0489388
-0.051345
-0.0536416
-0.0558166
-0.0236824
-0.0241971
-0.0243588
-0.0242709
-0.0239605
-0.0234065
-0.0225974
-0.0215374
-0.0202468
-0.0187616
-0.0171312
-0.0154148
-0.0136762
-0.0119804
-0.0103897
-0.00896053
-0.00774118
-0.00677115
-0.00608041
-0.00568967
-0.00561086
-0.00584803
-0.00639824
-0.00725261
-0.00839728
-0.00981431
-0.0114825
-0.0133784
-0.0154765
-0.0177505
-0.0201731
-0.0227174
-0.0253564
-0.0280639
-0.0308146
-0.0335844
-0.0363504
-0.0390915
-0.0417876
-0.0444207
-0.0469738
-0.0494319
-0.0517814
-0.0540099
-0.0237841
-0.024481
-0.0246653
-0.0245192
-0.0241109
-0.0234298
-0.0224714
-0.0212471
-0.0197836
-0.0181232
-0.0163203
-0.0144381
-0.0125435
-0.0107031
-0.00897981
-0.00743046
-0.0061034
-0.0050376
-0.00426253
-0.00379829
-0.00365624
-0.00383981
-0.00434551
-0.0051639
-0.0062806
-0.0076772
-0.0093321
-0.0112213
-0.0133191
-0.0155987
-0.0180327
-0.0205935
-0.023254
-0.0259875
-0.0287685
-0.0315725
-0.0343761
-0.0371578
-0.0398971
-0.0425755
-0.0451759
-0.0476825
-0.0500814
-0.0523599
-0.0241907
-0.0251077
-0.0252838
-0.0250278
-0.0244711
-0.023617
-0.0224693
-0.0210472
-0.0193847
-0.0175303
-0.0155435
-0.0134908
-0.0114412
-0.00946197
-0.00761607
-0.00595921
-0.00453872
-0.00339247
-0.0025486
-0.0020261
-0.00183527
-0.00197867
-0.00245202
-0.00324522
-0.00434332
-0.00572744
-0.00737558
-0.00926339
-0.0113649
-0.0136529
-0.0160998
-0.0186778
-0.0213595
-0.0241181
-0.0269276
-0.0297633
-0.0326016
-0.0354205
-0.0381993
-0.0409191
-0.0435623
-0.0461131
-0.0485571
-0.0508812
-0.0251279
-0.0262892
-0.0263853
-0.0259303
-0.0251478
-0.0240552
-0.0226635
-0.0209992
-0.0191035
-0.0170306
-0.0148444
-0.0126135
-0.0104077
-0.00829395
-0.0063336
-0.00458055
-0.00307977
-0.00186723
-0.000969058
-0.000402482
-0.000176373
-0.00029206
-0.000744284
-0.00152217
-0.00261014
-0.00398883
-0.00563586
-0.0075266
-0.00963477
-0.0119331
-0.0143937
-0.0169887
-0.0196906
-0.0224722
-0.0253075
-0.0281716
-0.0310406
-0.0338923
-0.0367058
-0.0394619
-0.0421428
-0.0447323
-0.0472157
-0.0495799
-0.0269961
-0.0283681
-0.0282209
-0.0274094
-0.0262806
-0.0248553
-0.0231443
-0.0211793
-0.0190063
-0.0166838
-0.0142778
-0.0118576
-0.00949172
-0.00724501
-0.005176
-0.00333541
-0.00176509
-0.000497872
0.000442668
0.00104158
0.00129187
0.00119373
0.000753586
-1.6767e-05
-0.00110109
-0.00247951
-0.0041293
-0.00602556
-0.00814187
-0.0104508
-0.0129244
-0.0155348
-0.0182542
-0.0210556
-0.0239127
-0.0268005
-0.0296951
-0.0325741
-0.0354164
-0.0382025
-0.0409146
-0.0435363
-0.0460526
-0.0484501
-0.03054
-0.0318926
-0.0311174
-0.0296665
-0.0280032
-0.0261085
-0.0239767
-0.0216365
-0.0191339
-0.0165268
-0.0138797
-0.0112591
-0.00872959
-0.00635168
-0.00417931
-0.00225868
-0.00062754
0.000685072
0.00165879
0.00228134
0.00254789
0.00246034
0.00202644
0.00125894
0.000174776
-0.00120569
-0.00285942
-0.00476132
-0.00688486
-0.00920256
-0.0116865
-0.0143087
-0.0170415
-0.0198577
-0.0227313
-0.025637
-0.028551
-0.0314506
-0.0343149
-0.0371241
-0.0398604
-0.042507
-0.0450491
-0.0474729
-0.0372973
-0.0377039
-0.0353749
-0.03279
-0.0303067
-0.0277514
-0.0250692
-0.022271
-0.0193912
-0.0164774
-0.013584
-0.0107682
-0.00808635
-0.00559138
-0.00333078
-0.00134488
0.000333489
0.00167946
0.00267605
0.00331371
0.00358975
0.00350771
0.00307652
0.00230977
0.00122497
-0.000157174
-0.00181343
-0.00371862
-0.00584621
-0.0081688
-0.0106585
-0.0132875
-0.0160281
-0.0188534
-0.0217371
-0.0246543
-0.0275809
-0.0304945
-0.0333739
-0.0361994
-0.0389529
-0.0416178
-0.044179
-0.0466227
-0.050782
-0.0468335
-0.041004
-0.0364864
-0.0327417
-0.0292786
-0.0259264
-0.0226322
-0.0193879
-0.0162082
-0.0131222
-0.0101683
-0.00738924
-0.00482742
-0.00252227
-0.00050808
0.00118707
0.00254196
0.00354231
0.0041806
0.0044556
0.00437178
0.0039387
0.00317031
0.00208425
0.000701218
-0.000955648
-0.00286135
-0.00498954
-0.00731301
-0.00980413
-0.0124352
-0.0151788
-0.018008
-0.0208969
-0.0238203
-0.0267545
-0.0296769
-0.0325664
-0.0354032
-0.0381692
-0.0408476
-0.0434234
-0.0458826
-0.0785765
-0.0586467
-0.0459301
-0.03836
-0.0329804
-0.028649
-0.0248649
-0.0213782
-0.0180633
-0.0148751
-0.0118147
-0.00890505
-0.00617861
-0.00367144
-0.00141914
0.000546179
0.00219763
0.00351452
0.00448265
0.00509425
0.00534763
0.0052467
0.00480035
0.00402186
0.0029282
0.00153945
-0.00012183
-0.00203117
-0.00416269
-0.00648958
-0.00898452
-0.0116201
-0.0143691
-0.0172049
-0.0201014
-0.0230338
-0.0259783
-0.0289122
-0.0318145
-0.0346654
-0.0374465
-0.0401412
-0.0427342
-0.0452114
-0.165699
-0.0647768
-0.0348684
-0.0278634
-0.02401
-0.0207208
-0.0180191
-0.01562
-0.0132437
-0.0108091
-0.00834687
-0.0059148
-0.00357046
-0.00136856
0.000640235
0.00241153
0.00390861
0.00510289
0.00597381
0.00650835
0.00670056
0.00655079
0.00606504
0.00525421
0.00413333
0.00272089
0.00103819
-0.000891296
-0.00304248
-0.00538914
-0.00790443
-0.0105612
-0.0133326
-0.0161919
-0.0191133
-0.0220718
-0.0250436
-0.0280061
-0.0309379
-0.0338192
-0.0366317
-0.0393582
-0.0419835
-0.0444934
)
;

boundaryField
{
    movingWall
    {
        type            zeroGradient;
    }
    fixedWalls
    {
        type            zeroGradient;
    }
    frontAndBack
    {
        type            empty;
    }
    procBoundary2to3
    {
        type            processor;
        value           nonuniform List<scalar> 
45
(
-0.0613482
-0.0638077
-0.0662442
-0.0686457
-0.0710018
-0.0733033
-0.0755426
-0.077713
-0.0798089
-0.0818253
-0.083758
-0.0856032
-0.0873574
-0.0890174
-0.0905801
-0.0920426
-0.093402
-0.0946557
-0.0288813
-0.0286463
-0.0284869
-0.0283813
-0.0283358
-0.0283731
-0.0285134
-0.028773
-0.0291649
-0.0296985
-0.0303801
-0.0312135
-0.0322006
-0.0333421
-0.0346371
-0.0360836
-0.0376779
-0.0394141
-0.0412845
-0.0432788
-0.0453847
-0.0475881
-0.0498735
-0.0522241
-0.0546231
-0.0570535
-0.0570535
)
;
    }
    procBoundary2to5
    {
        type            processor;
        value           nonuniform List<scalar> 
29
(
-0.094307
-0.0927207
-0.0910443
-0.089281
-0.0874343
-0.0855085
-0.0835093
-0.0814431
-0.0793182
-0.0771442
-0.0749325
-0.0726965
-0.0704515
-0.0682147
-0.0660049
-0.0638427
-0.0617495
-0.0597478
-0.0578597
-0.0561065
-0.0545068
-0.053074
-0.051813
-0.0507169
-0.0497665
-0.0489367
-0.0482129
-0.0475605
-0.0468752
)
;
    }
}


// ************************************************************************* //
