/*--------------------------------*- C++ -*----------------------------------*\
  =========                 |
  \\      /  F ield         | OpenFOAM: The Open Source CFD Toolbox
   \\    /   O peration     | Website:  https://openfoam.org
    \\  /    A nd           | Version:  9
     \\/     M anipulation  |
\*---------------------------------------------------------------------------*/
FoamFile
{
    format      ascii;
    class       surfaceScalarField;
    location    "2.5";
    object      phi;
}
// * * * * * * * * * * * * * * * * * * * * * * * * * * * * * * * * * * * * * //

dimensions      [0 3 -1 0 0 0 0];

internalField   nonuniform List<scalar> 
2427
(
1.43239e-06
2.77733e-06
1.45515e-06
2.68472e-06
1.47555e-06
2.58766e-06
1.49381e-06
2.48732e-06
1.5102e-06
2.38472e-06
1.52496e-06
2.28074e-06
1.53828e-06
2.17612e-06
1.55037e-06
2.07146e-06
1.56137e-06
1.96722e-06
1.5714e-06
1.86375e-06
1.58053e-06
1.76128e-06
1.58883e-06
1.65997e-06
1.5963e-06
1.5599e-06
1.60295e-06
1.4611e-06
1.60875e-06
1.36355e-06
1.61365e-06
1.26721e-06
1.61759e-06
1.172e-06
1.07785e-06
9.70606e-09
1.05923e-07
3.72353e-08
3.45206e-07
8.07423e-08
6.06656e-07
1.37889e-07
8.83001e-07
2.05842e-07
1.16558e-06
2.81463e-07
1.44528e-06
3.61615e-07
1.71362e-06
4.43484e-07
1.96362e-06
5.24825e-07
2.19033e-06
6.04087e-07
2.391e-06
6.80386e-07
2.56478e-06
7.5339e-07
2.71229e-06
8.23133e-07
2.83501e-06
8.89839e-07
2.93481e-06
9.53766e-07
3.01353e-06
1.01512e-06
3.07279e-06
1.07398e-06
3.11395e-06
1.13034e-06
3.13808e-06
1.1841e-06
3.14612e-06
1.23509e-06
3.13892e-06
1.28315e-06
3.11738e-06
1.32812e-06
3.08247e-06
1.36991e-06
3.03525e-06
1.40847e-06
2.9769e-06
1.44383e-06
2.90871e-06
1.47607e-06
2.83199e-06
1.50533e-06
2.74806e-06
1.53181e-06
2.65824e-06
1.55573e-06
2.56375e-06
1.57731e-06
2.46574e-06
1.5968e-06
2.36523e-06
1.61443e-06
2.26311e-06
1.63042e-06
2.16014e-06
1.64495e-06
2.05693e-06
1.65819e-06
1.95398e-06
1.67026e-06
1.85167e-06
1.68127e-06
1.75027e-06
1.69127e-06
1.64997e-06
1.7003e-06
1.55087e-06
1.70837e-06
1.45303e-06
1.71546e-06
1.35646e-06
1.72154e-06
1.26112e-06
1.72657e-06
1.16697e-06
1.07394e-06
9.14297e-09
9.67803e-08
3.53528e-08
3.18996e-07
7.71701e-08
5.64839e-07
1.32655e-07
8.27516e-07
1.99348e-07
1.09888e-06
2.7441e-07
1.37022e-06
3.5489e-07
1.63314e-06
4.38023e-07
1.88049e-06
5.215e-07
2.10686e-06
6.03612e-07
2.30888e-06
6.83288e-07
2.4851e-06
7.60008e-07
2.63557e-06
8.33659e-07
2.76136e-06
9.0436e-07
2.86411e-06
9.72323e-07
2.94557e-06
1.03773e-06
3.00738e-06
1.10069e-06
3.05099e-06
1.1612e-06
3.07757e-06
1.21917e-06
3.08815e-06
1.27445e-06
3.08364e-06
1.32687e-06
3.06497e-06
1.37625e-06
3.03308e-06
1.42248e-06
2.98902e-06
1.46547e-06
2.93391e-06
1.50521e-06
2.86897e-06
1.54175e-06
2.79545e-06
1.57519e-06
2.71462e-06
1.60569e-06
2.62774e-06
1.63345e-06
2.536e-06
1.65867e-06
2.44052e-06
1.68158e-06
2.34232e-06
1.7024e-06
2.24229e-06
1.72135e-06
2.14119e-06
1.73862e-06
2.03966e-06
1.75438e-06
1.93823e-06
1.76876e-06
1.83729e-06
1.78187e-06
1.73716e-06
1.79379e-06
1.63805e-06
1.80457e-06
1.54009e-06
1.81423e-06
1.44337e-06
1.82278e-06
1.34791e-06
1.83018e-06
1.25372e-06
1.83641e-06
1.16074e-06
1.06893e-06
8.54938e-09
8.82309e-08
3.33142e-08
2.94231e-07
7.31956e-08
5.24958e-07
1.26639e-07
7.74073e-07
1.91563e-07
1.03396e-06
2.65458e-07
1.29632e-06
3.456e-07
1.553e-06
4.29333e-07
1.79675e-06
5.14328e-07
2.02186e-06
5.98764e-07
2.22445e-06
6.81403e-07
2.40246e-06
7.61542e-07
2.55543e-06
8.38907e-07
2.684e-06
9.13503e-07
2.78951e-06
9.85465e-07
2.8736e-06
1.05495e-06
2.9379e-06
1.12205e-06
2.98389e-06
1.18677e-06
3.01284e-06
1.24906e-06
3.02587e-06
1.30874e-06
3.02395e-06
1.36566e-06
3.00805e-06
1.41963e-06
2.97911e-06
1.47049e-06
2.93816e-06
1.51814e-06
2.88627e-06
1.56251e-06
2.8246e-06
1.60362e-06
2.75434e-06
1.64154e-06
2.6767e-06
1.67637e-06
2.5929e-06
1.70829e-06
2.50408e-06
1.73748e-06
2.41133e-06
1.76414e-06
2.31566e-06
1.78849e-06
2.21794e-06
1.81073e-06
2.11895e-06
1.83105e-06
2.01934e-06
1.84962e-06
1.91966e-06
1.86659e-06
1.82033e-06
1.88207e-06
1.72168e-06
1.89615e-06
1.62396e-06
1.9089e-06
1.52734e-06
1.92036e-06
1.43191e-06
1.93054e-06
1.33774e-06
1.93943e-06
1.24483e-06
1.94701e-06
1.15316e-06
1.0627e-06
7.9287e-09
8.03022e-08
3.11313e-08
2.71028e-07
6.88417e-08
4.87247e-07
1.19874e-07
7.2304e-07
1.8253e-07
9.71304e-07
2.54645e-07
1.22421e-06
3.33766e-07
1.47388e-06
4.17394e-07
1.71312e-06
5.03238e-07
1.93602e-06
5.89409e-07
2.13828e-06
6.74528e-07
2.31734e-06
7.57725e-07
2.47223e-06
8.38561e-07
2.60316e-06
9.16906e-07
2.71117e-06
9.92804e-07
2.79771e-06
1.06635e-06
2.86435e-06
1.13764e-06
2.91261e-06
1.20665e-06
2.94382e-06
1.27334e-06
2.95918e-06
1.33756e-06
2.95974e-06
1.39912e-06
2.94649e-06
1.45783e-06
2.9204e-06
1.51352e-06
2.88247e-06
1.56603e-06
2.83376e-06
1.61528e-06
2.77535e-06
1.66123e-06
2.70839e-06
1.70391e-06
2.63403e-06
1.74339e-06
2.55342e-06
1.7798e-06
2.46767e-06
1.81329e-06
2.37784e-06
1.84405e-06
2.2849e-06
1.87226e-06
2.18972e-06
1.89813e-06
2.09308e-06
1.92183e-06
1.99564e-06
1.94353e-06
1.89796e-06
1.96339e-06
1.80047e-06
1.98152e-06
1.70355e-06
1.99804e-06
1.60744e-06
2.01302e-06
1.51236e-06
2.0265e-06
1.41843e-06
2.03852e-06
1.32572e-06
2.04908e-06
1.23426e-06
2.05818e-06
1.14406e-06
1.05509e-06
7.28291e-09
7.30193e-08
2.88104e-08
2.49501e-07
6.41213e-08
4.51936e-07
1.12383e-07
6.74779e-07
1.72274e-07
9.11412e-07
2.41997e-07
1.15448e-06
3.194e-07
1.39647e-06
4.02191e-07
1.63033e-06
4.88169e-07
1.85004e-06
5.75427e-07
2.05102e-06
6.62481e-07
2.23029e-06
7.4831e-07
2.3864e-06
8.32316e-07
2.51916e-06
9.14221e-07
2.62926e-06
9.93958e-07
2.71797e-06
1.07155e-06
2.78676e-06
1.14704e-06
2.83712e-06
1.22042e-06
2.87044e-06
1.29161e-06
2.88799e-06
1.36047e-06
2.89088e-06
1.42681e-06
2.88015e-06
1.49042e-06
2.85678e-06
1.55111e-06
2.82178e-06
1.6087e-06
2.77617e-06
1.66306e-06
2.72099e-06
1.7141e-06
2.65734e-06
1.76182e-06
2.58631e-06
1.80625e-06
2.50899e-06
1.84747e-06
2.42645e-06
1.8856e-06
2.33971e-06
1.92079e-06
2.2497e-06
1.95322e-06
2.15729e-06
1.98306e-06
2.06325e-06
2.01048e-06
1.96822e-06
2.03565e-06
1.87278e-06
2.05873e-06
1.7774e-06
2.07983e-06
1.68244e-06
2.09907e-06
1.5882e-06
2.11654e-06
1.49489e-06
2.1323e-06
1.40267e-06
2.14639e-06
1.31163e-06
2.15884e-06
1.22182e-06
2.16965e-06
1.13326e-06
1.04594e-06
6.61154e-09
6.64077e-08
2.63491e-08
2.29763e-07
5.90314e-08
4.19254e-07
1.04163e-07
6.29647e-07
1.60798e-07
8.54777e-07
2.27514e-07
1.08777e-06
3.02494e-07
1.32149e-06
3.83695e-07
1.54913e-06
4.69056e-07
1.76468e-06
5.56702e-07
1.96337e-06
6.45087e-07
2.14191e-06
7.33063e-07
2.29842e-06
8.19878e-07
2.43234e-06
9.05105e-07
2.54404e-06
9.88547e-07
2.63453e-06
1.07014e-06
2.70517e-06
1.14985e-06
2.7574e-06
1.22765e-06
2.79265e-06
1.30343e-06
2.81221e-06
1.37704e-06
2.81726e-06
1.4483e-06
2.80889e-06
1.51698e-06
2.78811e-06
1.58284e-06
2.75591e-06
1.6457e-06
2.71331e-06
1.70538e-06
2.66131e-06
1.76177e-06
2.60095e-06
1.8148e-06
2.53328e-06
1.86446e-06
2.45933e-06
1.91079e-06
2.38012e-06
1.95388e-06
2.29662e-06
1.99385e-06
2.20974e-06
2.03083e-06
2.12031e-06
2.06499e-06
2.02909e-06
2.09649e-06
1.93673e-06
2.12547e-06
1.8438e-06
2.15209e-06
1.75078e-06
2.17648e-06
1.65805e-06
2.19876e-06
1.56592e-06
2.21901e-06
1.47464e-06
2.23733e-06
1.38436e-06
2.25375e-06
1.2952e-06
2.26831e-06
1.20725e-06
2.28104e-06
1.12053e-06
1.03505e-06
5.91073e-09
6.0497e-08
2.37332e-08
2.11941e-07
5.35453e-08
3.89442e-07
9.51783e-08
5.88014e-07
1.4806e-07
8.01896e-07
2.11154e-07
1.02467e-06
2.83e-07
1.24965e-06
3.61844e-07
1.47029e-06
4.45814e-07
1.68071e-06
5.33112e-07
1.87607e-06
6.22174e-07
2.05285e-06
7.11755e-07
2.20884e-06
8.00965e-07
2.34313e-06
8.89226e-07
2.45578e-06
9.76201e-07
2.54755e-06
1.06171e-06
2.61966e-06
1.14564e-06
2.67347e-06
1.2279e-06
2.71039e-06
1.30836e-06
2.73175e-06
1.38685e-06
2.73877e-06
1.46316e-06
2.73258e-06
1.53704e-06
2.71422e-06
1.60826e-06
2.6847e-06
1.67658e-06
2.64499e-06
1.74179e-06
2.5961e-06
1.80374e-06
2.539e-06
1.86232e-06
2.4747e-06
1.91749e-06
2.40417e-06
1.96922e-06
2.32838e-06
2.01758e-06
2.24826e-06
2.06264e-06
2.16467e-06
2.10452e-06
2.07843e-06
2.14334e-06
1.99027e-06
2.17925e-06
1.90082e-06
2.21239e-06
1.81066e-06
2.24289e-06
1.72027e-06
2.27091e-06
1.63004e-06
2.29654e-06
1.54029e-06
2.31989e-06
1.45129e-06
2.34104e-06
1.3632e-06
2.36006e-06
1.27618e-06
2.377e-06
1.19031e-06
2.39188e-06
1.10565e-06
1.02221e-06
5.1717e-09
5.53253e-08
2.0931e-08
1.96182e-07
4.76037e-08
3.62769e-07
8.53457e-08
5.50272e-07
1.33961e-07
7.5328e-07
1.92811e-07
9.65825e-07
2.60812e-07
1.18165e-06
3.36528e-07
1.39457e-06
4.18318e-07
1.59892e-06
5.0451e-07
1.78988e-06
5.9356e-07
1.9638e-06
6.84163e-07
2.11824e-06
7.75307e-07
2.25199e-06
8.66268e-07
2.36481e-06
9.56562e-07
2.45726e-06
1.04588e-06
2.53034e-06
1.13401e-06
2.58534e-06
1.22077e-06
2.62363e-06
1.30599e-06
2.64653e-06
1.38947e-06
2.6553e-06
1.47096e-06
2.65109e-06
1.5502e-06
2.63498e-06
1.62693e-06
2.60797e-06
1.70088e-06
2.57105e-06
1.77181e-06
2.52516e-06
1.83954e-06
2.47128e-06
1.9039e-06
2.41033e-06
1.96481e-06
2.34326e-06
2.02222e-06
2.27097e-06
2.07613e-06
2.19435e-06
2.12659e-06
2.11422e-06
2.17367e-06
2.03135e-06
2.21748e-06
1.94646e-06
2.25813e-06
1.86017e-06
2.29576e-06
1.77304e-06
2.33049e-06
1.68554e-06
2.36245e-06
1.59808e-06
2.39176e-06
1.51099e-06
2.41851e-06
1.42453e-06
2.44281e-06
1.33891e-06
2.46471e-06
1.25428e-06
2.48429e-06
1.17074e-06
2.50157e-06
1.08836e-06
1.00718e-06
4.37862e-09
5.09467e-08
1.78869e-08
1.82673e-07
4.11021e-08
3.39554e-07
7.45167e-08
5.16857e-07
1.18324e-07
7.09474e-07
1.72292e-07
9.11856e-07
2.35734e-07
1.11821e-06
3.07557e-07
1.32275e-06
3.86383e-07
1.52009e-06
4.70704e-07
1.70556e-06
5.59039e-07
1.87546e-06
6.50052e-07
2.02723e-06
7.42636e-07
2.1594e-06
8.35927e-07
2.27152e-06
9.29294e-07
2.36389e-06
1.02228e-06
2.43735e-06
1.11456e-06
2.49307e-06
1.20585e-06
2.53234e-06
1.2959e-06
2.55647e-06
1.38447e-06
2.56673e-06
1.47127e-06
2.56429e-06
1.55602e-06
2.55023e-06
1.63841e-06
2.52558e-06
1.71816e-06
2.4913e-06
1.79499e-06
2.44833e-06
1.86868e-06
2.39759e-06
1.93903e-06
2.33998e-06
2.00591e-06
2.27638e-06
2.06923e-06
2.20765e-06
2.12895e-06
2.13463e-06
2.18508e-06
2.05809e-06
2.23765e-06
1.97878e-06
2.28675e-06
1.89736e-06
2.33246e-06
1.81446e-06
2.37489e-06
1.7306e-06
2.41417e-06
1.64626e-06
2.4504e-06
1.56185e-06
2.4837e-06
1.47769e-06
2.51417e-06
1.39406e-06
2.5419e-06
1.31118e-06
2.56698e-06
1.2292e-06
2.58947e-06
1.14825e-06
2.60941e-06
1.06841e-06
9.89731e-07
3.50555e-09
4.74411e-08
1.45115e-08
1.71667e-07
3.38738e-08
3.20192e-07
6.24547e-08
4.88276e-07
1.00861e-07
6.71067e-07
1.49288e-07
8.63429e-07
2.07457e-07
1.06004e-06
2.74636e-07
1.25557e-06
3.49734e-07
1.44499e-06
4.3144e-07
1.62386e-06
5.18364e-07
1.78854e-06
6.09174e-07
1.93642e-06
7.02687e-07
2.06589e-06
7.97917e-07
2.17629e-06
8.94082e-07
2.26773e-06
9.90577e-07
2.34086e-06
1.08693e-06
2.39672e-06
1.18275e-06
2.43651e-06
1.27771e-06
2.46152e-06
1.37147e-06
2.47297e-06
1.46371e-06
2.47205e-06
1.5541e-06
2.45984e-06
1.6423e-06
2.43737e-06
1.728e-06
2.4056e-06
1.8109e-06
2.36544e-06
1.89072e-06
2.31777e-06
1.96723e-06
2.26346e-06
2.04028e-06
2.20334e-06
2.10971e-06
2.13822e-06
2.17546e-06
2.06888e-06
2.2375e-06
1.99606e-06
2.29582e-06
1.92045e-06
2.35047e-06
1.84271e-06
2.40152e-06
1.76341e-06
2.44906e-06
1.68307e-06
2.49317e-06
1.60215e-06
2.53397e-06
1.52105e-06
2.57156e-06
1.4401e-06
2.60604e-06
1.35958e-06
2.63751e-06
1.27971e-06
2.66604e-06
1.20067e-06
2.69171e-06
1.12258e-06
2.71458e-06
1.04554e-06
9.69614e-07
2.51254e-09
4.49286e-08
1.06693e-08
1.6351e-07
2.56687e-08
3.05192e-07
4.88072e-08
4.65138e-07
8.11494e-08
6.38725e-07
1.2334e-07
8.21238e-07
1.75522e-07
1.00786e-06
2.37332e-07
1.19376e-06
3.0798e-07
1.37435e-06
3.86367e-07
1.54547e-06
4.71223e-07
1.70368e-06
5.6124e-07
1.8464e-06
6.55185e-07
1.97195e-06
7.5196e-07
2.07952e-06
8.5064e-07
2.16905e-06
9.50463e-07
2.24104e-06
1.05081e-06
2.29637e-06
1.15116e-06
2.33616e-06
1.25106e-06
2.36161e-06
1.3501e-06
2.37393e-06
1.4479e-06
2.37425e-06
1.54406e-06
2.36368e-06
1.63822e-06
2.34321e-06
1.73001e-06
2.3138e-06
1.81911e-06
2.27634e-06
1.90521e-06
2.23167e-06
1.98805e-06
2.18062e-06
2.06741e-06
2.12397e-06
2.14314e-06
2.06249e-06
2.21511e-06
1.99691e-06
2.28325e-06
1.92792e-06
2.34753e-06
1.85617e-06
2.40797e-06
1.78227e-06
2.4646e-06
1.70678e-06
2.51749e-06
1.63018e-06
2.56671e-06
1.55293e-06
2.61235e-06
1.47541e-06
2.6545e-06
1.39794e-06
2.69327e-06
1.32081e-06
2.72874e-06
1.24424e-06
2.761e-06
1.16841e-06
2.79011e-06
1.09346e-06
2.81616e-06
1.0195e-06
9.46587e-07
1.34364e-09
4.35849e-08
6.16071e-09
1.58693e-07
1.6125e-08
2.95228e-07
3.30712e-08
4.48192e-07
5.85879e-08
6.13208e-07
9.38015e-08
7.86025e-07
1.39284e-07
9.62373e-07
1.95041e-07
1.138e-06
2.60581e-07
1.30881e-06
3.35022e-07
1.47103e-06
4.17221e-07
1.62148e-06
5.05916e-07
1.7577e-06
5.99835e-07
1.87803e-06
6.97786e-07
1.98157e-06
7.98706e-07
2.06813e-06
9.01676e-07
2.13806e-06
1.00592e-06
2.19213e-06
1.11077e-06
2.23131e-06
1.21566e-06
2.25673e-06
1.32006e-06
2.26952e-06
1.42352e-06
2.2708e-06
1.52557e-06
2.26162e-06
1.62581e-06
2.24298e-06
1.72383e-06
2.21579e-06
1.81925e-06
2.18091e-06
1.91176e-06
2.13917e-06
2.00105e-06
2.09133e-06
2.08686e-06
2.03815e-06
2.16901e-06
1.98034e-06
2.24734e-06
1.91858e-06
2.32175e-06
1.85351e-06
2.39216e-06
1.78575e-06
2.45857e-06
1.71586e-06
2.52098e-06
1.64437e-06
2.57943e-06
1.57173e-06
2.63397e-06
1.49839e-06
2.68468e-06
1.4247e-06
2.73164e-06
1.35098e-06
2.77494e-06
1.27751e-06
2.81466e-06
1.20452e-06
2.85088e-06
1.13219e-06
2.88369e-06
1.06066e-06
2.91314e-06
9.90044e-07
9.20421e-07
-1.28403e-10
4.37133e-08
6.75377e-10
1.5789e-07
4.72691e-09
2.91177e-07
1.45507e-08
4.38368e-07
3.23602e-08
5.95399e-07
5.97977e-08
7.58587e-07
9.78778e-08
9.24293e-07
1.46957e-07
1.08892e-06
2.06822e-07
1.24894e-06
2.76794e-07
1.40106e-06
3.5586e-07
1.54242e-06
4.42799e-07
1.67076e-06
5.36315e-07
1.78451e-06
6.35129e-07
1.88275e-06
7.38048e-07
1.96521e-06
8.44001e-07
2.03211e-06
9.52049e-07
2.08408e-06
1.06138e-06
2.12199e-06
1.17127e-06
2.14683e-06
1.2811e-06
2.15969e-06
1.3903e-06
2.1616e-06
1.49836e-06
2.15357e-06
1.60478e-06
2.13656e-06
1.70913e-06
2.11144e-06
1.81099e-06
2.07905e-06
1.91e-06
2.04016e-06
2.00583e-06
1.99551e-06
2.0982e-06
1.94579e-06
2.18687e-06
1.89167e-06
2.27166e-06
1.83379e-06
2.35244e-06
1.77274e-06
2.42911e-06
1.70908e-06
2.50162e-06
1.64335e-06
2.56995e-06
1.57603e-06
2.63412e-06
1.50757e-06
2.69416e-06
1.43835e-06
2.75012e-06
1.36873e-06
2.80208e-06
1.29902e-06
2.85011e-06
1.22949e-06
2.89429e-06
1.16035e-06
2.93469e-06
1.09179e-06
2.97139e-06
1.02396e-06
3.00447e-06
9.56968e-07
8.90908e-07
-1.96188e-09
4.56752e-08
-6.12198e-09
1.6205e-07
-9.18953e-09
2.94244e-07
-7.68229e-09
4.36861e-07
1.36369e-09
5.86353e-07
2.01889e-08
7.39762e-07
5.01874e-08
8.94295e-07
9.20443e-08
1.04707e-06
1.4579e-07
1.1952e-06
2.10921e-07
1.33592e-06
2.86522e-07
1.46682e-06
3.71411e-07
1.58587e-06
4.64265e-07
1.69166e-06
5.63722e-07
1.78329e-06
6.68465e-07
1.86046e-06
7.77276e-07
1.9233e-06
8.89055e-07
1.9723e-06
1.00283e-06
2.00821e-06
1.11775e-06
2.03192e-06
1.23306e-06
2.04438e-06
1.34808e-06
2.04658e-06
1.46221e-06
2.03944e-06
1.57491e-06
2.02386e-06
1.68567e-06
2.00068e-06
1.79404e-06
1.97067e-06
1.89963e-06
1.93457e-06
2.00206e-06
1.89307e-06
2.10104e-06
1.84681e-06
2.19629e-06
1.79642e-06
2.2876e-06
1.74247e-06
2.37481e-06
1.68552e-06
2.4578e-06
1.62609e-06
2.53649e-06
1.56467e-06
2.61084e-06
1.50169e-06
2.68083e-06
1.43758e-06
2.74648e-06
1.3727e-06
2.80783e-06
1.30738e-06
2.86493e-06
1.24192e-06
2.91784e-06
1.17658e-06
2.96663e-06
1.11156e-06
3.01138e-06
1.04704e-06
3.05216e-06
9.83181e-07
3.08903e-06
9.20094e-07
8.57869e-07
-4.40652e-09
5.00817e-08
-1.48507e-08
1.72494e-07
-2.65729e-08
3.05966e-07
-3.48225e-08
4.4511e-07
-3.57187e-08
5.87249e-07
-2.64473e-08
7.3049e-07
-5.17671e-09
8.73024e-07
2.90299e-08
1.01286e-06
7.63698e-08
1.14786e-06
1.36474e-07
1.27582e-06
2.08472e-07
1.39482e-06
2.91198e-07
1.50315e-06
3.83288e-07
1.59957e-06
4.83297e-07
1.68329e-06
5.89787e-07
1.75397e-06
7.01397e-07
1.81169e-06
8.16873e-07
1.85683e-06
9.35088e-07
1.88999e-06
1.05504e-06
1.91196e-06
1.17586e-06
1.92357e-06
1.29674e-06
1.92569e-06
1.41701e-06
1.91917e-06
1.53603e-06
1.90483e-06
1.65326e-06
1.88345e-06
1.76819e-06
1.85574e-06
1.88039e-06
1.82238e-06
1.98945e-06
1.78401e-06
2.09505e-06
1.74122e-06
2.19689e-06
1.69458e-06
2.29473e-06
1.64463e-06
2.38839e-06
1.59187e-06
2.47772e-06
1.53677e-06
2.56261e-06
1.47977e-06
2.643e-06
1.4213e-06
2.71886e-06
1.36172e-06
2.79019e-06
1.30137e-06
2.85699e-06
1.24058e-06
2.91931e-06
1.1796e-06
2.9772e-06
1.11869e-06
3.03072e-06
1.05804e-06
3.07994e-06
9.97826e-07
3.12492e-06
9.38202e-07
3.16573e-06
8.79283e-07
8.21161e-07
-7.71426e-09
5.7796e-08
-2.62537e-08
1.91033e-07
-4.86582e-08
3.28371e-07
-6.84605e-08
4.64913e-07
-8.06846e-08
5.99473e-07
-8.18807e-08
7.31686e-07
-6.98922e-08
8.61035e-07
-4.36002e-08
9.86568e-07
-2.70416e-09
1.10696e-06
5.23852e-08
1.22073e-06
1.20869e-07
1.32633e-06
2.0154e-07
1.42248e-06
2.92965e-07
1.50814e-06
3.93599e-07
1.58265e-06
5.01887e-07
1.64569e-06
6.16329e-07
1.69725e-06
7.35524e-07
1.73763e-06
8.58198e-07
1.76732e-06
9.83211e-07
1.78695e-06
1.10955e-06
1.79723e-06
1.23633e-06
1.79891e-06
1.36275e-06
1.79275e-06
1.48812e-06
1.77946e-06
1.61182e-06
1.75975e-06
1.73331e-06
1.73425e-06
1.8521e-06
1.70358e-06
1.96778e-06
1.66833e-06
2.07997e-06
1.62903e-06
2.18837e-06
1.58619e-06
2.2927e-06
1.54029e-06
2.39276e-06
1.4918e-06
2.48839e-06
1.44114e-06
2.57945e-06
1.38871e-06
2.66586e-06
1.33488e-06
2.74758e-06
1.28e-06
2.82457e-06
1.22438e-06
2.89684e-06
1.16831e-06
2.96441e-06
1.11203e-06
3.02732e-06
1.05577e-06
3.08563e-06
9.99732e-07
3.13938e-06
9.44074e-07
3.18864e-06
8.88937e-07
3.23349e-06
8.34439e-07
7.80671e-07
-1.22745e-08
7.00705e-08
-4.13689e-08
2.20128e-07
-7.70471e-08
3.64049e-07
-1.10547e-07
4.98412e-07
-1.35611e-07
6.24537e-07
-1.48187e-07
7.44263e-07
-1.45896e-07
8.58745e-07
-1.27585e-07
9.68257e-07
-9.30024e-08
1.07238e-06
-4.25501e-08
1.17028e-06
2.28172e-08
1.26097e-06
1.0179e-07
1.3435e-06
1.92879e-07
1.41705e-06
2.94408e-07
1.48112e-06
4.04701e-07
1.53539e-06
5.22124e-07
1.57983e-06
6.45139e-07
1.61462e-06
7.72333e-07
1.64013e-06
9.02437e-07
1.65684e-06
1.03432e-06
1.66535e-06
1.16698e-06
1.66625e-06
1.29954e-06
1.66019e-06
1.43123e-06
1.64777e-06
1.56137e-06
1.6296e-06
1.68937e-06
1.60625e-06
1.81471e-06
1.57825e-06
1.93692e-06
1.54611e-06
2.05563e-06
1.51032e-06
2.17048e-06
1.47133e-06
2.28121e-06
1.42956e-06
2.38759e-06
1.38543e-06
2.48941e-06
1.33931e-06
2.58656e-06
1.29157e-06
2.67891e-06
1.24253e-06
2.76641e-06
1.19251e-06
2.84901e-06
1.14178e-06
2.9267e-06
1.09061e-06
2.9995e-06
1.03923e-06
3.06743e-06
9.87846e-07
3.13053e-06
9.36633e-07
3.18885e-06
8.8575e-07
3.24246e-06
8.35329e-07
3.29141e-06
7.85484e-07
7.36304e-07
-1.8651e-08
8.87214e-08
-6.16085e-08
2.63085e-07
-1.13807e-07
4.16248e-07
-1.63487e-07
5.48092e-07
-2.0297e-07
6.6402e-07
-2.27716e-07
7.69009e-07
-2.35307e-07
8.66336e-07
-2.24729e-07
9.57679e-07
-1.95923e-07
1.04357e-06
-1.49506e-07
1.12386e-06
-8.65845e-08
1.19805e-06
-8.60072e-09
1.26552e-06
8.27059e-08
1.32575e-06
1.85609e-07
1.37822e-06
2.98286e-07
1.42272e-06
4.18968e-07
1.45915e-06
5.45992e-07
1.48759e-06
6.77822e-07
1.50829e-06
8.13073e-07
1.52159e-06
9.50507e-07
1.52791e-06
1.08903e-06
1.52773e-06
1.22768e-06
1.52154e-06
1.36562e-06
1.50983e-06
1.50211e-06
1.49311e-06
1.63651e-06
1.47185e-06
1.76827e-06
1.44649e-06
1.89689e-06
1.41749e-06
2.02197e-06
1.38524e-06
2.14315e-06
1.35015e-06
2.26014e-06
1.31258e-06
2.37267e-06
1.2729e-06
2.48056e-06
1.23142e-06
2.58365e-06
1.18848e-06
2.68182e-06
1.14436e-06
2.77499e-06
1.09934e-06
2.86311e-06
1.05366e-06
2.94616e-06
1.00757e-06
3.02413e-06
9.61258e-07
3.09705e-06
9.14925e-07
3.16496e-06
8.6873e-07
3.22789e-06
8.22818e-07
3.2859e-06
7.77312e-07
3.33907e-06
7.32319e-07
6.87923e-07
-2.76712e-08
1.16393e-07
-8.88903e-08
3.24305e-07
-1.61562e-07
4.8892e-07
-2.30141e-07
6.16671e-07
-2.85525e-07
7.19404e-07
-3.2294e-07
8.06424e-07
-3.40218e-07
8.83613e-07
-3.36729e-07
9.5419e-07
-3.12799e-07
1.01964e-06
-2.69388e-07
1.08045e-06
-2.07893e-07
1.13655e-06
-1.30007e-07
1.18764e-06
-3.75777e-08
1.23332e-06
6.74111e-08
1.27323e-06
1.83024e-07
1.3071e-06
3.07377e-07
1.33479e-06
4.38692e-07
1.35628e-06
5.75331e-07
1.37166e-06
7.1581e-07
1.38111e-06
8.58806e-07
1.38492e-06
1.00315e-06
1.38339e-06
1.1478e-06
1.37688e-06
1.29187e-06
1.36577e-06
1.43457e-06
1.35041e-06
1.57522e-06
1.3312e-06
1.71323e-06
1.30848e-06
1.8481e-06
1.28262e-06
1.97939e-06
1.25396e-06
2.10671e-06
1.22282e-06
2.22978e-06
1.18952e-06
2.34832e-06
1.15436e-06
2.46212e-06
1.11762e-06
2.57102e-06
1.07958e-06
2.67489e-06
1.04049e-06
2.77364e-06
1.00058e-06
2.86722e-06
9.60082e-07
2.95559e-06
9.19193e-07
3.03876e-06
8.78097e-07
3.11672e-06
8.36961e-07
3.18952e-06
7.95931e-07
3.2572e-06
7.55139e-07
3.31981e-06
7.14696e-07
3.37743e-06
6.747e-07
6.3523e-07
-4.05758e-08
1.56968e-07
-1.25824e-07
4.09553e-07
-2.23561e-07
5.86656e-07
-3.13713e-07
7.06823e-07
-3.86032e-07
7.91722e-07
-4.36004e-07
8.56397e-07
-4.6213e-07
9.09739e-07
-4.64476e-07
9.56535e-07
-4.43971e-07
9.99137e-07
-4.02071e-07
1.03855e-06
-3.40566e-07
1.07505e-06
-2.61452e-07
1.10852e-06
-1.66832e-07
1.1387e-06
-5.88339e-08
1.16523e-06
6.04432e-08
1.18783e-06
1.89004e-07
1.20623e-06
3.24984e-07
1.2203e-06
4.66663e-07
1.22998e-06
6.12488e-07
1.23529e-06
7.61071e-07
1.23634e-06
9.11184e-07
1.23328e-06
1.06175e-06
1.22632e-06
1.21182e-06
1.21569e-06
1.36058e-06
1.20165e-06
1.50733e-06
1.18445e-06
1.65144e-06
1.16437e-06
1.79239e-06
1.14167e-06
1.92973e-06
1.11662e-06
2.06308e-06
1.08947e-06
2.19212e-06
1.06048e-06
2.31657e-06
1.0299e-06
2.43623e-06
9.9796e-07
2.55093e-06
9.64885e-07
2.66053e-06
9.30889e-07
2.76493e-06
8.96173e-07
2.86409e-06
8.60927e-07
2.95796e-06
8.25322e-07
3.04654e-06
7.89519e-07
3.12983e-06
7.53661e-07
3.20789e-06
7.17878e-07
3.28074e-06
6.82285e-07
3.34846e-06
6.46981e-07
3.4111e-06
6.12054e-07
5.77577e-07
-5.92861e-08
2.16254e-07
-1.75974e-07
5.26241e-07
-3.03647e-07
7.14329e-07
-4.17315e-07
8.20491e-07
-5.06416e-07
8.80823e-07
-5.67542e-07
9.17524e-07
-6.00451e-07
9.42648e-07
-6.06282e-07
9.62366e-07
-5.86814e-07
9.79669e-07
-5.44154e-07
9.9589e-07
-4.8058e-07
1.01147e-06
-3.98447e-07
1.02639e-06
-3.00115e-07
1.04036e-06
-1.87891e-07
1.05301e-06
-6.39875e-08
1.06392e-06
6.95081e-08
1.07274e-06
2.1067e-07
1.07914e-06
3.57736e-07
1.08291e-06
5.09116e-07
1.08391e-06
6.63393e-07
1.08206e-06
8.19311e-07
1.07736e-06
9.75769e-07
1.06986e-06
1.1318e-06
1.05966e-06
1.28658e-06
1.04688e-06
1.43936e-06
1.03166e-06
1.58954e-06
1.01419e-06
1.73658e-06
9.94633e-07
1.88002e-06
9.7318e-07
2.01947e-06
9.50021e-07
2.15461e-06
9.25345e-07
2.28517e-06
8.99341e-07
2.41093e-06
8.72195e-07
2.53173e-06
8.44087e-07
2.64743e-06
8.15189e-07
2.75794e-06
7.85665e-07
2.86319e-06
7.55671e-07
2.96316e-06
7.25351e-07
3.05784e-06
6.94839e-07
3.14725e-06
6.64258e-07
3.23141e-06
6.33717e-07
3.31038e-06
6.03316e-07
3.38422e-06
5.73142e-07
3.453e-06
5.43271e-07
5.13767e-07
-8.69096e-08
3.03164e-07
-2.44208e-07
6.83539e-07
-4.05872e-07
8.75993e-07
-5.4266e-07
9.5728e-07
-6.45551e-07
9.83714e-07
-7.13585e-07
9.85557e-07
-7.48575e-07
9.77639e-07
-7.53201e-07
9.66991e-07
-7.30364e-07
9.56832e-07
-6.82975e-07
9.485e-07
-6.13873e-07
9.42371e-07
-5.25789e-07
9.38305e-07
-4.21317e-07
9.35891e-07
-3.02903e-07
9.34595e-07
-1.72829e-07
9.33848e-07
-3.31997e-08
9.33106e-07
1.14049e-07
9.31889e-07
2.67174e-07
9.29786e-07
4.24603e-07
9.26479e-07
5.84936e-07
9.21726e-07
7.46934e-07
9.15363e-07
9.09507e-07
9.07289e-07
1.0717e-06
8.97462e-07
1.2327e-06
8.85884e-07
1.39176e-06
8.72595e-07
1.54829e-06
8.57663e-07
1.70175e-06
8.41179e-07
1.85168e-06
8.23251e-07
1.9977e-06
8.04e-07
2.13949e-06
7.83553e-07
2.27679e-06
7.62044e-07
2.40937e-06
7.39607e-07
2.53708e-06
7.16378e-07
2.65978e-06
6.92488e-07
2.77738e-06
6.68066e-07
2.88982e-06
6.43236e-07
2.99705e-06
6.18112e-07
3.09909e-06
5.92805e-07
3.19593e-06
5.67413e-07
3.28762e-06
5.4203e-07
3.3742e-06
5.16738e-07
3.45573e-06
4.91611e-07
3.53229e-06
4.66714e-07
4.42104e-07
-1.28763e-07
4.31927e-07
-3.37111e-07
8.91887e-07
-5.33004e-07
1.07189e-06
-6.86375e-07
1.11065e-06
-7.93417e-07
1.09076e-06
-8.57675e-07
1.04982e-06
-8.84105e-07
1.00407e-06
-8.77529e-07
9.60415e-07
-8.42302e-07
9.21605e-07
-7.8229e-07
8.88488e-07
-7.00921e-07
8.61002e-07
-6.0125e-07
8.38633e-07
-4.8601e-07
8.20652e-07
-3.57667e-07
8.06252e-07
-2.18446e-07
7.94626e-07
-7.03553e-08
7.85016e-07
8.47925e-08
7.76741e-07
2.45367e-07
7.69212e-07
4.0991e-07
7.61935e-07
5.77123e-07
7.54513e-07
7.45855e-07
7.46632e-07
9.15088e-07
7.38056e-07
1.08393e-06
7.2862e-07
1.2516e-06
7.18214e-07
1.41742e-06
7.06776e-07
1.5808e-06
6.94284e-07
1.74123e-06
6.80749e-07
1.89827e-06
6.66206e-07
2.05156e-06
6.5071e-07
2.20078e-06
6.34331e-07
2.34568e-06
6.17149e-07
2.48603e-06
5.99252e-07
2.62168e-06
5.80732e-07
2.75248e-06
5.61684e-07
2.87835e-06
5.42202e-07
2.99921e-06
5.22377e-07
3.11502e-06
5.023e-07
3.22577e-06
4.82054e-07
3.33146e-06
4.6172e-07
3.43212e-06
4.4137e-07
3.52779e-06
4.21073e-07
3.61851e-06
4.00889e-07
3.70435e-06
3.80872e-07
3.61072e-07
-1.94648e-07
6.26575e-07
-4.62963e-07
1.1602e-06
-6.81128e-07
1.29005e-06
-8.29154e-07
1.25868e-06
-9.15384e-07
1.17699e-06
-9.50972e-07
1.0854e-06
-9.45544e-07
9.98641e-07
-9.06849e-07
9.2172e-07
-8.41021e-07
8.55777e-07
-7.52908e-07
8.00375e-07
-6.46373e-07
7.54467e-07
-5.24547e-07
7.16808e-07
-3.90029e-07
6.86133e-07
-2.45016e-07
6.61239e-07
-9.14075e-08
6.41018e-07
6.91316e-08
6.24476e-07
2.35129e-07
6.10743e-07
4.05272e-07
5.99069e-07
5.78383e-07
5.88824e-07
7.53409e-07
5.79487e-07
9.29407e-07
5.70634e-07
1.10554e-06
5.61928e-07
1.28104e-06
5.53111e-07
1.45527e-06
5.4399e-07
1.62762e-06
5.34425e-07
1.79758e-06
5.24326e-07
1.96469e-06
5.13638e-07
2.12856e-06
5.02338e-07
2.28884e-06
4.90428e-07
2.44524e-06
4.7793e-07
2.59751e-06
4.64878e-07
2.74544e-06
4.51321e-07
2.88886e-06
4.37313e-07
3.02763e-06
4.22916e-07
3.16164e-06
4.08192e-07
3.29081e-06
3.93205e-07
3.41509e-06
3.7802e-07
3.53445e-06
3.62699e-07
3.64886e-06
3.47301e-07
3.75835e-06
3.31884e-07
3.86293e-06
3.16498e-07
3.96262e-06
3.01191e-07
4.05749e-06
2.86008e-07
2.70986e-07
-3.04335e-07
9.3091e-07
-6.26451e-07
1.48232e-06
-8.17925e-07
1.48153e-06
-9.00714e-07
1.34147e-06
-9.078e-07
1.18407e-06
-8.62286e-07
1.03989e-06
-7.79847e-07
9.16202e-07
-6.71272e-07
8.13145e-07
-5.43963e-07
7.28467e-07
-4.0294e-07
6.59352e-07
-2.51633e-07
6.0316e-07
-9.2442e-08
5.57617e-07
7.28889e-08
5.20802e-07
2.43043e-07
4.91085e-07
4.16981e-07
4.67081e-07
5.9383e-07
4.47627e-07
7.72835e-07
4.31738e-07
9.53313e-07
4.18591e-07
1.13464e-06
4.07501e-07
1.31622e-06
3.97904e-07
1.49751e-06
3.89339e-07
1.678e-06
3.81438e-07
1.85721e-06
3.73908e-07
2.03467e-06
3.66523e-07
2.20999e-06
3.59112e-07
2.38276e-06
3.51551e-07
2.55265e-06
3.43752e-07
2.71933e-06
3.35661e-07
2.88251e-06
3.27248e-07
3.04193e-06
3.18501e-07
3.19738e-06
3.09428e-07
3.34866e-06
3.00046e-07
3.49559e-06
2.90381e-07
3.63804e-06
2.80468e-07
3.77589e-06
2.70345e-07
3.90904e-06
2.60052e-07
4.03743e-06
2.49631e-07
4.161e-06
2.39124e-07
4.27973e-06
2.28571e-07
4.39361e-06
2.18011e-07
4.50262e-06
2.07481e-07
4.6068e-06
1.97015e-07
4.70616e-06
1.86644e-07
1.76396e-07
-4.98831e-07
1.42974e-06
-7.75934e-07
1.75942e-06
-7.81075e-07
1.48667e-06
-6.55085e-07
1.21548e-06
-4.69904e-07
9.9889e-07
-2.58036e-07
8.28022e-07
-3.55537e-08
6.9372e-07
1.88652e-07
5.88939e-07
4.09954e-07
5.07166e-07
6.2634e-07
4.42966e-07
8.37221e-07
3.92279e-07
1.04271e-06
3.52128e-07
1.24325e-06
3.20261e-07
1.43941e-06
2.94926e-07
1.63175e-06
2.74737e-07
1.82079e-06
2.58591e-07
2.00693e-06
2.45598e-07
2.19048e-06
2.35042e-07
2.37164e-06
2.26341e-07
2.55052e-06
2.19024e-07
2.72714e-06
2.12715e-07
2.90147e-06
2.07111e-07
3.0734e-06
2.01975e-07
3.24281e-06
1.97121e-07
3.40951e-06
1.92409e-07
3.57333e-06
1.87732e-07
3.73407e-06
1.83013e-07
3.89153e-06
1.78201e-07
4.04551e-06
1.73262e-07
4.19584e-06
1.68178e-07
4.34232e-06
1.62943e-07
4.48481e-06
1.57561e-07
4.62314e-06
1.52043e-07
4.75721e-06
1.46405e-07
4.88689e-06
1.40666e-07
5.01209e-06
1.34848e-07
5.13275e-06
1.28975e-07
5.2488e-06
1.23069e-07
5.36022e-06
1.17155e-07
5.46697e-06
1.11254e-07
5.56907e-06
1.05387e-07
5.66651e-06
9.95746e-08
5.75932e-06
9.3834e-08
8.81814e-08
-6.71985e-07
2.10173e-06
-3.74842e-07
1.46228e-06
1.89491e-07
9.22334e-07
7.24616e-07
6.80351e-07
1.20064e-06
5.22862e-07
1.62398e-06
4.04686e-07
1.99991e-06
3.1779e-07
2.33382e-06
2.55029e-07
2.63185e-06
2.09138e-07
2.89993e-06
1.74881e-07
3.14327e-06
1.48938e-07
3.36627e-06
1.29134e-07
3.5726e-06
1.13929e-07
3.76533e-06
1.02194e-07
3.94698e-06
9.30898e-08
4.11959e-06
8.59853e-08
4.28478e-06
8.03993e-08
4.44387e-06
7.59604e-08
4.59783e-06
7.23798e-08
4.74742e-06
6.9432e-08
4.89319e-06
6.69415e-08
5.03553e-06
6.47719e-08
5.17469e-06
6.28183e-08
5.31081e-06
6.10004e-08
5.44396e-06
5.92582e-08
5.57414e-06
5.75476e-08
5.70132e-06
5.58371e-08
5.82542e-06
5.41056e-08
5.94634e-06
5.23399e-08
6.06398e-06
5.05331e-08
6.17824e-06
4.86831e-08
6.28901e-06
4.67914e-08
6.39619e-06
4.48625e-08
6.4997e-06
4.29026e-08
6.59944e-06
4.09193e-08
6.69537e-06
3.89208e-08
6.78743e-06
3.69158e-08
6.87558e-06
3.4913e-08
6.95982e-06
3.29208e-08
7.04012e-06
3.09472e-08
7.11651e-06
2.89995e-08
7.189e-06
2.70844e-08
7.25763e-06
2.52076e-08
2.33743e-08
2.10173e-06
3.564e-06
4.48634e-06
5.16669e-06
5.68955e-06
6.09424e-06
6.41203e-06
6.66705e-06
6.87619e-06
7.05107e-06
7.20001e-06
7.32915e-06
7.44307e-06
7.54527e-06
7.63836e-06
7.72434e-06
7.80474e-06
7.8807e-06
7.95308e-06
8.02251e-06
8.08946e-06
8.15423e-06
8.21705e-06
8.27805e-06
8.3373e-06
8.39485e-06
8.45069e-06
8.50479e-06
8.55713e-06
8.60767e-06
8.65635e-06
8.70314e-06
8.748e-06
8.79091e-06
8.83183e-06
8.87075e-06
8.90766e-06
8.94258e-06
8.9755e-06
9.00644e-06
9.03544e-06
9.06253e-06
9.08774e-06
)
;

boundaryField
{
    movingWall
    {
        type            calculated;
        value           uniform 0;
    }
    fixedWalls
    {
        type            calculated;
        value           uniform 0;
    }
    frontAndBack
    {
        type            empty;