/*--------------------------------*- C++ -*----------------------------------*\
  =========                 |
  \\      /  F ield         | OpenFOAM: The Open Source CFD Toolbox
   \\    /   O peration     | Website:  https://openfoam.org
    \\  /    A nd           | Version:  9
     \\/     M anipulation  |
\*---------------------------------------------------------------------------*/
FoamFile
{
    format      ascii;
    class       volVectorField;
    location    "2.5";
    object      U;
}
// * * * * * * * * * * * * * * * * * * * * * * * * * * * * * * * * * * * * * //

dimensions      [0 1 -1 0 0 0 0];

internalField   nonuniform List<vector> 
1250
(
(0.142028 0.279098 0)
(0.144431 0.269701 0)
(0.146584 0.259872 0)
(0.148511 0.249726 0)
(0.150239 0.239367 0)
(0.151791 0.228881 0)
(0.153191 0.218343 0)
(0.154458 0.207809 0)
(0.155609 0.197326 0)
(0.156658 0.186925 0)
(0.157615 0.17663 0)
(0.158486 0.166453 0)
(0.159275 0.156402 0)
(0.159982 0.146477 0)
(0.160605 0.136677 0)
(0.161141 0.126995 0)
(0.161585 0.117424 0)
(0.161929 0.107956 0)
(0.000255246 0.0110659 0)
(0.00190215 0.035868 0)
(0.00551801 0.0628043 0)
(0.0106362 0.091123 0)
(0.0169673 0.119933 0)
(0.0242245 0.148305 0)
(0.0320881 0.175389 0)
(0.0402519 0.200498 0)
(0.0484583 0.223164 0)
(0.0565167 0.243144 0)
(0.0643077 0.260385 0)
(0.0717744 0.274979 0)
(0.0789066 0.287092 0)
(0.0857214 0.296921 0)
(0.0922459 0.304654 0)
(0.0985048 0.310451 0)
(0.104513 0.314443 0)
(0.110275 0.316732 0)
(0.115783 0.317407 0)
(0.121023 0.316551 0)
(0.125979 0.314251 0)
(0.130632 0.310606 0)
(0.134972 0.305725 0)
(0.138989 0.299729 0)
(0.142684 0.292748 0)
(0.146061 0.284917 0)
(0.149132 0.276373 0)
(0.151915 0.267247 0)
(0.15443 0.257665 0)
(0.1567 0.247742 0)
(0.158748 0.237581 0)
(0.160599 0.22727 0)
(0.162276 0.216885 0)
(0.163798 0.206486 0)
(0.165183 0.196121 0)
(0.166447 0.185827 0)
(0.167599 0.175629 0)
(0.168649 0.165544 0)
(0.1696 0.155581 0)
(0.170455 0.145746 0)
(0.171214 0.136036 0)
(0.171874 0.126449 0)
(0.172431 0.116979 0)
(0.172879 0.107617 0)
(0.000236926 0.0101225 0)
(0.00179469 0.0331776 0)
(0.00524901 0.0585315 0)
(0.0101886 0.0854816 0)
(0.0163651 0.113187 0)
(0.0235258 0.140755 0)
(0.0313754 0.16734 0)
(0.0396198 0.192231 0)
(0.0479997 0.214908 0)
(0.0563123 0.235062 0)
(0.0644196 0.252576 0)
(0.0722454 0.267485 0)
(0.0797619 0.279917 0)
(0.0869736 0.290048 0)
(0.0939004 0.298058 0)
(0.100564 0.304113 0)
(0.10698 0.308352 0)
(0.113153 0.31089 0)
(0.119079 0.311822 0)
(0.124744 0.31124 0)
(0.130132 0.309231 0)
(0.135224 0.305893 0)
(0.140007 0.30133 0)
(0.144469 0.295658 0)
(0.148604 0.289 0)
(0.152417 0.281486 0)
(0.155913 0.273245 0)
(0.159106 0.264406 0)
(0.162015 0.25509 0)
(0.164658 0.245411 0)
(0.16706 0.23547 0)
(0.169242 0.225356 0)
(0.171226 0.215147 0)
(0.173034 0.204904 0)
(0.174682 0.194679 0)
(0.176186 0.184512 0)
(0.177558 0.17443 0)
(0.178809 0.164454 0)
(0.179943 0.154596 0)
(0.180965 0.144864 0)
(0.181876 0.135259 0)
(0.182675 0.125779 0)
(0.183358 0.116419 0)
(0.183921 0.107175 0)
(0.000218317 0.00923696 0)
(0.00168074 0.0306257 0)
(0.00495537 0.0544404 0)
(0.00968496 0.0800257 0)
(0.0156621 0.106594 0)
(0.0226693 0.133292 0)
(0.0304401 0.159292 0)
(0.0386972 0.18387 0)
(0.0471854 0.206468 0)
(0.0556943 0.22672 0)
(0.0640708 0.244449 0)
(0.07222 0.259634 0)
(0.0800968 0.272361 0)
(0.0876913 0.28278 0)
(0.0950139 0.291061 0)
(0.102081 0.297369 0)
(0.108908 0.301851 0)
(0.115498 0.30463 0)
(0.12185 0.305813 0)
(0.127951 0.305495 0)
(0.133785 0.303768 0)
(0.139332 0.30073 0)
(0.144576 0.296481 0)
(0.149503 0.291132 0)
(0.154104 0.284801 0)
(0.158377 0.277611 0)
(0.162326 0.269685 0)
(0.165961 0.261148 0)
(0.169295 0.252116 0)
(0.172346 0.2427 0)
(0.175134 0.233 0)
(0.17768 0.223107 0)
(0.180005 0.213096 0)
(0.182129 0.203034 0)
(0.18407 0.192972 0)
(0.185844 0.182952 0)
(0.187464 0.173008 0)
(0.188941 0.163161 0)
(0.190282 0.153426 0)
(0.191493 0.143814 0)
(0.192575 0.134328 0)
(0.193529 0.124969 0)
(0.194353 0.115733 0)
(0.195045 0.106616 0)
(0.000199532 0.00841222 0)
(0.00156095 0.0282242 0)
(0.00463876 0.0505549 0)
(0.00912827 0.0747926 0)
(0.0148622 0.100202 0)
(0.0216595 0.125976 0)
(0.0292855 0.151311 0)
(0.0374846 0.175484 0)
(0.0460112 0.197908 0)
(0.0546526 0.218174 0)
(0.0632443 0.236048 0)
(0.0716749 0.251457 0)
(0.0798819 0.264444 0)
(0.0878402 0.275128 0)
(0.0955488 0.283666 0)
(0.103017 0.290217 0)
(0.110256 0.294933 0)
(0.11727 0.297944 0)
(0.124057 0.299367 0)
(0.130604 0.299303 0)
(0.136896 0.297848 0)
(0.142913 0.2951 0)
(0.148636 0.291158 0)
(0.154048 0.28613 0)
(0.159137 0.280126 0)
(0.163897 0.273265 0)
(0.168327 0.265664 0)
(0.172433 0.25744 0)
(0.176224 0.248708 0)
(0.179716 0.239575 0)
(0.182924 0.230139 0)
(0.185869 0.220488 0)
(0.188569 0.210701 0)
(0.191043 0.200842 0)
(0.19331 0.190967 0)
(0.195385 0.18112 0)
(0.197283 0.171335 0)
(0.199014 0.161638 0)
(0.200587 0.152047 0)
(0.20201 0.142574 0)
(0.203285 0.133225 0)
(0.204414 0.124002 0)
(0.205398 0.114905 0)
(0.206234 0.105929 0)
(0.000180642 0.00765082 0)
(0.00143566 0.0259847 0)
(0.00430008 0.0468979 0)
(0.00852021 0.0698187 0)
(0.013968 0.094062 0)
(0.0204993 0.118868 0)
(0.0279138 0.143467 0)
(0.0359822 0.167144 0)
(0.0444736 0.189298 0)
(0.0531784 0.209485 0)
(0.0619249 0.227424 0)
(0.0705883 0.242993 0)
(0.0790894 0.256193 0)
(0.0873874 0.26711 0)
(0.0954681 0.275881 0)
(0.103332 0.282658 0)
(0.110984 0.287594 0)
(0.118427 0.290826 0)
(0.125656 0.292475 0)
(0.13266 0.292652 0)
(0.139424 0.291456 0)
(0.145925 0.288988 0)
(0.152144 0.285344 0)
(0.158061 0.28063 0)
(0.16366 0.274952 0)
(0.16893 0.268422 0)
(0.173868 0.261151 0)
(0.178474 0.253253 0)
(0.182754 0.244836 0)
(0.186719 0.236003 0)
(0.190382 0.226851 0)
(0.193759 0.217466 0)
(0.196869 0.207925 0)
(0.199728 0.198296 0)
(0.202355 0.188633 0)
(0.204764 0.178983 0)
(0.20697 0.169382 0)
(0.208986 0.159859 0)
(0.21082 0.150433 0)
(0.212481 0.141119 0)
(0.213973 0.131926 0)
(0.2153 0.122858 0)
(0.216463 0.113915 0)
(0.217461 0.105096 0)
(0.000161648 0.00695523 0)
(0.00130475 0.0239183 0)
(0.00393902 0.0434923 0)
(0.00786048 0.0651399 0)
(0.0129793 0.0882232 0)
(0.0191889 0.112031 0)
(0.026325 0.13583 0)
(0.0341885 0.158925 0)
(0.0425683 0.180712 0)
(0.051263 0.200721 0)
(0.0600985 0.218636 0)
(0.0689397 0.234289 0)
(0.0776926 0.247641 0)
(0.0863006 0.258746 0)
(0.0947354 0.267717 0)
(0.102986 0.274697 0)
(0.11105 0.279834 0)
(0.118925 0.283269 0)
(0.126605 0.285129 0)
(0.134077 0.285531 0)
(0.141324 0.28458 0)
(0.148325 0.282377 0)
(0.155056 0.279021 0)
(0.161496 0.274613 0)
(0.167625 0.269256 0)
(0.17343 0.263057 0)
(0.178901 0.256121 0)
(0.184035 0.248557 0)
(0.188834 0.240467 0)
(0.193303 0.231951 0)
(0.197453 0.223102 0)
(0.201297 0.214005 0)
(0.204851 0.204735 0)
(0.208131 0.19536 0)
(0.211151 0.185935 0)
(0.213929 0.176508 0)
(0.216477 0.167117 0)
(0.218808 0.157792 0)
(0.220933 0.148555 0)
(0.222861 0.139424 0)
(0.224597 0.130408 0)
(0.226146 0.121514 0)
(0.22751 0.112745 0)
(0.228692 0.1041 0)
(0.000142453 0.00632809 0)
(0.0011674 0.0220368 0)
(0.00355348 0.0403611 0)
(0.00714586 0.0607921 0)
(0.0118924 0.0827346 0)
(0.017724 0.105525 0)
(0.0245148 0.12847 0)
(0.0320985 0.150903 0)
(0.0402884 0.172225 0)
(0.0488962 0.191954 0)
(0.0577504 0.209746 0)
(0.0667091 0.225397 0)
(0.075666 0.238828 0)
(0.0845492 0.250063 0)
(0.0933153 0.259191 0)
(0.101941 0.266339 0)
(0.110413 0.271651 0)
(0.118723 0.275267 0)
(0.12686 0.277319 0)
(0.134811 0.277929 0)
(0.142554 0.277205 0)
(0.150068 0.275253 0)
(0.157327 0.272171 0)
(0.164308 0.26806 0)
(0.170988 0.263017 0)
(0.177349 0.257146 0)
(0.183377 0.250548 0)
(0.189064 0.243323 0)
(0.194409 0.235571 0)
(0.199413 0.227387 0)
(0.204082 0.218859 0)
(0.208426 0.210071 0)
(0.212458 0.201096 0)
(0.216192 0.192 0)
(0.219641 0.182839 0)
(0.222821 0.173661 0)
(0.225745 0.164506 0)
(0.228425 0.155406 0)
(0.230872 0.146384 0)
(0.233096 0.137459 0)
(0.235103 0.128644 0)
(0.236901 0.119947 0)
(0.238492 0.111372 0)
(0.239878 0.10292 0)
(0.000122811 0.00577267 0)
(0.00102186 0.0203535 0)
(0.00313893 0.0375296 0)
(0.00636903 0.056813 0)
(0.0106979 0.0776465 0)
(0.0160945 0.0994116 0)
(0.0224724 0.12146 0)
(0.0297013 0.143155 0)
(0.0376222 0.163917 0)
(0.0460648 0.18326 0)
(0.0548644 0.200822 0)
(0.0638765 0.216372 0)
(0.0729848 0.229798 0)
(0.0821035 0.241093 0)
(0.0911739 0.250321 0)
(0.100158 0.257595 0)
(0.109033 0.263047 0)
(0.117779 0.266816 0)
(0.126381 0.269037 0)
(0.134818 0.269833 0)
(0.143071 0.269319 0)
(0.151112 0.267601 0)
(0.158915 0.264779 0)
(0.166454 0.260951 0)
(0.173702 0.256215 0)
(0.180638 0.250668 0)
(0.187245 0.244407 0)
(0.193511 0.237526 0)
(0.199427 0.230121 0)
(0.204993 0.222281 0)
(0.21021 0.214092 0)
(0.215085 0.205632 0)
(0.219628 0.196974 0)
(0.223848 0.188181 0)
(0.22776 0.17931 0)
(0.231376 0.170409 0)
(0.234708 0.161517 0)
(0.237769 0.152668 0)
(0.240571 0.143888 0)
(0.243121 0.135195 0)
(0.24543 0.126606 0)
(0.247504 0.118129 0)
(0.249346 0.109771 0)
(0.250962 0.101534 0)
(0.000102258 0.00529339 0)
(0.000865003 0.0188847 0)
(0.0026874 0.0350265 0)
(0.00551706 0.0532435 0)
(0.00937898 0.0730113 0)
(0.0142813 0.0937544 0)
(0.0201784 0.11487 0)
(0.0269777 0.135759 0)
(0.0345513 0.155866 0)
(0.0427503 0.174715 0)
(0.051421 0.191935 0)
(0.0604201 0.207274 0)
(0.0696241 0.220598 0)
(0.078935 0.23187 0)
(0.0882792 0.241131 0)
(0.0976039 0.248475 0)
(0.106872 0.254025 0)
(0.116053 0.257914 0)
(0.125124 0.260275 0)
(0.134059 0.261234 0)
(0.142832 0.260908 0)
(0.151415 0.259405 0)
(0.159777 0.256827 0)
(0.167889 0.253271 0)
(0.175723 0.248832 0)
(0.183253 0.243603 0)
(0.190459 0.237676 0)
(0.197323 0.231143 0)
(0.203834 0.224091 0)
(0.209987 0.216607 0)
(0.215779 0.20877 0)
(0.221213 0.200657 0)
(0.226295 0.192337 0)
(0.231034 0.183871 0)
(0.235439 0.175316 0)
(0.239522 0.166717 0)
(0.243296 0.158117 0)
(0.24677 0.149547 0)
(0.249957 0.141035 0)
(0.252865 0.132603 0)
(0.255505 0.124265 0)
(0.257882 0.116034 0)
(0.260003 0.107917 0)
(0.261873 0.0999172 0)
(7.99977e-05 0.00489668 0)
(0.000691764 0.0176518 0)
(0.00218617 0.0328867 0)
(0.00456941 0.0501301 0)
(0.00790904 0.068885 0)
(0.0122542 0.0886176 0)
(0.0176014 0.108771 0)
(0.0238975 0.12879 0)
(0.0310473 0.14815 0)
(0.0389263 0.166394 0)
(0.0473953 0.183154 0)
(0.0563151 0.198167 0)
(0.0655584 0.21128 0)
(0.0750162 0.222433 0)
(0.084601 0.231647 0)
(0.0942444 0.238997 0)
(0.103894 0.244592 0)
(0.113509 0.248558 0)
(0.123053 0.251026 0)
(0.132494 0.25212 0)
(0.141799 0.251959 0)
(0.150936 0.250652 0)
(0.159872 0.248302 0)
(0.168573 0.245003 0)
(0.177008 0.24085 0)
(0.185149 0.235933 0)
(0.19297 0.230338 0)
(0.200451 0.224152 0)
(0.207578 0.217459 0)
(0.214338 0.21034 0)
(0.220728 0.202869 0)
(0.226746 0.19512 0)
(0.232394 0.187157 0)
(0.237678 0.179041 0)
(0.242606 0.170825 0)
(0.247186 0.162556 0)
(0.25143 0.154274 0)
(0.255348 0.146011 0)
(0.25895 0.137797 0)
(0.262246 0.129651 0)
(0.265244 0.121593 0)
(0.267954 0.113634 0)
(0.27038 0.105784 0)
(0.272529 0.0980462 0)
(5.47632e-05 0.0045921 0)
(0.000494373 0.0166839 0)
(0.00161606 0.0311545 0)
(0.00349538 0.0475277 0)
(0.00624835 0.0653301 0)
(0.00996804 0.0840688 0)
(0.0146948 0.103235 0)
(0.0204154 0.122322 0)
(0.0270687 0.140845 0)
(0.0345559 0.158372 0)
(0.0427545 0.174549 0)
(0.0515322 0.189111 0)
(0.0607598 0.201894 0)
(0.0703198 0.212823 0)
(0.0801112 0.221897 0)
(0.0900504 0.229176 0)
(0.100069 0.234754 0)
(0.110113 0.238749 0)
(0.120132 0.241284 0)
(0.130086 0.242483 0)
(0.139935 0.242461 0)
(0.149639 0.241329 0)
(0.159162 0.239188 0)
(0.168466 0.236133 0)
(0.177517 0.232255 0)
(0.186283 0.227641 0)
(0.194735 0.222374 0)
(0.202849 0.216537 0)
(0.210607 0.210206 0)
(0.217994 0.203459 0)
(0.225001 0.196366 0)
(0.231623 0.188995 0)
(0.237859 0.181409 0)
(0.243712 0.173664 0)
(0.249187 0.165812 0)
(0.25429 0.157897 0)
(0.259032 0.149959 0)
(0.26342 0.142032 0)
(0.267465 0.134142 0)
(0.271176 0.126313 0)
(0.27456 0.118562 0)
(0.277628 0.110903 0)
(0.280385 0.103345 0)
(0.282838 0.0958962 0)
(2.47194e-05 0.0043941 0)
(0.000261402 0.0160216 0)
(0.000949158 0.0298878 0)
(0.00225091 0.0455032 0)
(0.00434055 0.062417 0)
(0.00735933 0.0801795 0)
(0.011393 0.0983345 0)
(0.0164684 0.116427 0)
(0.022558 0.13402 0)
(0.0295889 0.150716 0)
(0.0374559 0.166182 0)
(0.0460352 0.180163 0)
(0.0551974 0.19249 0)
(0.0648179 0.203077 0)
(0.0747837 0.21191 0)
(0.0849959 0.219032 0)
(0.0953706 0.224523 0)
(0.105837 0.228489 0)
(0.116333 0.231046 0)
(0.126807 0.232313 0)
(0.137208 0.232402 0)
(0.147491 0.231421 0)
(0.157613 0.229472 0)
(0.167533 0.226646 0)
(0.177213 0.223033 0)
(0.186616 0.218715 0)
(0.195711 0.213772 0)
(0.204471 0.208281 0)
(0.212874 0.202317 0)
(0.220901 0.195948 0)
(0.22854 0.189243 0)
(0.235782 0.182265 0)
(0.242624 0.175072 0)
(0.249065 0.167718 0)
(0.255107 0.160251 0)
(0.260756 0.152715 0)
(0.266018 0.145148 0)
(0.2709 0.137582 0)
(0.275412 0.130046 0)
(0.279561 0.12256 0)
(0.283357 0.115145 0)
(0.286807 0.107813 0)
(0.289919 0.100577 0)
(0.2927 0.0934432 0)
(-1.2888e-05 0.00432585 0)
(-2.39463e-05 0.0157219 0)
(0.000145554 0.0291628 0)
(0.000774712 0.0441395 0)
(0.00210857 0.0602276 0)
(0.00434196 0.0770267 0)
(0.00760762 0.0941393 0)
(0.011972 0.111171 0)
(0.0174386 0.127737 0)
(0.0239589 0.143484 0)
(0.0314442 0.158108 0)
(0.0397792 0.171372 0)
(0.0488352 0.18311 0)
(0.0584815 0.193232 0)
(0.0685939 0.201713 0)
(0.0790589 0.208582 0)
(0.0897766 0.213907 0)
(0.10066 0.21778 0)
(0.111634 0.220308 0)
(0.122631 0.221603 0)
(0.133592 0.221772 0)
(0.144465 0.220919 0)
(0.155197 0.219142 0)
(0.165744 0.216531 0)
(0.176062 0.213171 0)
(0.186113 0.209142 0)
(0.195862 0.204519 0)
(0.205277 0.199375 0)
(0.214334 0.193779 0)
(0.223011 0.187795 0)
(0.231292 0.181487 0)
(0.239167 0.174914 0)
(0.246627 0.16813 0)
(0.25367 0.161185 0)
(0.260295 0.154125 0)
(0.266505 0.146991 0)
(0.272305 0.139819 0)
(0.2777 0.132642 0)
(0.282699 0.125485 0)
(0.287308 0.118371 0)
(0.291535 0.111319 0)
(0.295389 0.104344 0)
(0.298877 0.0974565 0)
(0.302006 0.0906652 0)
(-6.43117e-05 0.00441959 0)
(-0.000388176 0.0158641 0)
(-0.000850304 0.0290819 0)
(-0.00101594 0.043542 0)
(-0.000549783 0.0588581 0)
(0.00080331 0.0746925 0)
(0.00322434 0.0907193 0)
(0.00681725 0.106612 0)
(0.0116124 0.122047 0)
(0.0175819 0.136722 0)
(0.0246506 0.150369 0)
(0.03271 0.162776 0)
(0.0416319 0.173787 0)
(0.0512799 0.183315 0)
(0.0615189 0.191328 0)
(0.0722217 0.197842 0)
(0.0832725 0.202915 0)
(0.0945684 0.206625 0)
(0.106019 0.209069 0)
(0.117543 0.210348 0)
(0.129072 0.210563 0)
(0.14054 0.209813 0)
(0.151892 0.208189 0)
(0.163074 0.205779 0)
(0.17404 0.202662 0)
(0.184746 0.198915 0)
(0.195154 0.194608 0)
(0.20523 0.18981 0)
(0.214947 0.184584 0)
(0.22428 0.178992 0)
(0.23321 0.17309 0)
(0.241723 0.166933 0)
(0.249809 0.160572 0)
(0.257462 0.154053 0)
(0.26468 0.147419 0)
(0.271462 0.140709 0)
(0.277812 0.133957 0)
(0.283734 0.127192 0)
(0.289233 0.120442 0)
(0.294318 0.113727 0)
(0.298994 0.107066 0)
(0.303269 0.100475 0)
(0.30715 0.0939639 0)
(0.310645 0.0875426 0)
(-0.000135867 0.00472279 0)
(-0.000864223 0.0165596 0)
(-0.0021126 0.0297805 0)
(-0.00323115 0.0438415 0)
(-0.00376883 0.0584205 0)
(-0.00340099 0.0732662 0)
(-0.00189961 0.088142 0)
(0.000869822 0.102801 0)
(0.00495909 0.11699 0)
(0.0103552 0.130459 0)
(0.0169919 0.14299 0)
(0.0247636 0.154396 0)
(0.0335407 0.164541 0)
(0.0431806 0.173343 0)
(0.0535377 0.180767 0)
(0.0644713 0.186822 0)
(0.0758505 0.191553 0)
(0.0875566 0.195027 0)
(0.0994837 0.197327 0)
(0.111538 0.198544 0)
(0.123638 0.19877 0)
(0.135708 0.198095 0)
(0.147684 0.196605 0)
(0.159507 0.194381 0)
(0.171125 0.191498 0)
(0.18249 0.188027 0)
(0.193561 0.184034 0)
(0.204301 0.179582 0)
(0.214679 0.17473 0)
(0.224668 0.169534 0)
(0.234247 0.164047 0)
(0.2434 0.158318 0)
(0.252114 0.152393 0)
(0.26038 0.146317 0)
(0.268194 0.140128 0)
(0.275554 0.133862 0)
(0.28246 0.127551 0)
(0.288916 0.121223 0)
(0.294927 0.114904 0)
(0.300496 0.108614 0)
(0.305632 0.102371 0)
(0.310341 0.0961904 0)
(0.314629 0.0900832 0)
(0.318505 0.084059 0)
(-0.000238321 0.00530726 0)
(-0.00150102 0.0179622 0)
(-0.00374285 0.031435 0)
(-0.00601431 0.0451994 0)
(-0.00771576 0.0590438 0)
(-0.00844757 0.0728418 0)
(-0.00793846 0.086469 0)
(-0.00603129 0.099774 0)
(-0.00266369 0.112581 0)
(0.00215907 0.124706 0)
(0.00837246 0.135973 0)
(0.0158672 0.146234 0)
(0.0245102 0.155372 0)
(0.0341506 0.163317 0)
(0.044632 0.170033 0)
(0.0558004 0.175524 0)
(0.0675106 0.179822 0)
(0.0796289 0.182985 0)
(0.092035 0.185081 0)
(0.104622 0.186188 0)
(0.117294 0.186389 0)
(0.129968 0.185762 0)
(0.142571 0.184387 0)
(0.155037 0.182335 0)
(0.167307 0.179677 0)
(0.179331 0.176478 0)
(0.191063 0.172797 0)
(0.202464 0.168692 0)
(0.213499 0.164218 0)
(0.224142 0.159424 0)
(0.234366 0.154359 0)
(0.244155 0.149069 0)
(0.253492 0.143594 0)
(0.262368 0.137976 0)
(0.270777 0.132248 0)
(0.278713 0.126446 0)
(0.286176 0.120597 0)
(0.293169 0.114729 0)
(0.299693 0.108865 0)
(0.305753 0.103024 0)
(0.311355 0.0972245 0)
(0.316505 0.0914801 0)
(0.32121 0.0858027 0)
(0.325476 0.0802017 0)
(-0.000388268 0.00627651 0)
(-0.00236778 0.0202823 0)
(-0.0058766 0.0342749 0)
(-0.00954889 0.0478131 0)
(-0.0125982 0.0608745 0)
(-0.0145487 0.0735134 0)
(-0.0150955 0.0857511 0)
(-0.0140712 0.0975492 0)
(-0.011414 0.108819 0)
(-0.00713699 0.119444 0)
(-0.00131275 0.129297 0)
(0.00594313 0.138267 0)
(0.0144878 0.146261 0)
(0.0241592 0.153221 0)
(0.0347885 0.159113 0)
(0.0462094 0.163938 0)
(0.0582628 0.167718 0)
(0.0708012 0.170496 0)
(0.0836907 0.172328 0)
(0.0968116 0.173279 0)
(0.110058 0.173418 0)
(0.123335 0.172814 0)
(0.136563 0.171533 0)
(0.149667 0.169642 0)
(0.162586 0.167202 0)
(0.175263 0.16427 0)
(0.18765 0.160901 0)
(0.199704 0.157145 0)
(0.211389 0.153053 0)
(0.222675 0.148668 0)
(0.233535 0.144035 0)
(0.24395 0.139193 0)
(0.253902 0.134181 0)
(0.263379 0.129034 0)
(0.272374 0.123785 0)
(0.28088 0.118464 0)
(0.288896 0.113097 0)
(0.296421 0.107709 0)
(0.303457 0.102322 0)
(0.310008 0.0969538 0)
(0.316079 0.091621 0)
(0.321675 0.0863374 0)
(0.326802 0.0811143 0)
(0.331468 0.0759611 0)
(-0.000611261 0.0077806 0)
(-0.00356216 0.023805 0)
(-0.00869346 0.0385916 0)
(-0.0140658 0.0519166 0)
(-0.0186657 0.064071 0)
(-0.0219492 0.0753695 0)
(-0.0235958 0.0860216 0)
(-0.0234474 0.0961207 0)
(-0.0214604 0.105671 0)
(-0.017669 0.114625 0)
(-0.0121644 0.122908 0)
(-0.00508011 0.130444 0)
(0.00342815 0.137163 0)
(0.0131849 0.143017 0)
(0.0240053 0.14798 0)
(0.0357113 0.152044 0)
(0.048131 0.155225 0)
(0.0611045 0.15755 0)
(0.0744858 0.159064 0)
(0.088144 0.159815 0)
(0.101963 0.159859 0)
(0.11584 0.159252 0)
(0.129686 0.158051 0)
(0.143421 0.156309 0)
(0.156979 0.154079 0)
(0.170298 0.151412 0)
(0.183327 0.148355 0)
(0.196021 0.144952 0)
(0.208341 0.141247 0)
(0.220256 0.137278 0)
(0.231738 0.133085 0)
(0.242764 0.128703 0)
(0.253317 0.124166 0)
(0.263383 0.119504 0)
(0.272952 0.114749 0)
(0.282018 0.109925 0)
(0.290578 0.105058 0)
(0.29863 0.100169 0)
(0.306175 0.0952784 0)
(0.313216 0.0904033 0)
(0.319757 0.0855588 0)
(0.325804 0.0807576 0)
(0.331362 0.0760108 0)
(0.336439 0.0713271 0)
(-0.000947491 0.0100378 0)
(-0.00522329 0.0289122 0)
(-0.0124299 0.0447472 0)
(-0.0198489 0.0577755 0)
(-0.0262055 0.0687931 0)
(-0.0309138 0.0784811 0)
(-0.033669 0.0872852 0)
(-0.0343493 0.0954478 0)
(-0.0329515 0.10307 0)
(-0.0295468 0.110171 0)
(-0.0242575 0.116724 0)
(-0.017242 0.122684 0)
(-0.00867938 0.128006 0)
(0.00123805 0.132648 0)
(0.0123127 0.136586 0)
(0.024352 0.139808 0)
(0.0371725 0.142319 0)
(0.0506033 0.144135 0)
(0.0644886 0.145282 0)
(0.0786883 0.145796 0)
(0.0930779 0.145717 0)
(0.107548 0.145086 0)
(0.122001 0.143948 0)
(0.136355 0.142346 0)
(0.150536 0.140323 0)
(0.164481 0.137919 0)
(0.178136 0.135176 0)
(0.191453 0.132129 0)
(0.204391 0.128816 0)
(0.216918 0.125271 0)
(0.229004 0.121527 0)
(0.240626 0.117614 0)
(0.251765 0.113562 0)
(0.262407 0.109399 0)
(0.272541 0.10515 0)
(0.282159 0.100838 0)
(0.291258 0.0964857 0)
(0.299836 0.0921122 0)
(0.307892 0.0877354 0)
(0.315431 0.0833707 0)
(0.322454 0.0790321 0)
(0.328968 0.0747312 0)
(0.334979 0.0704783 0)
(0.340494 0.0662817 0)
(-0.00146208 0.0133678 0)
(-0.00755216 0.0361104 0)
(-0.0173942 0.0531756 0)
(-0.0272337 0.0656713 0)
(-0.0355221 0.0751792 0)
(-0.0416896 0.0828789 0)
(-0.0454972 0.0894996 0)
(-0.0468954 0.0954426 0)
(-0.0459472 0.100903 0)
(-0.0427789 0.105959 0)
(-0.0375568 0.110623 0)
(-0.0304732 0.114878 0)
(-0.0217346 0.118691 0)
(-0.0115541 0.12203 0)
(-0.000143805 0.124867 0)
(0.0122914 0.127182 0)
(0.0255578 0.128969 0)
(0.0394757 0.130229 0)
(0.053882 0.130973 0)
(0.0686298 0.13122 0)
(0.0835887 0.130995 0)
(0.0986437 0.130324 0)
(0.113694 0.129238 0)
(0.128652 0.127769 0)
(0.143442 0.125949 0)
(0.157997 0.123809 0)
(0.172261 0.121381 0)
(0.186185 0.118694 0)
(0.199728 0.115779 0)
(0.212854 0.112663 0)
(0.225535 0.109375 0)
(0.237746 0.10594 0)
(0.249468 0.102382 0)
(0.260686 0.0987264 0)
(0.271389 0.0949938 0)
(0.281569 0.0912049 0)
(0.291221 0.0873786 0)
(0.300345 0.083532 0)
(0.308939 0.0796806 0)
(0.317007 0.0758384 0)
(0.324552 0.0720175 0)
(0.331579 0.0682286 0)
(0.338096 0.0644811 0)
(0.34411 0.0607824 0)
(-0.00226475 0.0182454 0)
(-0.0108452 0.046061 0)
(-0.0239825 0.0643676 0)
(-0.036585 0.0758593 0)
(-0.0468736 0.083298 0)
(-0.0544047 0.0885091 0)
(-0.0590797 0.0925385 0)
(-0.060968 0.095941 0)
(-0.0602281 0.098991 0)
(-0.0570605 0.101811 0)
(-0.0516876 0.10444 0)
(-0.0443428 0.106877 0)
(-0.0352629 0.109096 0)
(-0.0246821 0.111062 0)
(-0.0128271 0.112742 0)
(8.73948e-05 0.114106 0)
(0.0138607 0.115132 0)
(0.0283083 0.115806 0)
(0.0432625 0.116123 0)
(0.0585736 0.116084 0)
(0.0741082 0.115697 0)
(0.0897488 0.114974 0)
(0.105392 0.113933 0)
(0.120949 0.112592 0)
(0.136342 0.110972 0)
(0.151503 0.109095 0)
(0.166375 0.106982 0)
(0.180909 0.104657 0)
(0.195061 0.102142 0)
(0.208798 0.0994585 0)
(0.222089 0.0966294 0)
(0.23491 0.0936753 0)
(0.247242 0.0906164 0)
(0.259071 0.087472 0)
(0.270384 0.0842604 0)
(0.281174 0.0809988 0)
(0.291437 0.077703 0)
(0.30117 0.0743877 0)
(0.310375 0.0710662 0)
(0.319053 0.0677506 0)
(0.327209 0.0644514 0)
(0.334849 0.0611781 0)
(0.341978 0.0579389 0)
(0.348607 0.0547406 0)
(-0.00354948 0.025392 0)
(-0.0155519 0.0596069 0)
(-0.0326845 0.0788085 0)
(-0.0482149 0.0884658 0)
(-0.0602951 0.0930404 0)
(-0.0688016 0.0951334 0)
(-0.0738818 0.0961036 0)
(-0.0757819 0.0966269 0)
(-0.0747907 0.0970255 0)
(-0.0712026 0.0974415 0)
(-0.0653066 0.0979225 0)
(-0.0573814 0.0984647 0)
(-0.0476931 0.0990374 0)
(-0.0364939 0.099597 0)
(-0.0240198 0.100097 0)
(-0.0104902 0.100492 0)
(0.0038938 0.100744 0)
(0.0189485 0.100821 0)
(0.0345079 0.100701 0)
(0.0504239 0.100367 0)
(0.066565 0.0998112 0)
(0.0828152 0.0990309 0)
(0.0990727 0.0980285 0)
(0.115249 0.0968103 0)
(0.131266 0.0953855 0)
(0.147059 0.093766 0)
(0.162569 0.0919651 0)
(0.177748 0.0899976 0)
(0.192553 0.0878788 0)
(0.206951 0.0856247 0)
(0.220912 0.0832512 0)
(0.234411 0.0807743 0)
(0.24743 0.0782098 0)
(0.259954 0.0755729 0)
(0.271971 0.0728781 0)
(0.283475 0.0701394 0)
(0.29446 0.0673697 0)
(0.304925 0.0645812 0)
(0.314869 0.061785 0)
(0.324296 0.0589911 0)
(0.333208 0.0562087 0)
(0.341613 0.0534457 0)
(0.349516 0.0507094 0)
(0.356927 0.0480056 0)
(-0.00567821 0.0359522 0)
(-0.0223789 0.0777697 0)
(-0.0440479 0.0967941 0)
(-0.0621278 0.10324 0)
(-0.0751212 0.103868 0)
(-0.0835483 0.102092 0)
(-0.0879473 0.0995051 0)
(-0.0888161 0.0968326 0)
(-0.086617 0.0943916 0)
(-0.081761 0.0923046 0)
(-0.0746107 0.0905965 0)
(-0.0654882 0.0892413 0)
(-0.0546811 0.0881864 0)
(-0.0424481 0.0873675 0)
(-0.0290223 0.0867177 0)
(-0.0146149 0.0861727 0)
(0.000584248 0.0856748 0)
(0.0164034 0.0851741 0)
(0.0326886 0.0846297 0)
(0.0493022 0.0840092 0)
(0.0661223 0.0832883 0)
(0.0830406 0.0824498 0)
(0.0999622 0.0814828 0)
(0.116803 0.0803816 0)
(0.133492 0.0791448 0)
(0.149964 0.0777743 0)
(0.166165 0.076275 0)
(0.182048 0.0746539 0)
(0.197572 0.0729196 0)
(0.212705 0.0710817 0)
(0.227417 0.0691508 0)
(0.241684 0.067138 0)
(0.255489 0.0650546 0)
(0.268815 0.0629117 0)
(0.281651 0.0607204 0)
(0.293989 0.0584914 0)
(0.305824 0.056235 0)
(0.317153 0.0539608 0)
(0.327976 0.0516777 0)
(0.338294 0.0493939 0)
(0.34811 0.047117 0)
(0.357429 0.0448538 0)
(0.366256 0.0426101 0)
(0.374599 0.0403913 0)
(-0.00936914 0.0518746 0)
(-0.0324792 0.10163 0)
(-0.0584479 0.117955 0)
(-0.0772103 0.119 0)
(-0.0886442 0.114272 0)
(-0.0944396 0.107792 0)
(-0.0957191 0.101195 0)
(-0.0933323 0.0951259 0)
(-0.0879652 0.0898111 0)
(-0.0801587 0.0852907 0)
(-0.0703402 0.0815215 0)
(-0.0588536 0.0784231 0)
(-0.0459807 0.0759002 0)
(-0.0319579 0.0738546 0)
(-0.0169879 0.0721916 0)
(-0.00124704 0.0708235 0)
(0.0151092 0.0696725 0)
(0.0319421 0.0686708 0)
(0.0491277 0.0677614 0)
(0.0665549 0.0668972 0)
(0.0841245 0.0660404 0)
(0.101747 0.0651615 0)
(0.119344 0.0642384 0)
(0.136844 0.0632551 0)
(0.154184 0.062201 0)
(0.171311 0.0610698 0)
(0.188174 0.0598588 0)
(0.204731 0.0585683 0)
(0.220946 0.0572006 0)
(0.236787 0.0557601 0)
(0.252226 0.0542523 0)
(0.267241 0.0526837 0)
(0.281813 0.0510616 0)
(0.295926 0.0493936 0)
(0.309568 0.0476873 0)
(0.32273 0.0459506 0)
(0.335404 0.044191 0)
(0.347588 0.0424159 0)
(0.359277 0.040632 0)
(0.370473 0.038846 0)
(0.381176 0.0370637 0)
(0.39139 0.0352907 0)
(0.401117 0.0335317 0)
(0.410365 0.0317912 0)
(-0.0161149 0.0766295 0)
(-0.0476777 0.131666 0)
(-0.0748233 0.140069 0)
(-0.0883206 0.132371 0)
(-0.0920382 0.120571 0)
(-0.0895901 0.108667 0)
(-0.0828537 0.0979239 0)
(-0.0730725 0.0886634 0)
(-0.0611228 0.0808632 0)
(-0.0476019 0.0743802 0)
(-0.0329149 0.0690398 0)
(-0.0173417 0.0646701 0)
(-0.00108169 0.0611122 0)
(0.0157176 0.0582234 0)
(0.0329412 0.0558776 0)
(0.0504957 0.0539648 0)
(0.0683013 0.05239 0)
(0.0862869 0.0510723 0)
(0.104388 0.0499438 0)
(0.122543 0.0489479 0)
(0.140696 0.0480387 0)
(0.158795 0.0471793 0)
(0.176789 0.0463403 0)
(0.194631 0.0454997 0)
(0.212278 0.0446407 0)
(0.22969 0.0437515 0)
(0.246831 0.0428243 0)
(0.263666 0.0418543 0)
(0.280165 0.0408397 0)
(0.296301 0.0397803 0)
(0.312051 0.038678 0)
(0.327392 0.0375356 0)
(0.342307 0.036357 0)
(0.356779 0.0351466 0)
(0.370797 0.0339094 0)
(0.38435 0.0326504 0)
(0.39743 0.0313749 0)
(0.41003 0.0300879 0)
(0.422146 0.0287945 0)
(0.433778 0.0274993 0)
(0.444923 0.0262069 0)
(0.455583 0.0249212 0)
(0.46576 0.0236461 0)
(0.475458 0.0223848 0)
(-0.0287567 0.116189 0)
(-0.0690165 0.164015 0)
(-0.0825918 0.153748 0)
(-0.0742828 0.133078 0)
(-0.0573343 0.113494 0)
(-0.0368578 0.0968999 0)
(-0.0148151 0.083321 0)
(0.00769426 0.0723668 0)
(0.0300543 0.0635599 0)
(0.0519728 0.0564746 0)
(0.0733431 0.0507709 0)
(0.0941541 0.0461808 0)
(0.114441 0.0424888 0)
(0.134259 0.0395196 0)
(0.153666 0.0371293 0)
(0.17272 0.0351998 0)
(0.191465 0.0336332 0)
(0.209939 0.0323488 0)
(0.228166 0.0312799 0)
(0.246163 0.030372 0)
(0.263935 0.0295804 0)
(0.281482 0.0288694 0)
(0.298795 0.0282106 0)
(0.315864 0.0275817 0)
(0.332672 0.0269655 0)
(0.349201 0.0263493 0)
(0.365433 0.0257239 0)
(0.381347 0.0250829 0)
(0.396924 0.0244224 0)
(0.412144 0.0237405 0)
(0.426989 0.0230365 0)
(0.441441 0.0223111 0)
(0.455486 0.0215659 0)
(0.46911 0.0208029 0)
(0.4823 0.020025 0)
(0.495047 0.019235 0)
(0.507343 0.0184359 0)
(0.51918 0.0176311 0)
(0.530555 0.0168235 0)
(0.541465 0.0160161 0)
(0.551909 0.0152119 0)
(0.561886 0.0144134 0)
(0.571398 0.0136231 0)
(0.58045 0.0128432 0)
(-0.0497847 0.201067 0)
(-0.0660698 0.178625 0)
(-0.0111452 0.128372 0)
(0.0463241 0.0992275 0)
(0.0972356 0.0788874 0)
(0.142275 0.0631941 0)
(0.182211 0.051226 0)
(0.217614 0.0422396 0)
(0.249094 0.0354467 0)
(0.277278 0.030233 0)
(0.302738 0.0261849 0)
(0.325958 0.0230216 0)
(0.347341 0.0205402 0)
(0.367224 0.0185873 0)
(0.385883 0.0170454 0)
(0.403546 0.0158231 0)
(0.420396 0.0148487 0)
(0.436578 0.0140652 0)
(0.452205 0.0134272 0)
(0.467363 0.0128985 0)
(0.482116 0.0124502 0)
(0.496511 0.0120593 0)
(0.510579 0.0117081 0)
(0.524338 0.0113823 0)
(0.537799 0.0110715 0)
(0.550965 0.0107675 0)
(0.563833 0.0104646 0)
(0.576398 0.0101587 0)
(0.588651 0.00984715 0)
(0.600582 0.00952843 0)
(0.61218 0.00920192 0)
(0.623434 0.00886764 0)
(0.634335 0.00852617 0)
(0.644871 0.00817843 0)
(0.655036 0.00782561 0)
(0.664822 0.00746909 0)
(0.674223 0.00711031 0)
(0.683236 0.00675076 0)
(0.691856 0.0063919 0)
(0.700084 0.00603514 0)
(0.70792 0.0056818 0)
(0.715364 0.00533309 0)
(0.722419 0.00499011 0)
(0.729091 0.0046538 0)
(0.22985 0.140366 0)
(0.278866 0.113602 0)
(0.394535 0.0763866 0)
(0.484468 0.0533885 0)
(0.546308 0.0387094 0)
(0.591625 0.0284162 0)
(0.626937 0.0210483 0)
(0.655188 0.0158203 0)
(0.678142 0.0121121 0)
(0.697128 0.00945595 0)
(0.713144 0.00753211 0)
(0.726915 0.00612676 0)
(0.738968 0.00509344 0)
(0.749697 0.00432914 0)
(0.759401 0.00376049 0)
(0.768307 0.00333474 0)
(0.77659 0.0030136 0)
(0.784379 0.00276895 0)
(0.791774 0.00257997 0)
(0.798848 0.00243112 0)
(0.805654 0.00231082 0)
(0.812231 0.00221038 0)
(0.818604 0.00212334 0)
(0.82479 0.00204491 0)
(0.8308 0.0019716 0)
(0.836639 0.0019009 0)
(0.842308 0.00183107 0)
(0.847805 0.00176096 0)
(0.853128 0.00168984 0)
(0.858272 0.00161735 0)
(0.863234 0.00154337 0)
(0.868009 0.00146799 0)
(0.872593 0.00139139 0)
(0.876982 0.00131389 0)
(0.881174 0.00123584 0)
(0.885167 0.00115764 0)
(0.88896 0.00107967 0)
(0.892552 0.00100233 0)
(0.895944 0.000926004 0)
(0.899137 0.000851028 0)
(0.902135 0.000777713 0)
(0.904939 0.000706337 0)
(0.907553 0.000637131 0)
(0.909982 0.000570266 0)
)
;

boundaryField
{
    movingWall
    {
        type            fixedValue;
        value           uniform (1 0 0);
    }
    fixedWalls
    {
        type            noSlip;
    }
    frontAndBack
    {
        type            empty;
    }
    procBoundary2to3
    {
        type            processor;
        value           nonuniform List<vector> 
45
(
(0.13464 0.281449 0)
(0.136693 0.2718 0)
(0.138514 0.261742 0)
(0.140131 0.251394 0)
(0.141568 0.240858 0)
(0.142852 0.23022 0)
(0.144004 0.219549 0)
(0.145043 0.208902 0)
(0.145986 0.19832 0)
(0.146845 0.187831 0)
(0.147628 0.177455 0)
(0.14834 0.167202 0)
(0.148984 0.157076 0)
(0.149558 0.147075 0)
(0.15006 0.137195 0)
(0.150484 0.127428 0)
(0.150825 0.117766 0)
(0.151075 0.1082 0)
(0.000273143 0.012064 0)