/*--------------------------------*- C++ -*----------------------------------*\
  =========                 |
  \\      /  F ield         | OpenFOAM: The Open Source CFD Toolbox
   \\    /   O peration     | Website:  https://openfoam.org
    \\  /    A nd           | Version:  9
     \\/     M anipulation  |
\*---------------------------------------------------------------------------*/
FoamFile
{
    format      ascii;
    class       surfaceScalarField;
    location    "3.25";
    object      phi;
}
// * * * * * * * * * * * * * * * * * * * * * * * * * * * * * * * * * * * * * //

dimensions      [0 3 -1 0 0 0 0];

internalField   nonuniform List<scalar> 
2422
(
-5.55615e-09
3.59676e-07
9.44694e-07
-3.99854e-09
3.63674e-07
-1.83479e-08
9.59043e-07
-4.39217e-08
1.43477e-06
-7.99979e-08
1.80845e-06
-1.24725e-07
2.10146e-06
-1.75756e-07
2.33552e-06
-2.30783e-07
2.5294e-06
-2.87835e-07
2.69691e-06
-3.4539e-07
2.84654e-06
-4.02325e-07
2.9823e-06
-4.57821e-07
3.10502e-06
-5.11261e-07
3.21371e-06
-5.62153e-07
3.30663e-06
-6.10097e-07
3.38196e-06
-6.5477e-07
3.43822e-06
-6.95926e-07
3.47446e-06
-7.33406e-07
3.4903e-06
-7.67142e-07
3.48594e-06
-7.97165e-07
3.46216e-06
-8.23597e-07
3.4202e-06
-8.46649e-07
3.36172e-06
-8.66605e-07
3.28868e-06
-8.83806e-07
3.20323e-06
-8.9863e-07
3.1076e-06
-9.11472e-07
3.00399e-06
-9.22723e-07
2.89445e-06
-9.32754e-07
2.78086e-06
-9.41904e-07
2.66481e-06
-9.50466e-07
2.54763e-06
-9.58686e-07
2.43034e-06
-9.66757e-07
2.31369e-06
-9.74827e-07
2.19818e-06
-9.82996e-07
2.0841e-06
1.97156e-06
-2.44159e-09
3.66116e-07
-1.31288e-08
9.6973e-07
-3.38016e-08
1.45544e-06
-6.44066e-08
1.83905e-06
-1.03521e-07
2.14057e-06
-1.49017e-07
2.38102e-06
-1.98656e-07
2.57904e-06
-2.50458e-07
2.74871e-06
-3.02867e-07
2.89895e-06
-3.54738e-07
3.03417e-06
-4.05249e-07
3.15553e-06
-4.53807e-07
3.26227e-06
-4.99962e-07
3.35278e-06
-5.43359e-07
3.42535e-06
-5.83727e-07
3.47859e-06
-6.20867e-07
3.5116e-06
-6.54661e-07
3.52409e-06
-6.85077e-07
3.51636e-06
-7.12165e-07
3.48925e-06
-7.36062e-07
3.44409e-06
-7.56978e-07
3.38263e-06
-7.75186e-07
3.30689e-06
-7.91004e-07
3.21905e-06
-8.0478e-07
3.12138e-06
-8.1687e-07
3.01608e-06
-8.27622e-07
2.90521e-06
-8.37363e-07
2.7906e-06
-8.46386e-07
2.67383e-06
-8.54943e-07
2.55618e-06
-8.63239e-07
2.43863e-06
-8.71438e-07
2.32189e-06
-8.79657e-07
2.2064e-06
-8.87977e-07
2.09242e-06
-8.96446e-07
1.98003e-06
-9.05087e-07
1.86917e-06
-9.139e-07
1.75972e-06
-9.22876e-07
1.65149e-06
-9.31993e-07
1.54428e-06
-9.41229e-07
1.43787e-06
-9.50559e-07
1.33206e-06
-9.5996e-07
1.22667e-06
-9.69413e-07
1.12154e-06
1.01655e-06
-9.20526e-10
3.67036e-07
-7.90934e-09
9.76719e-07
-2.35977e-08
1.47113e-06
-4.85918e-08
1.86405e-06
-8.19202e-08
2.1739e-06
-1.21706e-07
2.42081e-06
-1.65804e-07
2.62314e-06
-2.12238e-07
2.79515e-06
-2.59424e-07
2.94614e-06
-3.06191e-07
3.08094e-06
-3.51716e-07
3.20106e-06
-3.95424e-07
3.30598e-06
-4.369e-07
3.39426e-06
-4.75837e-07
3.46429e-06
-5.12009e-07
3.51476e-06
-5.45263e-07
3.54486e-06
-5.75517e-07
3.55435e-06
-6.02766e-07
3.54361e-06
-6.2708e-07
3.51356e-06
-6.486e-07
3.46561e-06
-6.67531e-07
3.40156e-06
-6.8413e-07
3.32348e-06
-6.98687e-07
3.23361e-06
-7.11515e-07
3.13421e-06
-7.22929e-07
3.02749e-06
-7.33235e-07
2.91551e-06
-7.42713e-07
2.80008e-06
-7.51613e-07
2.68273e-06
-7.60147e-07
2.56472e-06
-7.68484e-07
2.44697e-06
-7.76758e-07
2.33016e-06
-7.85062e-07
2.21471e-06
-7.9346e-07
2.10082e-06
-8.01986e-07
1.98855e-06
-8.10657e-07
1.87784e-06
-8.19471e-07
1.76853e-06
-8.28417e-07
1.66044e-06
-8.37479e-07
1.55334e-06
-8.46638e-07
1.44703e-06
-8.55876e-07
1.3413e-06
-8.65177e-07
1.23597e-06
-8.74528e-07
1.13089e-06
-8.83922e-07
1.02594e-06
-8.93354e-07
9.21027e-07
-9.02825e-07
8.16066e-07
-9.12337e-07
7.11004e-07
-9.21898e-07
6.05805e-07
-9.31515e-07
5.00439e-07
3.94887e-07
6.20168e-10
3.66416e-07
-2.71697e-09
9.80056e-07
-1.33945e-08
1.48181e-06
-3.26757e-08
1.88333e-06
-6.00768e-08
2.2013e-06
-9.40021e-08
2.45473e-06
-1.32424e-07
2.66156e-06
-1.7339e-07
2.83611e-06
-2.15288e-07
2.98803e-06
-2.56925e-07
3.12258e-06
-2.97472e-07
3.2416e-06
-3.36366e-07
3.34487e-06
-3.73226e-07
3.43112e-06
-4.07787e-07
3.49885e-06
-4.39866e-07
3.54684e-06
-4.6935e-07
3.57434e-06
-4.96192e-07
3.58119e-06
-5.20409e-07
3.56782e-06
-5.42084e-07
3.53523e-06
-5.61359e-07
3.48489e-06
-5.78428e-07
3.41863e-06
-5.93525e-07
3.33858e-06
-6.06913e-07
3.24699e-06
-6.18865e-07
3.14616e-06
-6.29654e-07
3.03828e-06
-6.39542e-07
2.9254e-06
-6.48764e-07
2.8093e-06
-6.57528e-07
2.6915e-06
-6.66008e-07
2.5732e-06
-6.74341e-07
2.4553e-06
-6.82631e-07
2.33845e-06
-6.90954e-07
2.22303e-06
-6.99357e-07
2.10922e-06
-7.07866e-07
1.99706e-06
-7.1649e-07
1.88647e-06
-7.25229e-07
1.77727e-06
-7.34073e-07
1.66928e-06
-7.43011e-07
1.56228e-06
-7.52029e-07
1.45605e-06
-7.61116e-07
1.35038e-06
-7.70263e-07
1.24511e-06
-7.79464e-07
1.14009e-06
-7.88718e-07
1.0352e-06
-7.98026e-07
9.30335e-07
-8.07394e-07
8.25433e-07
-8.16829e-07
7.2044e-07
-8.26342e-07
6.15317e-07
-8.35943e-07
5.1004e-07
4.0459e-07
2.07014e-09
3.64346e-07
2.36421e-09
9.79762e-07
-3.26712e-09
1.48744e-06
-1.67795e-08
1.89684e-06
-3.81396e-08
2.22266e-06
-6.60783e-08
2.48267e-06
-9.871e-08
2.69419e-06
-1.34118e-07
2.87152e-06
-1.70676e-07
3.02459e-06
-2.07167e-07
3.15907e-06
-2.42748e-07
3.27719e-06
-2.76869e-07
3.37899e-06
-3.09176e-07
3.46342e-06
-3.39441e-07
3.52912e-06
-3.67521e-07
3.57492e-06
-3.93341e-07
3.60016e-06
-4.16881e-07
3.60473e-06
-4.38179e-07
3.58912e-06
-4.57325e-07
3.55438e-06
-4.74459e-07
3.50202e-06
-4.8976e-07
3.43393e-06
-5.03437e-07
3.35226e-06
-5.1572e-07
3.25928e-06
-5.26841e-07
3.15728e-06
-5.37033e-07
3.04847e-06
-5.46511e-07
2.93488e-06
-5.55467e-07
2.81826e-06
-5.6407e-07
2.7001e-06
-5.72455e-07
2.58158e-06
-5.80732e-07
2.46358e-06
-5.8898e-07
2.3467e-06
-5.97255e-07
2.2313e-06
-6.05593e-07
2.11756e-06
-6.14012e-07
2.00548e-06
-6.22519e-07
1.89497e-06
-6.31114e-07
1.78587e-06
-6.3979e-07
1.67796e-06
-6.48542e-07
1.57103e-06
-6.57363e-07
1.46487e-06
-6.66247e-07
1.35927e-06
-6.75193e-07
1.25406e-06
-6.84202e-07
1.1491e-06
-6.93278e-07
1.04427e-06
-7.02429e-07
9.39486e-07
-7.11665e-07
8.34669e-07
-7.20997e-07
7.29772e-07
-7.30439e-07
6.24759e-07
-7.40004e-07
5.19606e-07
4.14294e-07
3.47376e-09
3.60872e-07
7.30469e-09
9.75931e-07
6.67638e-09
1.48807e-06
-9.89847e-10
1.90451e-06
-1.62516e-08
2.23792e-06
-3.81037e-08
2.50452e-06
-6.48454e-08
2.72094e-06
-9.46193e-08
2.90129e-06
-1.25794e-07
3.05577e-06
-1.57127e-07
3.1904e-06
-1.87762e-07
3.30782e-06
-2.17152e-07
3.40838e-06
-2.44966e-07
3.49124e-06
-2.71008e-07
3.55516e-06
-2.95174e-07
3.59909e-06
-3.17419e-07
3.62241e-06
-3.3775e-07
3.62506e-06
-3.56221e-07
3.60759e-06
-3.72927e-07
3.57109e-06
-3.87999e-07
3.5171e-06
-4.016e-07
3.44754e-06
-4.13913e-07
3.36457e-06
-4.25129e-07
3.27049e-06
-4.35445e-07
3.1676e-06
-4.45046e-07
3.05808e-06
-4.54105e-07
2.94393e-06
-4.62772e-07
2.82693e-06
-4.71177e-07
2.70851e-06
-4.79422e-07
2.58983e-06
-4.87588e-07
2.47175e-06
-4.95732e-07
2.35484e-06
-5.03895e-07
2.23947e-06
-5.121e-07
2.12577e-06
-5.20363e-07
2.01374e-06
-5.28688e-07
1.9033e-06
-5.37076e-07
1.79426e-06
-5.45526e-07
1.68641e-06
-5.54038e-07
1.57954e-06
-5.6261e-07
1.47344e-06
-5.71245e-07
1.3679e-06
-5.79948e-07
1.26276e-06
-5.88728e-07
1.15788e-06
-5.97593e-07
1.05314e-06
-6.06556e-07
9.4845e-07
-6.15633e-07
8.43746e-07
-6.24838e-07
7.38977e-07
-6.34188e-07
6.34109e-07
-6.437e-07
5.29117e-07
4.23983e-07
4.81114e-09
3.56061e-07
1.20869e-08
9.68656e-07
1.63818e-08
1.48377e-06
1.4501e-08
1.90639e-06
5.43289e-09
2.24699e-06
-1.02432e-08
2.5202e-06
-3.10109e-08
2.7417e-06
-5.50849e-08
2.92537e-06
-8.08392e-08
3.08152e-06
-1.07008e-07
3.21657e-06
-1.32717e-07
3.33353e-06
-1.57417e-07
3.43308e-06
-1.80794e-07
3.51461e-06
-2.02681e-07
3.57705e-06
-2.23005e-07
3.61941e-06
-2.41751e-07
3.64115e-06
-2.58948e-07
3.64226e-06
-2.74662e-07
3.62331e-06
-2.88992e-07
3.58542e-06
-3.02059e-07
3.53016e-06
-3.14005e-07
3.45948e-06
-3.24984e-07
3.37555e-06
-3.35152e-07
3.28066e-06
-3.44665e-07
3.17711e-06
-3.53666e-07
3.06708e-06
-3.62283e-07
2.95255e-06
-3.70628e-07
2.83527e-06
-3.78791e-07
2.71667e-06
-3.86845e-07
2.59788e-06
-3.94842e-07
2.47974e-06
-4.02822e-07
2.36282e-06
-4.1081e-07
2.24745e-06
-4.18822e-07
2.13378e-06
-4.26866e-07
2.02179e-06
-4.3495e-07
1.91138e-06
-4.43075e-07
1.80238e-06
-4.51246e-07
1.69458e-06
-4.59468e-07
1.58777e-06
-4.67746e-07
1.48172e-06
-4.76092e-07
1.37625e-06
-4.84515e-07
1.27119e-06
-4.9303e-07
1.1664e-06
-5.01653e-07
1.06176e-06
-5.10402e-07
9.57199e-07
-5.19295e-07
8.52639e-07
-5.28351e-07
7.48033e-07
-5.3759e-07
6.43348e-07
-5.47029e-07
5.38557e-07
4.33642e-07
6.07208e-09
3.49989e-07
1.66656e-08
9.58062e-07
2.57899e-08
1.47465e-06
2.96773e-08
1.9025e-06
2.67895e-08
2.24988e-06
1.73442e-08
2.52965e-06
2.62099e-09
2.75643e-06
-1.56973e-08
2.94369e-06
-3.59989e-08
3.10182e-06
-5.69991e-08
3.23757e-06
-7.78025e-08
3.35433e-06
-9.78536e-08
3.45313e-06
-1.16844e-07
3.5336e-06
-1.34631e-07
3.59483e-06
-1.51178e-07
3.63596e-06
-1.66486e-07
3.65646e-06
-1.80606e-07
3.65638e-06
-1.93615e-07
3.63632e-06
-2.05611e-07
3.59741e-06
-2.16705e-07
3.54126e-06
-2.27018e-07
3.46979e-06
-2.36674e-07
3.38521e-06
-2.45793e-07
3.28978e-06
-2.54489e-07
3.18581e-06
-2.62865e-07
3.07545e-06
-2.71006e-07
2.96069e-06
-2.78985e-07
2.84325e-06
-2.86857e-07
2.72454e-06
-2.94664e-07
2.60569e-06
-3.02436e-07
2.48752e-06
-3.10192e-07
2.37058e-06
-3.17946e-07
2.25521e-06
-3.25705e-07
2.14154e-06
-3.33476e-07
2.02956e-06
-3.41264e-07
1.91917e-06
-3.49076e-07
1.81019e-06
-3.5692e-07
1.70243e-06
-3.64808e-07
1.59565e-06
-3.72753e-07
1.48966e-06
-3.80771e-07
1.38427e-06
-3.8888e-07
1.2793e-06
-3.971e-07
1.17462e-06
-4.05454e-07
1.07012e-06
-4.13962e-07
9.65707e-07
-4.22648e-07
8.61324e-07
-4.31533e-07
7.56919e-07
-4.40641e-07
6.52455e-07
-4.49991e-07
5.47907e-07
4.43255e-07
7.24788e-09
3.42741e-07
2.1009e-08
9.44301e-07
3.4828e-08
1.46083e-06
4.4404e-08
1.89293e-06
4.7691e-08
2.24659e-06
4.45072e-08
2.53283e-06
3.58784e-08
2.76506e-06
2.33655e-08
2.9562e-06
8.54543e-09
3.11664e-06
-7.28287e-09
3.2534e-06
-2.31999e-08
3.37025e-06
-3.86378e-08
3.46857e-06
-5.32916e-08
3.54826e-06
-6.70184e-08
3.60856e-06
-7.98475e-08
3.64879e-06
-9.17616e-08
3.66837e-06
-1.02843e-07
3.66746e-06
-1.13179e-07
3.64665e-06
-1.22865e-07
3.6071e-06
-1.31998e-07
3.55039e-06
-1.40679e-07
3.47848e-06
-1.49002e-07
3.39353e-06
-1.57052e-07
3.29783e-06
-1.64902e-07
3.19366e-06
-1.72613e-07
3.08316e-06
-1.80232e-07
2.96831e-06
-1.87795e-07
2.85081e-06
-1.95322e-07
2.73207e-06
-2.02826e-07
2.61319e-06
-2.10315e-07
2.495e-06
-2.1779e-07
2.37806e-06
-2.25253e-07
2.26267e-06
-2.32706e-07
2.14899e-06
-2.40151e-07
2.037e-06
-2.47595e-07
1.92661e-06
-2.55048e-07
1.81765e-06
-2.62523e-07
1.7099e-06
-2.70038e-07
1.60317e-06
-2.77612e-07
1.49724e-06
-2.85268e-07
1.39192e-06
-2.93032e-07
1.28706e-06
-3.00929e-07
1.18251e-06
-3.08985e-07
1.07817e-06
-3.17228e-07
9.7395e-07
-3.25684e-07
8.6978e-07
-3.34378e-07
7.65613e-07
-3.43335e-07
6.61412e-07
-3.52578e-07
5.5715e-07
4.52806e-07
8.33116e-09
3.3441e-07
2.50878e-08
9.27544e-07
4.34349e-08
1.44248e-06
5.85878e-08
1.87777e-06
6.80058e-08
2.23717e-06
7.10946e-08
2.52974e-06
6.8599e-08
2.76755e-06
6.19305e-08
2.96287e-06
5.26174e-08
3.12596e-06
4.19653e-08
3.26405e-06
3.09177e-08
3.3813e-06
2.00606e-08
3.47943e-06
9.69166e-09
3.55863e-06
-9.14816e-11
3.61834e-06
-9.17024e-09
3.65787e-06
-1.77103e-08
3.67691e-06
-2.57756e-08
3.67552e-06
-3.34509e-08
3.65433e-06
-4.08276e-08
3.61447e-06
-4.79928e-08
3.55756e-06
-5.50237e-08
3.48551e-06
-6.19853e-08
3.40049e-06
-6.89282e-08
3.30477e-06
-7.58882e-08
3.20062e-06
-8.28859e-08
3.09016e-06
-8.99264e-08
2.97535e-06
-9.70181e-08
2.8579e-06
-1.0414e-07
2.73919e-06
-1.11282e-07
2.62033e-06
-1.18429e-07
2.50215e-06
-1.25567e-07
2.38519e-06
-1.32687e-07
2.26979e-06
-1.39782e-07
2.15608e-06
-1.46854e-07
2.04408e-06
-1.53909e-07
1.93367e-06
-1.60962e-07
1.8247e-06
-1.6803e-07
1.71697e-06
-1.75135e-07
1.61027e-06
-1.82306e-07
1.50441e-06
-1.8957e-07
1.39919e-06
-1.96959e-07
1.29445e-06
-2.04505e-07
1.19006e-06
-2.12239e-07
1.08591e-06
-2.20192e-07
9.81903e-07
-2.28395e-07
8.77983e-07
-2.36876e-07
7.74094e-07
-2.45663e-07
6.70199e-07
-2.5478e-07
5.66268e-07
4.62278e-07
9.31614e-09
3.25094e-07
2.8877e-08
9.07984e-07
5.15554e-08
1.4198e-06
7.2139e-08
1.85719e-06
8.7612e-08
2.2217e-06
9.69584e-08
2.52039e-06
1.00618e-07
2.76389e-06
9.98264e-08
2.96366e-06
9.60445e-08
3.12974e-06
9.0575e-08
3.26952e-06
8.43863e-08
3.38749e-06
7.80896e-08
3.48573e-06
7.20046e-08
3.56471e-06
6.62534e-08
3.6241e-06
6.07845e-08
3.66334e-06
5.55697e-08
3.68213e-06
5.05051e-08
3.68059e-06
4.54899e-08
3.65934e-06
4.04335e-08
3.61953e-06
3.52606e-08
3.56273e-06
2.99144e-08
3.49085e-06
2.43577e-08
3.40605e-06
1.85728e-08
3.31056e-06
1.25604e-08
3.20663e-06
6.33546e-09
3.09638e-06
-7.72149e-11
2.98177e-06
-6.61793e-09
2.86444e-06
-1.32697e-08
2.74584e-06
-1.99882e-08
2.62705e-06
-2.67353e-08
2.5089e-06
-3.34814e-08
2.39194e-06
-4.02054e-08
2.27651e-06
-4.68956e-08
2.16277e-06
-5.35503e-08
2.05073e-06
-6.0177e-08
1.94029e-06
-6.67916e-08
1.83131e-06
-7.34167e-08
1.72359e-06
-8.00811e-08
1.61694e-06
-8.68172e-08
1.51114e-06
-9.36604e-08
1.40603e-06
-1.00648e-07
1.30144e-06
-1.07816e-07
1.19723e-06
-1.15202e-07
1.09329e-06
-1.22842e-07
9.89543e-07
-1.30769e-07
-1.39015e-07
-1.47611e-07
-1.56584e-07
1.01984e-08
3.14896e-07
3.23552e-08
8.85827e-07
5.91397e-08
1.39302e-06
8.49734e-08
1.83136e-06
1.06392e-07
2.20028e-06
1.21955e-07
2.50483e-06
1.31774e-07
2.75407e-06
1.36884e-07
2.95855e-06
1.38655e-07
3.12797e-06
1.38377e-07
3.2698e-06
1.3704e-07
3.38882e-06
1.35282e-07
3.48748e-06
1.33438e-07
3.56656e-06
1.31623e-07
3.62591e-06
1.29817e-07
3.66514e-06
1.27939e-07
3.68401e-06
1.25885e-07
3.68264e-06
1.2355e-07
3.66168e-06
1.20846e-07
3.62223e-06
1.17709e-07
3.56587e-06
1.141e-07
3.49446e-06
1.10009e-07
3.41014e-06
1.05449e-07
3.31512e-06
1.00455e-07
3.21162e-06
9.50808e-08
3.10176e-06
8.9391e-08
2.98746e-06
8.34468e-08
2.87039e-06
7.7327e-08
2.75196e-06
7.1095e-08
2.63329e-06
6.48068e-08
2.51519e-06
5.85073e-08
2.39824e-06
5.22285e-08
2.28279e-06
4.59887e-08
2.16901e-06
3.97925e-08
2.05693e-06
3.36326e-08
1.94645e-06
2.74908e-08
1.83745e-06
2.13403e-08
1.72975e-06
1.51476e-08
1.62313e-06
8.87442e-09
1.51742e-06
2.47961e-09
1.41242e-06
-4.07934e-09
1.308e-06
-1.0845e-08
1.20399e-06
-1.78591e-08
1.10031e-06
9.96845e-07
1.09748e-08
3.03921e-07
3.55045e-08
8.61297e-07
6.61433e-08
1.36238e-06
9.70125e-08
1.80049e-06
1.24234e-07
2.17306e-06
1.45944e-07
2.48312e-06
1.61908e-07
2.73811e-06
1.72933e-07
2.94752e-06
1.80277e-07
3.12062e-06
1.85202e-07
3.26487e-06
1.88713e-07
3.38531e-06
1.91481e-07
3.48472e-06
1.93861e-07
3.56418e-06
1.95979e-07
3.62379e-06
1.97815e-07
3.66331e-06
1.99279e-07
3.68254e-06
2.00255e-07
3.68167e-06
2.00634e-07
3.6613e-06
2.00329e-07
3.62254e-06
1.99286e-07
3.56691e-06
1.97483e-07
3.49626e-06
1.94934e-07
3.41269e-06
1.91679e-07
3.31837e-06
1.87787e-07
3.21551e-06
1.83343e-07
3.1062e-06
1.78444e-07
2.99236e-06
1.73189e-07
2.87564e-06
1.67678e-07
2.75747e-06
1.62e-07
2.63896e-06
1.56232e-07
2.52095e-06
1.50435e-07
2.40404e-06
1.44651e-07
2.28858e-06
1.38905e-07
2.17476e-06
1.33208e-07
2.06262e-06
1.2755e-07
1.95211e-06
1.21914e-07
1.84309e-06
1.16268e-07
1.73539e-06
1.10575e-07
1.62882e-06
1.04792e-07
1.5232e-06
9.88713e-08
1.41835e-06
9.27656e-08
1.3141e-06
8.64271e-08
1.21033e-06
7.98093e-08
1.10692e-06
1.00379e-06
1.16431e-08
2.92278e-07
3.83105e-08
8.3463e-07
7.2527e-08
1.32816e-06
1.08184e-07
1.76483e-06
1.41031e-07
2.14021e-06
1.68788e-07
2.45536e-06
1.90861e-07
2.71604e-06
2.07804e-07
2.93058e-06
2.20738e-07
3.10769e-06
2.30879e-07
3.25473e-06
2.39242e-07
3.37695e-06
2.46529e-07
3.47743e-06
2.53124e-07
3.55758e-06
2.5917e-07
3.61775e-06
2.64651e-07
3.65783e-06
2.69471e-07
3.67772e-06
2.73508e-07
3.67763e-06
2.76646e-07
3.65816e-06
2.78802e-07
3.62038e-06
2.79926e-07
3.56578e-06
2.80012e-07
3.49618e-06
2.79094e-07
3.4136e-06
2.77239e-07
3.32023e-06
2.74544e-07
3.21821e-06
2.71125e-07
3.10962e-06
2.6711e-07
2.99637e-06
2.62628e-07
2.88013e-06
2.57804e-07
2.7623e-06
2.52753e-07
2.64401e-06
2.4757e-07
2.52614e-06
2.42332e-07
2.40928e-06
2.37094e-07
2.29382e-06
2.31888e-07
2.17996e-06
2.26728e-07
2.06778e-06
2.21608e-07
1.95723e-06
2.16508e-07
1.84819e-06
2.11396e-07
1.7405e-06
2.0623e-07
1.63399e-06
2.00962e-07
1.52847e-06
1.9554e-07
1.42377e-06
1.89912e-07
1.31973e-06
1.84025e-07
1.21622e-06
1.77827e-07
1.11312e-06
1.01034e-06
1.22026e-08
2.80075e-07
4.07621e-08
8.0607e-07
7.82575e-08
1.29067e-06
1.18423e-07
1.72466e-06
1.5668e-07
2.10196e-06
1.90353e-07
2.42169e-06
2.18476e-07
2.68791e-06
2.41327e-07
2.90773e-06
2.59862e-07
3.08915e-06
2.75234e-07
3.23936e-06
2.88458e-07
3.36372e-06
3.00265e-07
3.46562e-06
3.11074e-07
3.54677e-06
3.21049e-07
3.60777e-06
3.30186e-07
3.64869e-06
3.38387e-07
3.66952e-06
3.45526e-07
3.67049e-06
3.51483e-07
3.6522e-06
3.56171e-07
3.6157e-06
3.59549e-07
3.56241e-06
3.61622e-07
3.4941e-06
3.62439e-07
3.41279e-06
3.62092e-07
3.32057e-06
3.60703e-07
3.2196e-06
3.58415e-07
3.11191e-06
3.55385e-07
2.9994e-06
3.5177e-07
2.88374e-06
3.47721e-07
2.76635e-06
3.43375e-07
2.64836e-06
3.38847e-07
2.53067e-06
3.34229e-07
2.41389e-06
3.29589e-07
2.29846e-06
3.24969e-07
2.18459e-06
3.20386e-07
2.07237e-06
3.15839e-07
1.96178e-06
3.11307e-07
1.85272e-06
3.06757e-07
1.74505e-06
3.02144e-07
1.6386e-06
2.97416e-07
1.5332e-06
2.92517e-07
1.42867e-06
2.87391e-07
1.32486e-06
2.81978e-07
1.22163e-06
2.76225e-07
1.11888e-06
1.01649e-06
1.26533e-08
2.67422e-07
4.28518e-08
7.75872e-07
8.33074e-08
1.25021e-06
1.2767e-07
1.6803e-06
1.71089e-07
2.05854e-06
2.10512e-07
2.38227e-06
2.44599e-07
2.65383e-06
2.73329e-07
2.879e-06
2.9747e-07
3.06501e-06
3.18088e-07
3.21874e-06
3.36187e-07
3.34562e-06
3.52523e-07
3.44929e-06
3.6755e-07
3.53174e-06
3.81465e-07
3.59386e-06
3.94276e-07
3.63588e-06
4.05892e-07
3.65791e-06
4.16184e-07
3.6602e-06
4.25027e-07
3.64336e-06
4.32334e-07
3.60839e-06
4.38065e-07
3.55668e-06
4.42234e-07
3.48994e-06
4.44905e-07
3.41012e-06
4.46187e-07
3.31929e-06
4.46224e-07
3.21956e-06
4.45186e-07
3.11295e-06
4.43254e-07
3.00133e-06
4.40611e-07
2.88638e-06
4.37433e-07
2.76952e-06
4.33877e-07
2.65192e-06
4.3008e-07
2.53446e-06
4.26149e-07
2.41782e-06
4.22165e-07
2.30244e-06
4.18179e-07
2.18857e-06
4.14216e-07
2.07633e-06
4.10278e-07
1.96572e-06
4.06346e-07
1.85665e-06
4.02386e-07
1.74901e-06
3.98353e-07
1.64264e-06
3.9419e-07
1.53736e-06
3.89838e-07
1.43302e-06
3.85237e-07
1.32946e-06
3.80323e-07
1.22655e-06
3.75036e-07
1.12416e-06
1.02221e-06
1.29964e-08
2.54425e-07
4.45755e-08
7.44293e-07
8.76552e-08
1.20713e-06
1.35876e-07
1.63208e-06
1.84169e-07
2.01024e-06
2.29139e-07
2.3373e-06
2.69073e-07
2.61389e-06
3.03635e-07
2.84444e-06
3.33378e-07
3.03527e-06
3.59256e-07
3.19286e-06
3.82248e-07
3.32263e-06
4.03127e-07
3.42841e-06
4.22386e-07
3.51248e-06
4.40255e-07
3.57599e-06
4.56767e-07
3.61937e-06
4.7184e-07
3.64283e-06
4.85343e-07
3.6467e-06
4.97151e-07
3.63155e-06
5.07172e-07
3.59837e-06
5.15367e-07
3.54848e-06
5.21755e-07
3.48355e-06
5.2641e-07
3.40546e-06
5.29455e-07
3.31625e-06
5.31054e-07
3.21796e-06
5.31397e-07
3.11261e-06
5.30688e-07
3.00204e-06
5.29134e-07
2.88794e-06
5.26933e-07
2.77172e-06
5.24264e-07
2.65458e-06
5.21282e-07
2.53745e-06
5.18111e-07
2.42099e-06
5.14846e-07
2.30571e-06
5.11548e-07
2.19187e-06
5.08251e-07
2.07963e-06
5.04962e-07
1.96901e-06
5.01664e-07
1.85995e-06
4.98325e-07
1.75235e-06
4.94898e-07
1.64606e-06
4.91325e-07
1.54093e-06
4.87545e-07
1.4368e-06
4.83492e-07
1.33351e-06
4.791e-07
1.23094e-06
4.74304e-07
1.12896e-06
1.02747e-06
1.3234e-08
2.41191e-07
4.59325e-08
7.11594e-07
9.12859e-08
1.16178e-06
1.42996e-07
1.58037e-06
1.95842e-07
1.9574e-06
2.46118e-07
2.28702e-06
2.9175e-07
2.56826e-06
3.32071e-07
2.80412e-06
3.67397e-07
2.99994e-06
3.98546e-07
3.16171e-06
4.26449e-07
3.29473e-06
4.51891e-07
3.40297e-06
4.75403e-07
3.48897e-06
4.9725e-07
3.55414e-06
5.17496e-07
3.59912e-06
5.36072e-07
3.62426e-06
5.52853e-07
3.62992e-06
5.67711e-07
3.61669e-06
5.80551e-07
3.58553e-06
5.91332e-07
3.5377e-06
6.00074e-07
3.47481e-06
6.06855e-07
3.39868e-06
6.11812e-07
3.31129e-06
6.15121e-07
3.21465e-06
6.1699e-07
3.11074e-06
6.17643e-07
3.00139e-06
6.17308e-07
2.88827e-06
6.16203e-07
2.77283e-06
6.14528e-07
2.65626e-06
6.12455e-07
2.53952e-06
6.10128e-07
2.42332e-06
6.07653e-07
2.30818e-06
6.05104e-07
2.19442e-06
6.02525e-07
2.08221e-06
5.99928e-07
1.9716e-06
5.97302e-07
1.86258e-06
5.94617e-07
1.75504e-06
5.91826e-07
1.64886e-06
5.8887e-07
1.54389e-06
5.85686e-07
1.43998e-06
5.82206e-07
1.33699e-06
5.78359e-07
1.23478e-06
5.74079e-07
1.13324e-06
1.03225e-06
1.33693e-08
2.27822e-07
4.69257e-08
6.78038e-07
9.41913e-08
1.11451e-06
1.48999e-07
1.52556e-06
2.06037e-07
1.90036e-06
2.61338e-07
2.23172e-06
3.1248e-07
2.51712e-06
3.58461e-07
2.75813e-06
3.99333e-07
2.95907e-06
4.35755e-07
3.12529e-06
4.6859e-07
3.26189e-06
4.98621e-07
3.37293e-06
5.2641e-07
3.46118e-06
5.52266e-07
3.52828e-06
5.76283e-07
3.5751e-06
5.98416e-07
3.60212e-06
6.18547e-07
3.60979e-06
6.36548e-07
3.59869e-06
6.52321e-07
3.56975e-06
6.65818e-07
3.5242e-06
6.77057e-07
3.46357e-06
6.86122e-07
3.38962e-06
6.93151e-07
3.30426e-06
6.98333e-07
3.20947e-06
7.01888e-07
3.10718e-06
7.04056e-07
2.99922e-06
7.05084e-07
2.88724e-06
7.05208e-07
2.77271e-06
7.04647e-07
2.65682e-06
7.03592e-07
2.54057e-06
7.02202e-07
2.42471e-06
7.00598e-07
2.30978e-06
6.98869e-07
2.19615e-06
6.97067e-07
2.08401e-06
6.95214e-07
1.97346e-06
6.93304e-07
1.86449e-06
6.91309e-07
1.75703e-06
6.89186e-07
1.65098e-06
6.86877e-07
1.5462e-06
6.84316e-07
1.44254e-06
6.81434e-07
1.33987e-06
6.78157e-07
1.23806e-06
6.74416e-07
1.13698e-06
1.03652e-06
1.34062e-08
2.14416e-07
4.75613e-08
6.43883e-07
9.63694e-08
1.0657e-06
1.5386e-07
1.46807e-06
2.14697e-07
1.83952e-06
2.74699e-07
2.17172e-06
3.31124e-07
2.46069e-06
3.8263e-07
2.70663e-06
4.2899e-07
2.91271e-06
4.70676e-07
3.08361e-06
5.0846e-07
3.22411e-06
5.43107e-07
3.33829e-06
5.75205e-07
3.42909e-06
6.05104e-07
3.49839e-06
6.32937e-07
3.54727e-06
6.58685e-07
3.57638e-06
6.82244e-07
3.58623e-06
7.03486e-07
3.57745e-06
7.22309e-07
3.55093e-06
7.3866e-07
3.50785e-06
7.52554e-07
3.44967e-06
7.64067e-07
3.3781e-06
7.73344e-07
3.29498e-06
7.80575e-07
3.20224e-06
7.85991e-07
3.10177e-06
7.89844e-07
2.99537e-06
7.92395e-07
2.88469e-06
7.93898e-07
2.7712e-06
7.94587e-07
2.65613e-06
7.94672e-07
2.54049e-06
7.94326e-07
2.42506e-06
7.93689e-07
2.31042e-06
7.92861e-07
2.19697e-06
7.91906e-07
2.08496e-06
7.90855e-07
1.97451e-06
7.8971e-07
1.86563e-06
7.8845e-07
1.75829e-06
7.87033e-07
1.6524e-06
7.85403e-07
1.54783e-06
7.83495e-07
1.44445e-06
7.81238e-07
1.34213e-06
7.78558e-07
1.24074e-06
7.75381e-07
1.14016e-06
1.04027e-06
1.33494e-08
2.01067e-07
4.78485e-08
6.09383e-07
9.78254e-08
1.01573e-06
1.57565e-07
1.40833e-06
2.21774e-07
1.77531e-06
2.86112e-07
2.10738e-06
3.47547e-07
2.39926e-06
4.04406e-07
2.64977e-06
4.56167e-07
2.86095e-06
5.03092e-07
3.03668e-06
5.45834e-07
3.18137e-06
5.85125e-07
3.299e-06
6.21567e-07
3.39264e-06
6.5555e-07
3.4644e-06
6.87249e-07
3.51557e-06
7.16675e-07
3.54695e-06
7.43741e-07
3.55916e-06
7.68326e-07
3.55287e-06
7.90325e-07
3.52893e-06
8.09677e-07
3.4885e-06
8.26386e-07
3.43296e-06
8.40527e-07
3.36396e-06
8.52236e-07
3.28328e-06
8.61708e-07
3.19277e-06
8.69175e-07
3.0943e-06
8.749e-07
2.98964e-06
8.79152e-07
2.88044e-06
8.822e-07
2.76816e-06
8.84293e-07
2.65404e-06
8.85656e-07
2.53912e-06
8.8648e-07
2.42423e-06
8.86918e-07
2.30998e-06
8.87086e-07
2.19681e-06
8.8706e-07
2.08499e-06
8.86882e-07
1.97469e-06
8.86563e-07
1.86595e-06
8.86088e-07
1.75877e-06
8.85421e-07
1.65306e-06
8.84509e-07
1.54874e-06
8.83289e-07
1.44567e-06
8.81688e-07
1.34373e-06
8.79633e-07
1.2428e-06
8.77047e-07
1.14274e-06
1.04346e-06
1.32045e-08
1.87862e-07
4.77998e-08
5.74788e-07
9.85709e-08
9.64957e-07
1.60112e-07
1.34679e-06
2.27234e-07
1.70819e-06
2.95499e-07
2.03912e-06
3.61625e-07
2.33313e-06
4.23622e-07
2.58777e-06
4.80664e-07
2.80391e-06
5.32779e-07
2.98457e-06
5.80479e-07
3.13367e-06
6.24439e-07
3.25504e-06
6.65262e-07
3.35182e-06
7.03373e-07
3.42629e-06
7.3899e-07
3.47995e-06
7.7216e-07
3.51378e-06
8.02818e-07
3.5285e-06
8.30852e-07
3.52483e-06
8.56155e-07
3.50363e-06
8.78658e-07
3.46599e-06
8.98356e-07
3.41327e-06
9.1531e-07
3.34701e-06
9.29651e-07
3.26893e-06
9.41567e-07
3.18085e-06
9.51292e-07
3.08457e-06
9.59091e-07
2.98184e-06
9.65241e-07
2.87429e-06
9.70019e-07
2.76338e-06
9.73689e-07
2.65037e-06
9.76489e-07
2.53632e-06
9.78625e-07
2.4221e-06
9.80266e-07
2.30834e-06
9.81541e-07
2.19553e-06
9.82541e-07
2.08399e-06
9.83319e-07
1.97391e-06
9.83898e-07
1.86537e-06
9.84271e-07
1.75839e-06
9.84407e-07
1.65293e-06
9.84258e-07
1.54889e-06
9.83765e-07
1.44616e-06
9.82857e-07
1.34464e-06
9.81459e-07
1.24419e-06
9.79494e-07
1.14471e-06
1.04607e-06
1.29774e-08
1.74885e-07
4.74304e-08
5.40335e-07
9.86241e-08
9.13763e-07
1.61506e-07
1.28391e-06
2.31056e-07
1.63864e-06
3.028e-07
1.96737e-06
3.73249e-07
2.26268e-06
4.4012e-07
2.5209e-06
5.02281e-07
2.74175e-06
5.59509e-07
2.92734e-06
6.12149e-07
3.08103e-06
6.60795e-07
3.20639e-06
7.06036e-07
3.30658e-06
7.48323e-07
3.384e-06
7.87915e-07
3.44036e-06
8.24898e-07
3.4768e-06
8.59234e-07
3.49417e-06
8.90825e-07
3.49324e-06
9.19564e-07
3.47489e-06
9.45373e-07
3.44018e-06
9.68235e-07
3.3904e-06
9.88198e-07
3.32704e-06
1.00538e-06
3.25175e-06
1.01996e-06
3.16627e-06
1.03216e-06
3.07237e-06
1.04226e-06
2.97175e-06
1.05052e-06
2.86603e-06
1.05723e-06
2.75666e-06
1.06267e-06
2.64493e-06
1.06709e-06
2.53191e-06
1.0707e-06
2.41849e-06
1.07369e-06
2.30535e-06
1.0762e-06
2.19302e-06
1.07835e-06
2.08185e-06
1.08018e-06
1.97207e-06
1.08174e-06
1.86381e-06
1.08304e-06
1.7571e-06
1.08404e-06
1.65192e-06
1.08471e-06
1.54822e-06
1.08499e-06
1.44588e-06
1.08482e-06
1.34481e-06
1.08412e-06
1.2449e-06
1.08281e-06
1.14602e-06
1.04806e-06
1.26747e-08
1.6221e-07
4.6758e-08
5.06252e-07
9.80091e-08
8.62512e-07
1.61768e-07
1.22015e-06
2.33237e-07
1.56717e-06
3.07968e-07
1.89264e-06
3.82322e-07
2.18833e-06
4.5375e-07
2.44947e-06
5.20823e-07
2.67468e-06
5.83051e-07
2.86511e-06
6.4059e-07
3.02349e-06
6.93927e-07
3.15306e-06
7.43618e-07
3.25689e-06
7.90129e-07
3.33749e-06
8.33755e-07
3.39673e-06
8.74623e-07
3.43593e-06
9.12727e-07
3.45606e-06
9.47985e-07
3.45798e-06
9.80292e-07
3.44259e-06
1.00957e-06
3.41091e-06
1.03577e-06
3.3642e-06
1.05895e-06
3.30387e-06
1.07919e-06
3.23151e-06
1.09666e-06
3.1488e-06
1.11158e-06
3.05745e-06
1.1242e-06
2.95913e-06
1.13481e-06
2.85542e-06
1.14369e-06
2.74778e-06
1.15112e-06
2.6375e-06
1.15735e-06
2.52568e-06
1.16262e-06
2.41321e-06
1.16713e-06
2.30084e-06
1.17104e-06
2.18912e-06
1.17445e-06
2.07843e-06
1.17746e-06
1.96906e-06
1.18012e-06
1.86116e-06
1.18242e-06
1.75479e-06
1.18437e-06
1.64998e-06
1.18593e-06
1.54666e-06
1.18704e-06
1.44477e-06
1.18765e-06
1.3442e-06
1.18769e-06
1.24486e-06
1.18707e-06
1.14663e-06
1.0494e-06
1.23035e-08
1.49906e-07
4.58025e-08
4.72753e-07
9.67559e-08
8.11558e-07
1.60923e-07
1.15598e-06
2.33783e-07
1.49431e-06
3.10975e-07
1.81545e-06
3.88765e-07
2.11054e-06
4.64378e-07
2.37386e-06
5.36102e-07
2.60295e-06
6.03174e-07
2.79804e-06
6.6554e-07
2.96112e-06
7.23555e-07
3.09504e-06
7.77721e-07
3.20272e-06
8.28501e-07
3.28671e-06
8.76222e-07
3.34901e-06
9.21049e-07
3.3911e-06
9.6301e-07
3.4141e-06
1.00204e-06
3.41895e-06
1.03806e-06
3.40657e-06
1.07095e-06
3.37801e-06
1.10069e-06
3.33446e-06
1.12728e-06
3.27728e-06
1.15081e-06
3.20799e-06
1.17141e-06
3.1282e-06
1.1893e-06
3.03956e-06
1.20471e-06
2.94371e-06
1.21792e-06
2.84221e-06
1.22921e-06
2.7365e-06
1.23886e-06
2.62785e-06
1.24713e-06
2.5174e-06
1.25428e-06
2.40607e-06
1.2605e-06
2.29462e-06
1.26597e-06
2.18365e-06
1.27082e-06
2.07358e-06
1.27515e-06
1.96473e-06
1.27901e-06
1.85729e-06
1.28244e-06
1.75137e-06
1.28542e-06
1.64699e-06
1.28795e-06
1.54413e-06
1.28997e-06
1.44275e-06
1.29142e-06
1.34275e-06
1.29225e-06
1.24403e-06
1.29238e-06
1.1465e-06
1.05004e-06
1.18707e-08
1.38036e-07
4.45852e-08
4.40038e-07
9.4899e-08
7.61245e-07
1.59011e-07
1.09187e-06
2.3272e-07
1.42061e-06
3.11811e-07
1.73636e-06
3.92518e-07
2.02983e-06
4.71887e-07
2.29449e-06
5.47942e-07
2.5269e-06
6.19652e-07
2.72633e-06
6.86734e-07
2.89404e-06
7.49389e-07
3.03239e-06
8.08039e-07
3.14407e-06
8.63128e-07
3.23162e-06
9.15003e-07
3.29714e-06
9.63865e-07
3.34224e-06
1.00978e-06
3.36819e-06
1.0527e-06
3.37603e-06
1.09255e-06
3.36673e-06
1.12923e-06
3.34133e-06
1.16268e-06
3.301e-06
1.19291e-06
3.24706e-06
1.21995e-06
3.18094e-06
1.24394e-06
3.10421e-06
1.26505e-06
3.01845e-06
1.28352e-06
2.92525e-06
1.29959e-06
2.82614e-06
1.31356e-06
2.72253e-06
1.32569e-06
2.61572e-06
1.33626e-06
2.50683e-06
1.34551e-06
2.39682e-06
1.35367e-06
2.28647e-06
1.3609e-06
2.17641e-06
1.36737e-06
2.06711e-06
1.37318e-06
1.95893e-06
1.3784e-06
1.85207e-06
1.38307e-06
1.74669e-06
1.38721e-06
1.64285e-06
1.3908e-06
1.54054e-06
1.39381e-06
1.43974e-06
1.39619e-06
1.34037e-06
1.39788e-06
1.24234e-06
1.39881e-06
1.14557e-06
1.04995e-06
1.13836e-08
1.26652e-07
4.31287e-08
4.08293e-07
9.24766e-08
7.11897e-07
1.56077e-07
1.02827e-06
2.30083e-07
1.3466e-06
3.10485e-07
1.65596e-06
3.93543e-07
1.94677e-06
4.76176e-07
2.21186e-06
5.56181e-07
2.44689e-06
6.32263e-07
2.65025e-06
7.03905e-07
2.8224e-06
7.71128e-07
2.96516e-06
8.34252e-07
3.08095e-06
8.9368e-07
3.1722e-06
9.49766e-07
3.24105e-06
1.00274e-06
3.28927e-06
1.05269e-06
3.31824e-06
1.09961e-06
3.3291e-06
1.14343e-06
3.3229e-06
1.18406e-06
3.3007e-06
1.22142e-06
3.26364e-06
1.25548e-06
3.21299e-06
1.28628e-06
3.15015e-06
1.31391e-06
3.07658e-06
1.33852e-06
2.99384e-06
1.36033e-06
2.90345e-06
1.37956e-06
1.39649e-06
1.41139e-06
1.42452e-06
1.43614e-06
1.44647e-06
1.4557e-06
1.464e-06
1.47147e-06
1.47822e-06
1.4843e-06
1.48973e-06
1.49451e-06
1.49861e-06
1.502e-06
1.50463e-06
1.50642e-06
1.08495e-08
4.1456e-08
8.95295e-08
1.52173e-07
2.25923e-07
3.07022e-07
3.91822e-07
4.77169e-07
5.60675e-07
6.40801e-07
7.16789e-07
7.88467e-07
8.56027e-07
9.19809e-07
9.80154e-07
1.03731e-06
1.09139e-06
1.14243e-06
1.19036e-06
1.23509e-06
1.27654e-06
1.31466e-06
1.34945e-06
1.38098e-06
1.40937e-06
)
;

boundaryField
{
    movingWall
    {
        type            calculated;