/*--------------------------------*- C++ -*----------------------------------*\
  =========                 |
  \\      /  F ield         | OpenFOAM: The Open Source CFD Toolbox
   \\    /   O peration     | Website:  https://openfoam.org
    \\  /    A nd           | Version:  9
     \\/     M anipulation  |
\*---------------------------------------------------------------------------*/
FoamFile
{
    format      ascii;
    class       volScalarField;
    location    "3";
    object      p;
}
// * * * * * * * * * * * * * * * * * * * * * * * * * * * * * * * * * * * * * //

dimensions      [0 2 -2 0 0 0 0];

internalField   nonuniform List<scalar> 
1250
(
-0.00404239
-0.00430898
-0.00457471
-0.00483667
-0.00509155
-0.00533577
-0.00556543
-0.0057764
-0.0059644
-0.00612507
-0.00625406
-0.00634716
-0.00640041
-0.00641024
-0.00637361
-0.00628815
-0.0061523
-0.00596542
-0.00572793
-0.00544141
-0.00510866
-0.00473376
-0.00432197
-0.00387956
-0.00341489
-0.00293644
-0.00245387
-0.00197753
-0.00151815
-0.00108662
-0.000693581
-0.000349159
-6.25845e-05
-0.00388084
-0.00413735
-0.00439364
-0.00464698
-0.00489433
-0.0051323
-0.00535723
-0.00556522
-0.00575221
-0.00591401
-0.00604644
-0.00614543
-0.00620712
-0.006228
-0.00620506
-0.00613588
-0.00601883
-0.00585315
-0.00563908
-0.00537798
-0.00507241
-0.00472624
-0.00434443
-0.00393259
-0.00349846
-0.00305048
-0.00259784
-0.00215041
-0.00171845
-0.00131239
-0.000942454
-0.000618354
-0.000348954
-0.00375101
-0.00400286
-0.00425547
-0.00450628
-0.00475239
-0.00499054
-0.00521721
-0.00542857
-0.00562061
-0.00578918
-0.00593011
-0.00603926
-0.00611272
-0.00614686
-0.00613852
-0.00608515
-0.00598491
-0.00583684
-0.00564096
-0.00539837
-0.00511147
-0.00478382
-0.00441937
-0.00402534
-0.00360824
-0.00317625
-0.00273846
-0.00230463
-0.00188492
-0.00148965
-0.001129
-0.000812626
-0.000549369
-0.00363803
-0.00388988
-0.00414392
-0.00439773
-0.00464848
-0.00489299
-0.00512773
-0.00534886
-0.0055523
-0.0057338
-0.00588903
-0.00601367
-0.00610358
-0.00615491
-0.00616424
-0.00612875
-0.00604634
-0.00591578
-0.00573686
-0.00551048
-0.00523887
-0.00492573
-0.00457355
-0.00419055
-0.00378312
-0.00335927
-0.00292804
-0.00249921
-0.00208299
-0.00168981
-0.00132996
-0.00101327
-0.000748722
-0.00354574
-0.00380305
-0.0040645
-0.00432774
-0.00458996
-0.00484792
-0.005098
-0.00533622
-0.00555829
-0.00575972
-0.00593588
-0.00608216
-0.0061941
-0.00626751
-0.00629863
-0.00628432
-0.00622219
-0.00611073
-0.00594949
-0.00573918
-0.00548155
-0.00517911
-0.00483849
-0.00446379
-0.00406224
-0.00364208
-0.00321243
-0.00278314
-0.0023646
-0.00196739
-0.00160203
-0.00127857
-0.00100631
-0.00349068
-0.00376068
-0.0040373
-0.00431813
-0.00460024
-0.00488026
-0.00515431
-0.00541812
-0.00566705
-0.00589624
-0.00610065
-0.00627527
-0.00641522
-0.00651591
-0.00657324
-0.00658371
-0.00654463
-0.00645423
-0.00631184
-0.00611798
-0.00587429
-0.00558346
-0.00525077
-0.00488151
-0.00448269
-0.00406246
-0.00363
-0.00319527
-0.00276882
-0.00236145
-0.00198395
-0.00164669
-0.00135933
-0.00349102
-0.00378267
-0.00408382
-0.00439191
-0.00470377
-0.00501567
-0.00532337
-0.00562214
-0.00590689
-0.00617224
-0.00641268
-0.00662272
-0.00679703
-0.00693061
-0.00701898
-0.00705832
-0.00704564
-0.00697893
-0.00685731
-0.00668109
-0.00645183
-0.00617226
-0.00584708
-0.00548183
-0.00508347
-0.00466014
-0.00422104
-0.00377622
-0.00333638
-0.00291256
-0.00251582
-0.0021569
-0.0018459
-0.0035663
-0.00389006
-0.00422652
-0.00457277
-0.00492525
-0.00527975
-0.00563149
-0.00597519
-0.00630516
-0.00661549
-0.00690011
-0.00715305
-0.0073685
-0.00754108
-0.00766594
-0.00773896
-0.00775689
-0.00771747
-0.0076196
-0.00746339
-0.00725025
-0.00698286
-0.0066656
-0.00630395
-0.00590476
-0.00547609
-0.00502713
-0.00456798
-0.00410942
-0.0036627
-0.00323915
-0.00284993
-0.00250562
-0.00373748
-0.00410509
-0.00448871
-0.00488495
-0.00528967
-0.00569806
-0.00610469
-0.00650363
-0.00688858
-0.00725301
-0.00759033
-0.00789405
-0.00815796
-0.00837627
-0.00854382
-0.00865619
-0.00870986
-0.00870235
-0.00863232
-0.00849963
-0.00830543
-0.00805238
-0.00774446
-0.00738696
-0.00698653
-0.00655109
-0.00608969
-0.00561239
-0.00513001
-0.00465392
-0.00419573
-0.00402607
-0.0044502
-0.00489359
-0.00535221
-0.00582124
-0.00629513
-0.00676776
-0.00723249
-0.00768238
-0.00811032
-0.00850919
-0.00887203
-0.00919223
-0.00946365
-0.00968081
-0.009839
-0.00993444
-0.0099644
-0.00992726
-0.00982259
-0.00965124
-0.00941569
-0.0091195
-0.00876765
-0.0083665
-0.00792369
-0.00744804
-0.00694945
-0.00643866
-0.00445323
-0.00494713
-0.0054633
-0.00599697
-0.00654251
-0.00709362
-0.0076434
-0.00818454
-0.00870947
-0.00921049
-0.00968001
-0.0101106
-0.0104953
-0.0108277
-0.0111019
-0.0113129
-0.0114568
-0.0115304
-0.0115319
-0.0114604
-0.0113166
-0.0111025
-0.0108213
-0.0104775
-0.0100771
-0.00962726
-0.00913656
-0.00861452
-0.00807173
-0.00503896
-0.00561607
-0.00621811
-0.00683944
-0.0074736
-0.00811347
-0.00875142
-0.00937945
-0.00998938
-0.010573
-0.0111222
-0.0116292
-0.0120866
-0.0124877
-0.0128264
-0.0130974
-0.0132964
-0.01342
-0.013466
-0.0134334
-0.0133221
-0.0131339
-0.0128715
-0.0125389
-0.0121417
-0.0116864
-0.011181
-0.0106348
-0.0100579
-0.00580135
-0.00647497
-0.00717567
-0.0078969
-0.00863135
-0.00937108
-0.0101077
-0.0108326
-0.011537
-0.0122121
-0.0128494
-0.0134408
-0.0139786
-0.0144557
-0.0148658
-0.0152033
-0.0154635
-0.015643
-0.0157391
-0.0157505
-0.0156768
-0.0155191
-0.0152797
-0.0149622
-0.0145713
-0.0141131
-0.0135951
-0.0130256
-0.0124144
-0.00675586
-0.00753873
-0.00835022
-0.00918285
-0.0100284
-0.0108782
-0.011723
-0.0125537
-0.0133608
-0.0141352
-0.014868
-0.0155505
-0.016175
-0.0167339
-0.0172208
-0.01763
-0.0179565
-0.0181966
-0.0183474
-0.0184073
-0.0183754
-0.0182526
-0.0180405
-0.0177421
-0.0173616
-0.0169043
-0.0163769
-0.015787
-0.0151437
-0.00791463
-0.0088185
-0.0097518
-0.0107061
-0.0116723
-0.0126408
-0.0136019
-0.0145455
-0.015462
-0.0163415
-0.0171749
-0.0179533
-0.0186686
-0.0193132
-0.0198805
-0.0203645
-0.0207604
-0.0210642
-0.0212728
-0.0213843
-0.0213977
-0.0213133
-0.0211324
-0.0208573
-0.0204916
-0.0200397
-0.0195076
-0.0189021
-0.0182312
-0.00928576
-0.0103209
-0.0113855
-0.0124699
-0.0135643
-0.0146582
-0.0157412
-0.0168028
-0.0178326
-0.0188206
-0.0197572
-0.0206335
-0.0214411
-0.0221726
-0.0228211
-0.0233809
-0.0238469
-0.0242152
-0.0244828
-0.0246475
-0.0247082
-0.0246647
-0.024518
-0.02427
-0.0239235
-0.0234822
-0.0229511
-0.0223361
-0.0216442
-0.0108727
-0.0120475
-0.0132505
-0.0144713
-0.0156989
-0.0169223
-0.0181302
-0.0193116
-0.0204558
-0.0215524
-0.0225918
-0.0235649
-0.0244634
-0.0252798
-0.0260077
-0.0266412
-0.0271757
-0.0276072
-0.0279327
-0.0281503
-0.0282585
-0.028257
-0.0281467
-0.0279287
-0.0276054
-0.0271798
-0.026656
-0.0260387
-0.025334
-0.012674
-0.0139942
-0.0153403
-0.0167007
-0.0180636
-0.0194172
-0.0207497
-0.0220495
-0.0233057
-0.0245079
-0.0256462
-0.0267118
-0.0276966
-0.0285934
-0.0293958
-0.0300986
-0.0306972
-0.0311881
-0.0315686
-0.0318367
-0.0319911
-0.0320311
-0.0319578
-0.0317719
-0.0314751
-0.0310698
-0.0305593
-0.0299473
-0.0292388
-0.0146824
-0.0161511
-0.0176417
-0.0191418
-0.0206388
-0.02212
-0.0235732
-0.0249867
-0.0263493
-0.0276506
-0.0288809
-0.0300318
-0.0310954
-0.032065
-0.0329348
-0.0337
-0.0343565
-0.0349011
-0.0353315
-0.0356461
-0.0358436
-0.0359231
-0.0358863
-0.0357332
-0.0354651
-0.0350839
-0.034592
-0.0339925
-0.033289
-0.0168857
-0.0185025
-0.0201359
-0.0217724
-0.0233986
-0.0250015
-0.0265684
-0.0280875
-0.0295477
-0.0309387
-0.0322515
-0.0334778
-0.0346106
-0.0356436
-0.0365717
-0.0373907
-0.0380971
-0.0386882
-0.0391622
-0.0395177
-0.0397538
-0.03987
-0.0398679
-0.0397469
-0.0395084
-0.0391537
-0.0386847
-0.0381037
-0.0374132
-0.0175288
-0.0192664
-0.0210279
-0.0227988
-0.024565
-0.0263126
-0.028028
-0.0296985
-0.0313125
-0.0328589
-0.0343283
-0.0357118
-0.0370021
-0.0381927
-0.0392783
-0.0402544
-0.0411176
-0.041865
-0.0424945
-0.0430049
-0.043395
-0.0436649
-0.0438152
-0.0438435
-0.0437526
-0.0435431
-0.0432161
-0.0427728
-0.0422149
-0.0415441
-0.0199199
-0.021803
-0.0237022
-0.0256024
-0.0274887
-0.0293467
-0.031163
-0.0329248
-0.0346208
-0.0362405
-0.0377751
-0.0392166
-0.0405585
-0.041795
-0.0429219
-0.0439354
-0.0448328
-0.045612
-0.0462718
-0.046811
-0.0472294
-0.047527
-0.0477045
-0.0477613
-0.0476984
-0.0475168
-0.0472173
-0.0468011
-0.0462692
-0.0456226
-0.0224498
-0.0244701
-0.0264975
-0.028516
-0.0305102
-0.0324659
-0.0343694
-0.0362085
-0.0379725
-0.0396517
-0.041238
-0.0427244
-0.0441052
-0.0453759
-0.0465329
-0.0475734
-0.0484956
-0.049298
-0.04998
-0.0505411
-0.0509814
-0.0513013
-0.0515014
-0.051582
-0.0515439
-0.051388
-0.051115
-0.0507258
-0.0502211
-0.0496016
-0.025094
-0.0272408
-0.0293842
-0.0315078
-0.0335962
-0.035635
-0.0376111
-0.039513
-0.0413307
-0.0430554
-0.04468
-0.0461986
-0.0476066
-0.0489004
-0.0500773
-0.0511355
-0.0520738
-0.0528916
-0.0535887
-0.0541652
-0.0546216
-0.0549586
-0.055177
-0.0552773
-0.0552606
-0.0551276
-0.0548791
-0.0545157
-0.0540381
-0.0534465
-0.027826
-0.0300865
-0.0323322
-0.0345466
-0.0367142
-0.0388211
-0.040855
-0.0428051
-0.0446625
-0.0464195
-0.04807
-0.0496093
-0.0510339
-0.052341
-0.053529
-0.0545968
-0.0555439
-0.0563704
-0.0570766
-0.0576631
-0.0581307
-0.0584802
-0.0587128
-0.0588292
-0.0588304
-0.0587174
-0.0584909
-0.0581514
-0.0576994
-0.0571352
-0.0306195
-0.0329795
-0.0353127
-0.0376025
-0.0398341
-0.0419943
-0.0440716
-0.0460562
-0.0479404
-0.0497177
-0.0513831
-0.0529332
-0.0543652
-0.0556775
-0.0568693
-0.0579402
-0.0588904
-0.0597204
-0.060431
-0.0610231
-0.0614978
-0.0618562
-0.0620995
-0.0622287
-0.0622449
-0.0621489
-0.0619416
-0.0616236
-0.0611952
-0.0606567
-0.0334483
-0.0358928
-0.0382983
-0.0406486
-0.0429295
-0.0451287
-0.047236
-0.0492427
-0.0511423
-0.0529296
-0.0546007
-0.0561532
-0.0575855
-0.0588967
-0.0600866
-0.0611557
-0.0621046
-0.0629343
-0.0636458
-0.0642403
-0.0647191
-0.0650836
-0.0653349
-0.0654741
-0.0655025
-0.0654209
-0.0652302
-0.064931
-0.0645237
-0.0640085
-0.036288
-0.0388019
-0.0412647
-0.0436609
-0.0459773
-0.0482028
-0.0503282
-0.0523463
-0.0542516
-0.0560404
-0.0577098
-0.0592584
-0.0606853
-0.0619907
-0.0631749
-0.0642388
-0.0651835
-0.0660102
-0.0667203
-0.0673151
-0.067796
-0.0681644
-0.0684216
-0.0685688
-0.0686072
-0.0685376
-0.0683609
-0.0680779
-0.0676889
-0.0671943
-0.0391159
-0.0416847
-0.0441907
-0.0466195
-0.048959
-0.0511993
-0.0533327
-0.0553532
-0.0572566
-0.0590401
-0.0607023
-0.0622423
-0.0636602
-0.0649566
-0.0661325
-0.0671892
-0.0681279
-0.0689502
-0.0696575
-0.0702513
-0.070733
-0.0711041
-0.0713658
-0.0715194
-0.0715658
-0.0715063
-0.0713415
-0.0710722
-0.070699
-0.0702221
-0.0419123
-0.0445221
-0.0470584
-0.0495079
-0.0518597
-0.0541053
-0.0562383
-0.0582541
-0.0601496
-0.0619232
-0.0635741
-0.0651024
-0.0665089
-0.0677947
-0.068961
-0.0700093
-0.0709414
-0.0717586
-0.0724626
-0.0730549
-0.0735368
-0.0739098
-0.0741751
-0.0743339
-0.0743872
-0.04466
-0.0472983
-0.0498534
-0.0523132
-0.0546683
-0.0569115
-0.0590376
-0.0610433
-0.0629266
-0.0646869
-0.0663241
-0.0678391
-0.0692331
-0.0705074
-0.0716637
-0.0727037
-0.073629
-0.0744413
-0.0751421
-0.0757328
-0.0762148
-0.0765894
-0.0768578
-0.0770211
-0.0770803
-0.0473445
-0.0500003
-0.0525644
-0.0550259
-0.0573769
-0.0596115
-0.0617259
-0.0637177
-0.0655861
-0.0673311
-0.0689535
-0.0704545
-0.0718356
-0.0730987
-0.0742453
-0.0752774
-0.0761966
-0.0770045
-0.0777025
-0.078292
-0.0787743
-0.0791505
-0.0794218
-0.0795892
-0.0796536
-0.0499541
-0.052618
-0.0551827
-0.0576391
-0.0599803
-0.0622019
-0.0643011
-0.0662766
-0.0681285
-0.0698574
-0.0714646
-0.0729517
-0.0743205
-0.075573
-0.0767109
-0.077736
-0.0786499
-0.0794541
-0.0801501
-0.080739
-0.0812219
-0.0816
-0.0818743
-0.0820455
-0.0821146
-0.0524796
-0.0551436
-0.0577023
-0.0601481
-0.0624753
-0.0646807
-0.0667626
-0.0687206
-0.0705554
-0.0722681
-0.0738605
-0.0753345
-0.0766919
-0.0779349
-0.0790651
-0.0800843
-0.080994
-0.0817956
-0.0824904
-0.0830793
-0.0835635
-0.0839438
-0.084221
-0.0843961
-0.0844697
-0.0549138
-0.0575714
-0.060119
-0.0625501
-0.0648604
-0.0670477
-0.0691112
-0.0710512
-0.072869
-0.0745661
-0.0761446
-0.0776065
-0.0789539
-0.0801886
-0.0813124
-0.082327
-0.0832336
-0.0840335
-0.0847279
-0.0853175
-0.0858034
-0.0861863
-0.0864668
-0.0866457
-0.0867237
-0.0572514
-0.0598976
-0.0624302
-0.0648438
-0.0671353
-0.0693035
-0.0713482
-0.0732704
-0.0750719
-0.0767544
-0.0783202
-0.0797714
-0.08111
-0.0823378
-0.0834565
-0.0844676
-0.0853722
-0.0861714
-0.0868661
-0.0874572
-0.0879453
-0.088331
-0.088615
-0.0887979
-0.0594885
-0.0621194
-0.0646342
-0.0670286
-0.0693004
-0.0714491
-0.0734753
-0.0753805
-0.0771667
-0.0788359
-0.0803903
-0.0818321
-0.0831633
-0.0843856
-0.0855004
-0.086509
-0.0874126
-0.0882119
-0.0889077
-0.0895007
-0.0899914
-0.0903804
-0.090668
-0.0908548
-0.0616223
-0.0642353
-0.0667305
-0.0691047
-0.0713564
-0.073486
-0.0754945
-0.0773836
-0.0791557
-0.0808128
-0.0823573
-0.0837911
-0.0851162
-0.0863341
-0.0874461
-0.0884533
-0.0893567
-0.0901568
-0.0908543
-0.0914497
-0.0919433
-0.0636509
-0.0662443
-0.0687189
-0.0710725
-0.0733045
-0.0754156
-0.0774073
-0.0792816
-0.0810409
-0.0826873
-0.0842232
-0.0856503
-0.0869705
-0.0881851
-0.0892953
-0.0903019
-0.0912057
-0.0920072
-0.0927068
-0.0933048
-0.0938017
-0.0655733
-0.0681458
-0.0705995
-0.0729328
-0.0751457
-0.0772392
-0.0792152
-0.081076
-0.0828238
-0.0844609
-0.0859894
-0.087411
-0.0887273
-0.0899396
-0.0910487
-0.0920554
-0.0929601
-0.0937634
-0.0944654
-0.0950664
-0.0955665
-0.0673885
-0.0699398
-0.0723727
-0.0746862
-0.0768808
-0.0789579
-0.0809196
-0.0827681
-0.0845057
-0.0861347
-0.0876569
-0.089074
-0.0903874
-0.091598
-0.0927067
-0.0937139
-0.0946201
-0.0954254
-0.09613
-0.096734
-0.0972374
-0.0690961
-0.0716262
-0.0740388
-0.0763333
-0.0785107
-0.0805726
-0.0825211
-0.0843586
-0.0860872
-0.0877092
-0.0892262
-0.0906397
-0.0919508
-0.0931605
-0.0942693
-0.0952774
-0.0961853
-0.0969928
-0.0977001
-0.098307
-0.0988137
-0.0706955
-0.0732049
-0.075598
-0.0778746
-0.0800359
-0.0820838
-0.0840204
-0.085848
-0.0875688
-0.0891848
-0.0906974
-0.092108
-0.0934176
-0.0946267
-0.0957359
-0.0967453
-0.0976549
-0.0984648
-0.0991747
-0.0997846
-0.100294
-0.0721865
-0.0746759
-0.0770504
-0.0793102
-0.0814567
-0.0834918
-0.0854177
-0.0872366
-0.0889505
-0.0905613
-0.0920703
-0.0934787
-0.0947871
-0.0959962
-0.0971061
-0.0981168
-0.0990284
-0.0998405
-0.100553
-0.101166
-0.101679
-0.0867129
-0.0885241
-0.0902321
-0.0918385
-0.0933445
-0.0947511
-0.0960589
-0.0972681
-0.0983789
-0.0993911
-0.100305
-0.101119
-0.101834
-0.10245
-0.102965
-0.100567
-0.101483
-0.102299
-0.103017
-0.103635
-0.104153
)
;

boundaryField
{
    movingWall
    {
        type            zeroGradient;
    }
    fixedWalls
    {
        type            zeroGradient;
    }
    frontAndBack
    {
        type            empty;
    }
    procBoundary1to0
    {
        type            processor;
        value           nonuniform List<scalar> 
45
(
-0.00377753
-0.00362646
-0.00350211
-0.00339045
-0.00329456
-0.00322924
-0.00321091
-0.00325749
-0.00338853
-0.0036244
-0.00398552
-0.0044915
-0.00516044
-0.00600823
-0.00704782
-0.00828864
-0.00973595
-0.0113904
-0.0132477
-0.0152986
-0.0152986
-0.0158289
-0.0180682
-0.0204527
-0.0229607
-0.0255683
-0.0282505
-0.0309825
-0.0337402
-0.0365011
-0.0392448
-0.041953
-0.0446102
-0.0472032
-0.0497212
-0.0521556
-0.0544996
-0.056748
-0.058897
-0.0609436
-0.0628856
-0.0647217
-0.0664506
-0.0680714
-0.0695833
)
;
    }
    procBoundary1to3
    {
        type            processor;
        value           nonuniform List<scalar> 
23
(
-0.0735686
-0.0760389
-0.0783959
-0.0806402
-0.0827731
-0.0847966
-0.0847966
-0.0879057
-0.0897101
-0.091413
-0.0930157
-0.0945194
-0.0959247
-0.0972321
-0.0984417
-0.0995535
-0.0995535
-0.101644
-0.102562
-0.10338
-0.1041
-0.10472
-0.105241
)
;
    }
    procBoundary1to6
    {
        type            processor;
        value           nonuniform List<scalar> 
26
(
-0.074336
-0.0741813
-0.0739236
-0.0735637
-0.0731018
-0.074336
-0.0770363
-0.0796158
-0.0820825
-0.0844427
-0.0867014
-0.0888801
-0.0888801
-0.0923357
-0.092627
-0.0909412
-0.0928177
-0.0923357
-0.0941975
-0.0959658
-0.0976403
-0.09922
-0.100704
-0.102091
-0.103381
-0.104571
)
;
    }
    procBoundary1to7
    {
        type            processor;
        value           nonuniform List<scalar> 
33
(
0.00015814
-0.000141946
-0.000346901
-0.000544181
-0.000793391
-0.00113041
-0.00159185
-0.00376697
-0.00221584
-0.00337876
-0.0059271
-0.00376697
-0.00542656
-0.0059271
-0.0075195
-0.00946137
-0.0117721
-0.014457
-0.017504
-0.0208834
-0.0245486
-0.0284391
-0.0324857
-0.0366165
-0.0407625
-0.0448628
-0.0488679
-0.0527412
-0.0564587
-0.0600079
-0.0633852
-0.0665939
-0.0696416
)
;
    }
}


// ************************************************************************* //
