/*--------------------------------*- C++ -*----------------------------------*\
  =========                 |
  \\      /  F ield         | OpenFOAM: The Open Source CFD Toolbox
   \\    /   O peration     | Website:  https://openfoam.org
    \\  /    A nd           | Version:  9
     \\/     M anipulation  |
\*---------------------------------------------------------------------------*/
FoamFile
{
    format      ascii;
    class       surfaceScalarField;
    location    "3";
    object      phi;
}
// * * * * * * * * * * * * * * * * * * * * * * * * * * * * * * * * * * * * * //

dimensions      [0 3 -1 0 0 0 0];

internalField   nonuniform List<scalar> 
2420
(
-3.67653e-08
6.40048e-09
-4.36743e-08
6.90903e-09
-5.10819e-08
7.40757e-09
-5.89688e-08
7.88688e-09
-6.73057e-08
8.33694e-09
-7.60527e-08
8.74704e-09
-8.51586e-08
9.10589e-09
-9.45605e-08
9.4019e-09
-1.04184e-07
9.62332e-09
-1.13942e-07
9.75856e-09
-1.23739e-07
9.79646e-09
-1.33465e-07
9.72653e-09
-1.43005e-07
9.53935e-09
-1.52231e-07
9.22676e-09
-1.61014e-07
8.78228e-09
-1.69215e-07
8.20128e-09
-1.76696e-07
7.48134e-09
-1.83319e-07
6.62249e-09
-1.88946e-07
5.6274e-09
-1.93448e-07
4.50186e-09
-1.96703e-07
3.2553e-09
-1.98604e-07
1.90025e-09
-1.99058e-07
4.54722e-10
-1.9797e-07
-1.0885e-09
-1.953e-07
-2.66981e-09
-1.91013e-07
-4.28725e-09
-1.85103e-07
-5.91011e-09
-1.77593e-07
-7.50955e-09
-1.68538e-07
-9.05528e-09
-1.58022e-07
-1.05161e-08
-1.46161e-07
-1.18608e-08
-1.33102e-07
-1.30588e-08
-1.40817e-08
-1.36505e-07
2.5783e-08
-1.57164e-07
2.7568e-08
-1.79034e-07
2.92774e-08
-2.02023e-07
3.08756e-08
-2.26011e-07
3.2325e-08
-2.5085e-07
3.35862e-08
-2.76364e-07
3.46195e-08
-3.02347e-07
3.53852e-08
-3.28568e-07
3.58446e-08
-3.54771e-07
3.5961e-08
-3.80675e-07
3.5701e-08
-4.05984e-07
3.50351e-08
-4.30383e-07
3.39385e-08
-4.53549e-07
3.23925e-08
-4.75152e-07
3.0385e-08
-4.94861e-07
2.7911e-08
-5.12353e-07
2.49734e-08
-5.27315e-07
2.15837e-08
-5.39449e-07
1.77617e-08
-5.48484e-07
1.35371e-08
-5.54179e-07
8.94983e-09
-5.56327e-07
4.04881e-09
-5.54775e-07
-1.09753e-09
-5.49375e-07
-6.48826e-09
-5.40068e-07
-1.1977e-08
-5.26844e-07
-1.75112e-08
-5.09748e-07
-2.3006e-08
-4.88886e-07
-2.83714e-08
-4.64427e-07
-3.35143e-08
-4.36603e-07
-3.83408e-08
-4.05706e-07
-4.27576e-08
-3.72089e-07
-4.66753e-08
-5.00103e-08
-2.59867e-07
5.82094e-08
-2.94095e-07
6.17953e-08
-3.29969e-07
6.51522e-08
-3.67297e-07
6.8203e-08
-4.0584e-07
7.08681e-08
-4.45321e-07
7.30672e-08
-4.85422e-07
7.47209e-08
-5.2579e-07
7.57529e-08
-5.66037e-07
7.60919e-08
-6.05749e-07
7.56733e-08
-6.4449e-07
7.44416e-08
-6.81806e-07
7.23513e-08
-7.17237e-07
6.93693e-08
-7.5032e-07
6.54753e-08
-7.80598e-07
6.06634e-08
-8.0763e-07
5.49426e-08
-8.30993e-07
4.8337e-08
-8.50297e-07
4.08868e-08
-8.65182e-07
3.26476e-08
-8.75336e-07
2.3691e-08
-8.80493e-07
1.41064e-08
-8.80459e-07
4.01508e-09
-8.75027e-07
-6.52949e-09
-8.64152e-07
-1.73634e-08
-8.47794e-07
-2.83348e-08
-8.26001e-07
-3.93042e-08
-7.98891e-07
-5.01159e-08
-7.66656e-07
-6.06065e-08
-7.29561e-07
-7.06094e-08
-6.87944e-07
-7.99573e-08
-6.42216e-07
-8.8486e-08
-5.92853e-07
-9.6038e-08
-1.02467e-07
-4.03995e-07
1.03506e-07
-4.51363e-07
1.09163e-07
-5.00535e-07
1.14323e-07
-5.51188e-07
1.18857e-07
-6.02955e-07
1.22634e-07
-6.55417e-07
1.25529e-07
-7.08115e-07
1.2742e-07
-7.60557e-07
1.28194e-07
-8.12218e-07
1.27754e-07
-8.62558e-07
1.26013e-07
-9.11023e-07
1.22907e-07
-9.57058e-07
1.18386e-07
-1.00011e-06
1.12426e-07
-1.03966e-06
1.0502e-07
-1.07518e-06
9.61881e-08
-1.10621e-06
8.59699e-08
-1.1323e-06
7.44285e-08
-1.15307e-06
6.16487e-08
-1.16815e-06
4.7737e-08
-1.17728e-06
3.28193e-08
-1.18021e-06
1.70361e-08
-1.17683e-06
6.36644e-10
-1.16694e-06
-1.64255e-08
-1.15057e-06
-3.37354e-08
-1.12774e-06
-5.11611e-08
-1.09856e-06
-6.84801e-08
-1.06322e-06
-8.54627e-08
-1.02195e-06
-1.01873e-07
-9.75088e-07
-1.17472e-07
-9.23026e-07
-1.3202e-07
-8.66228e-07
-1.45284e-07
-8.05227e-07
-1.57039e-07
-1.67075e-07
-5.65608e-07
1.61191e-07
-6.25371e-07
1.68926e-07
-6.86813e-07
1.75766e-07
-7.4948e-07
1.81524e-07
-8.12868e-07
1.86022e-07
-8.76428e-07
1.89089e-07
-9.39579e-07
1.90571e-07
-1.00172e-06
1.90331e-07
-1.06222e-06
1.88257e-07
-1.12047e-06
1.84262e-07
-1.17585e-06
1.78286e-07
-1.22776e-06
1.703e-07
-1.27564e-06
1.60303e-07
-1.31894e-06
1.48325e-07
-1.35718e-06
1.34426e-07
-1.3899e-06
1.18691e-07
-1.41671e-06
1.01237e-07
-1.43726e-06
8.22004e-08
-1.45127e-06
6.17458e-08
-1.45851e-06
4.00579e-08
-1.45882e-06
1.73475e-08
-1.45204e-06
-6.14758e-09
-1.4382e-06
-3.02597e-08
-1.41728e-06
-5.46548e-08
-1.38937e-06
-7.90801e-08
-1.35459e-06
-1.03255e-07
-1.31317e-06
-1.26886e-07
-1.26537e-06
-1.49672e-07
-1.21153e-06
-1.71309e-07
-1.15206e-06
-1.91491e-07
-1.08742e-06
-2.0992e-07
-1.01816e-06
-2.26306e-07
-2.40378e-07
-7.41024e-07
2.30448e-07
-8.12111e-07
2.40013e-07
-8.84497e-07
2.48152e-07
-9.57603e-07
2.5463e-07
-1.03081e-06
2.59226e-07
-1.10346e-06
2.61741e-07
-1.17489e-06
2.62003e-07
-1.24443e-06
2.59873e-07
-1.31142e-06
2.55246e-07
-1.37521e-06
2.48053e-07
-1.43519e-06
2.38263e-07
-1.49077e-06
2.25885e-07
-1.54143e-06
2.10961e-07
-1.58668e-06
1.9357e-07
-1.62607e-06
1.73822e-07
-1.65924e-06
1.51859e-07
-1.68585e-06
1.27848e-07
-1.70564e-06
1.01984e-07
-1.71837e-06
7.44836e-08
-1.7239e-06
4.55846e-08
-1.7221e-06
1.55526e-08
-1.7129e-06
-1.53526e-08
-1.69631e-06
-4.6849e-08
-1.67236e-06
-7.86034e-08
-1.64114e-06
-1.10299e-07
-1.6028e-06
-1.416e-07
-1.55753e-06
-1.72158e-07
-1.50558e-06
-2.01617e-07
-1.44728e-06
-2.29614e-07
-1.38298e-06
-2.55783e-07
-1.31314e-06
-2.79763e-07
-1.23825e-06
-3.01201e-07
-3.19763e-07
-9.26326e-07
3.10157e-07
-1.00739e-06
3.2108e-07
-1.08917e-06
3.29932e-07
-1.17098e-06
3.36442e-07
-1.25213e-06
3.40368e-07
-1.33189e-06
3.41504e-07
-1.40957e-06
3.39685e-07
-1.48449e-06
3.34791e-07
-1.55599e-06
3.26747e-07
-1.62346e-06
3.15524e-07
-1.68634e-06
3.01139e-07
-1.7441e-06
2.83651e-07
-1.7963e-06
2.63156e-07
-1.84252e-06
2.39788e-07
-1.8824e-06
2.1371e-07
-1.91566e-06
1.85115e-07
-1.94203e-06
1.54221e-07
-1.96132e-06
1.21268e-07
-1.97335e-06
8.65157e-08
-1.97801e-06
5.02437e-08
-1.97522e-06
1.27591e-08
-1.96491e-06
-2.56547e-08
-1.94711e-06
-6.46511e-08
-1.92184e-06
-1.03877e-07
-1.88916e-06
-1.42973e-07
-1.8492e-06
-1.81562e-07
-1.80211e-06
-2.19249e-07
-1.7481e-06
-2.55629e-07
-1.68742e-06
-2.90287e-07
-1.62041e-06
-3.22801e-07
-1.54742e-06
-3.52749e-07
-1.46891e-06
-3.79715e-07
-4.03296e-07
-1.11755e-06
3.98966e-07
-1.20708e-06
4.10605e-07
-1.29659e-06
4.19447e-07
-1.38536e-06
4.25207e-07
-1.47264e-06
4.27647e-07
-1.55771e-06
4.26579e-07
-1.63989e-06
4.21869e-07
-1.71854e-06
4.13439e-07
-1.79306e-06
4.01265e-07
-1.86291e-06
3.85373e-07
-1.92761e-06
3.65835e-07
-1.98672e-06
3.42768e-07
-2.03989e-06
3.16322e-07
-2.08678e-06
2.86683e-07
-2.12714e-06
2.54062e-07
-2.16072e-06
2.18694e-07
-2.18733e-06
1.80835e-07
-2.20682e-06
1.40758e-07
-2.21906e-06
9.8753e-08
-2.22394e-06
5.51272e-08
-2.2214e-06
1.02151e-08
-2.21137e-06
-3.56822e-08
-2.19384e-06
-8.21795e-08
-2.16881e-06
-1.28907e-07
-2.13631e-06
-1.75474e-07
-2.0964e-06
-2.2147e-07
-2.04919e-06
-2.66464e-07
-1.99481e-06
-3.10009e-07
-1.93345e-06
-3.51641e-07
-1.86537e-06
-3.90886e-07
-1.79086e-06
-4.2726e-07
-1.71029e-06
-1.31087e-06
4.95393e-07
-1.40728e-06
5.07009e-07
-1.50289e-06
5.15061e-07
-1.59696e-06
5.19279e-07
-1.68877e-06
5.19455e-07
-1.77764e-06
5.15444e-07
-1.86293e-06
5.07164e-07
-1.94409e-06
4.94595e-07
-2.0206e-06
4.77774e-07
-2.09201e-06
4.56787e-07
-2.15794e-06
4.31767e-07
-2.21806e-06
4.02882e-07
-2.27207e-06
3.70332e-07
-2.31973e-06
3.34346e-07
-2.36083e-06
2.95169e-07
-2.39521e-06
2.53067e-07
-2.42269e-06
2.08322e-07
-2.44316e-06
1.61227e-07
-2.4565e-06
1.1209e-07
-2.4626e-06
6.12319e-08
-2.46139e-06
9.0011e-09
-2.45279e-06
-4.42842e-08
-2.43674e-06
-9.8224e-08
-2.41322e-06
-1.52434e-07
-2.38219e-06
-2.06504e-07
-2.34366e-06
-2.59997e-07
-2.29767e-06
-3.12454e-07
-2.24429e-06
-3.63392e-07
-2.18362e-06
-4.12305e-07
-2.11584e-06
-1.50277e-06
5.97927e-07
-1.60451e-06
6.08753e-07
-1.70471e-06
6.15254e-07
-1.80263e-06
6.17202e-07
-1.89761e-06
6.14441e-07
-1.98905e-06
6.06885e-07
-2.07641e-06
5.94519e-07
-2.1592e-06
5.77389e-07
-2.23703e-06
5.55595e-07
-2.30952e-06
5.29283e-07
-2.37639e-06
4.98637e-07
-2.43738e-06
4.6387e-07
-2.49227e-06
4.25223e-07
-2.54088e-06
3.82952e-07
-2.58304e-06
3.37329e-07
-2.61861e-06
2.88639e-07
-2.64746e-06
2.37176e-07
-2.66948e-06
1.83246e-07
-2.68456e-06
1.27162e-07
-2.69258e-06
6.92538e-08
-2.69344e-06
9.86727e-09
-2.68707e-06
-5.06585e-08
-2.67336e-06
-1.1193e-07
-2.65225e-06
-1.73552e-07
-2.62365e-06
-2.351e-07
-2.58752e-06
-2.96125e-07
-2.54383e-06
-3.56145e-07
-2.49257e-06
-4.1465e-07
-4.71099e-07
-1.6901e-06
7.05115e-07
-1.79576e-06
7.14418e-07
-1.89919e-06
7.18681e-07
-1.99972e-06
7.17735e-07
-2.09678e-06
7.11493e-07
-2.18983e-06
6.9994e-07
-2.27844e-06
6.8313e-07
-2.36223e-06
6.61175e-07
-2.44086e-06
6.34233e-07
-2.51408e-06
6.02502e-07
-2.58166e-06
5.66208e-07
-2.64339e-06
5.25603e-07
-2.69912e-06
4.80951e-07
-2.7487e-06
4.32532e-07
-2.792e-06
3.80634e-07
-2.82891e-06
3.25551e-07
-2.85932e-06
2.67586e-07
-2.88312e-06
2.07045e-07
-2.90021e-06
1.44247e-07
-2.91047e-06
7.95179e-08
-2.9138e-06
1.31984e-08
-2.9101e-06
-5.43605e-08
-2.89925e-06
-1.22779e-07
-2.88114e-06
-1.91659e-07
-2.85567e-06
-2.60574e-07
-2.82273e-06
-3.29067e-07
-2.78222e-06
-3.96649e-07
-2.73408e-06
-4.62791e-07
-5.26931e-07
-1.87014e-06
8.1561e-07
-1.97845e-06
8.22731e-07
-2.08393e-06
8.24165e-07
-2.18602e-06
8.19817e-07
-2.2842e-06
8.09676e-07
-2.37806e-06
7.93798e-07
-2.46723e-06
7.72306e-07
-2.55142e-06
7.45368e-07
-2.63039e-06
7.13195e-07
-2.70391e-06
6.76026e-07
-2.77183e-06
6.34125e-07
-2.83399e-06
5.87766e-07
-2.89028e-06
5.37239e-07
-2.94058e-06
4.82837e-07
-2.98481e-06
4.24859e-07
-3.02286e-06
3.63606e-07
-3.05466e-06
2.99383e-07
-3.08011e-06
2.32498e-07
-3.09913e-06
1.63265e-07
-3.11162e-06
9.20057e-08
-3.11747e-06
1.90522e-08
-3.11659e-06
-5.52475e-08
-3.10884e-06
-1.30527e-07
-3.0941e-06
-2.06398e-07
-3.07223e-06
-2.82442e-07
-3.04309e-06
-3.58208e-07
-3.00653e-06
-4.33208e-07
-2.96241e-06
-5.06913e-07
-5.78748e-07
-2.04053e-06
9.28183e-07
-2.15034e-06
9.32545e-07
-2.25683e-06
9.30655e-07
-2.35951e-06
9.22496e-07
-2.45797e-06
9.0813e-07
-2.55185e-06
8.87684e-07
-2.64088e-06
8.61337e-07
-2.72483e-06
8.29312e-07
-2.80349e-06
7.91862e-07
-2.87673e-06
7.49263e-07
-2.94441e-06
7.01805e-07
-3.00643e-06
6.4979e-07
-3.06272e-06
5.93524e-07
-3.11319e-06
5.33312e-07
-3.1578e-06
4.69465e-07
-3.19648e-06
4.02288e-07
-3.22919e-06
3.32089e-07
-3.25586e-06
2.59173e-07
-3.27645e-06
1.83848e-07
-3.29087e-06
1.06428e-07
-3.29905e-06
2.72289e-08
-3.30088e-06
-5.34105e-08
-3.29627e-06
-1.35145e-07
-3.28506e-06
-2.17605e-07
-3.26711e-06
-3.00393e-07
-3.24224e-06
-3.83076e-07
-3.21026e-06
-4.65185e-07
-3.17097e-06
-5.462e-07
-6.25557e-07
-2.19921e-06
1.04169e-06
-2.30947e-06
1.0428e-06
-2.41597e-06
1.03716e-06
-2.51832e-06
1.02485e-06
-2.61617e-06
1.00598e-06
-2.70925e-06
9.80758e-07
-2.79732e-06
9.49409e-07
-2.88021e-06
9.12202e-07
-2.95778e-06
8.6943e-07
-3.02992e-06
8.21401e-07
-3.09655e-06
7.68435e-07
-3.15761e-06
7.10856e-07
-3.21308e-06
6.48987e-07
-3.26292e-06
5.83152e-07
-3.30712e-06
5.13668e-07
-3.34568e-06
4.40849e-07
-3.37859e-06
3.65001e-07
-3.40585e-06
2.86429e-07
-3.42743e-06
2.0543e-07
-3.4433e-06
1.22303e-07
-3.45342e-06
3.73473e-08
-3.45771e-06
-4.91186e-08
-3.45608e-06
-1.36774e-07
-3.44841e-06
-2.25284e-07
-3.43452e-06
-3.1428e-07
-3.41423e-06
-4.03363e-07
-3.38733e-06
-4.92091e-07
-3.35355e-06
-5.7998e-07
-6.66485e-07
-2.34436e-06
1.15506e-06
-2.45402e-06
1.15246e-06
-2.55955e-06
1.14269e-06
-2.66061e-06
1.1259e-06
-2.75691e-06
1.10228e-06
-2.84822e-06
1.07208e-06
-2.93438e-06
1.03557e-06
-3.01525e-06
9.93073e-07
-3.09074e-06
9.44919e-07
-3.16079e-06
8.91451e-07
-3.22537e-06
8.33017e-07
-3.28449e-06
7.69968e-07
-3.33815e-06
7.02649e-07
-3.3864e-06
6.31398e-07
-3.42927e-06
5.56546e-07
-3.46683e-06
4.7841e-07
-3.49913e-06
3.97299e-07
-3.52621e-06
3.13509e-07
-3.54811e-06
2.27327e-07
-3.56484e-06
1.39034e-07
-3.5764e-06
4.89042e-08
-3.58274e-06
-4.2773e-08
-3.58381e-06
-1.35702e-07
-3.5795e-06
-2.29598e-07
-3.56965e-06
-3.24129e-07
-3.55407e-06
-4.1894e-07
-3.53253e-06
-5.13637e-07
-3.50473e-06
-6.07778e-07
-7.00863e-07
-2.47431e-06
1.26723e-06
-2.58234e-06
1.26048e-06
-2.68586e-06
1.24622e-06
-2.78459e-06
1.22464e-06
-2.8783e-06
1.19599e-06
-2.96681e-06
1.16058e-06
-3.04999e-06
1.11875e-06
-3.12776e-06
1.07084e-06
-3.20008e-06
1.01724e-06
-3.26696e-06
9.58325e-07
-3.32841e-06
8.94474e-07
-3.38452e-06
8.26069e-07
-3.43535e-06
7.53478e-07
-3.48101e-06
6.77058e-07
-3.52161e-06
5.97149e-07
-3.55727e-06
5.14075e-07
-3.58811e-06
4.2814e-07
-3.61424e-06
3.39633e-07
-3.63574e-06
2.48825e-07
-3.65268e-06
1.55974e-07
-3.6651e-06
6.13273e-08
-3.673e-06
-3.48669e-08
-3.67637e-06
-1.32335e-07
-3.67512e-06
-2.30855e-07
-3.6691e-06
-3.30139e-07
-3.65816e-06
-4.29888e-07
-3.64203e-06
-5.29763e-07
-3.62043e-06
-6.2938e-07
-7.283e-07
-2.58758e-06
1.37711e-06
-2.69291e-06
1.3658e-06
-2.79335e-06
1.34667e-06
-2.88868e-06
1.31996e-06
-2.97871e-06
1.28601e-06
-3.0633e-06
1.24518e-06
-3.14239e-06
1.19784e-06
-3.21595e-06
1.14441e-06
-3.28401e-06
1.0853e-06
-3.34663e-06
1.02095e-06
-3.40391e-06
9.51758e-07
-3.45599e-06
8.78148e-07
-3.50302e-06
8.00508e-07
-3.54517e-06
7.19211e-07
-3.58263e-06
6.34606e-07
-3.61558e-06
5.4702e-07
-3.64419e-06
4.5675e-07
-3.66863e-06
3.64074e-07
-3.68905e-06
2.69243e-07
-3.70556e-06
1.7249e-07
-3.71826e-06
7.40277e-08
-3.72719e-06
-2.59419e-08
-3.73236e-06
-1.27163e-07
-3.73373e-06
-2.29487e-07
-3.73119e-06
-3.32677e-07
-3.72459e-06
-4.36492e-07
-3.71369e-06
-5.40658e-07
-3.69821e-06
-6.44862e-07
-7.48732e-07
-2.68292e-06
1.48365e-06
-2.78446e-06
1.46735e-06
-2.88074e-06
1.44295e-06
-2.97158e-06
1.4108e-06
-3.05683e-06
1.37126e-06
-3.13642e-06
1.32477e-06
-3.21036e-06
1.27177e-06
-3.27867e-06
1.21272e-06
-3.34146e-06
1.14809e-06
-3.39887e-06
1.07835e-06
-3.45107e-06
1.00396e-06
-3.49827e-06
9.25346e-07
-3.54069e-06
8.42931e-07
-3.57858e-06
7.571e-07
-3.61218e-06
6.68207e-07
-3.64174e-06
5.76576e-07
-3.66748e-06
4.82497e-07
-3.68964e-06
3.86228e-07
-3.70839e-06
2.87999e-07
-3.72392e-06
1.88014e-07
-3.73634e-06
8.64527e-08
-3.74574e-06
-1.65422e-08
-3.75219e-06
-1.20717e-07
-3.75566e-06
-2.26014e-07
-3.7561e-06
-3.32241e-07
-3.75337e-06
-4.3922e-07
-3.74728e-06
-5.46747e-07
-3.73756e-06
-6.54582e-07
-7.62434e-07
-2.75932e-06
1.58578e-06
-2.85604e-06
1.56406e-06
-2.94712e-06
1.53404e-06
-3.03243e-06
1.49611e-06
-3.1119e-06
1.45073e-06
-3.18553e-06
1.3984e-06
-3.25338e-06
1.33962e-06
-3.31557e-06
1.27491e-06
-3.37228e-06
1.2048e-06
-3.42372e-06
1.12979e-06
-3.47014e-06
1.05038e-06
-3.51183e-06
9.6703e-07
-3.54907e-06
8.8017e-07
-3.58216e-06
7.90196e-07
-3.61142e-06
6.97462e-07
-3.63713e-06
6.02283e-07
-3.65956e-06
5.04936e-07
-3.67899e-06
4.05658e-07
-3.69565e-06
3.04654e-07
-3.70973e-06
2.02097e-07
-3.72141e-06
9.8133e-08
-3.73079e-06
-7.16868e-09
-3.73798e-06
-1.13522e-07
-3.74301e-06
-2.20989e-07
-3.74583e-06
-3.29414e-07
-3.74638e-06
-4.38677e-07
-3.74448e-06
-5.48643e-07
-3.73991e-06
-6.59148e-07
-7.69985e-07
-2.81618e-06
1.68254e-06
-2.90711e-06
1.65499e-06
-2.99206e-06
1.61898e-06
-3.07095e-06
1.575e-06
-3.1438e-06
1.52358e-06
-3.21068e-06
1.46528e-06
-3.27173e-06
1.40067e-06
-3.32716e-06
1.33034e-06
-3.37722e-06
1.25486e-06
-3.42221e-06
1.17478e-06
-3.46244e-06
1.09061e-06
-3.49825e-06
1.00285e-06
-3.53001e-06
9.11922e-07
-3.55805e-06
8.18235e-07
-3.58272e-06
7.22133e-07
-3.60435e-06
6.23917e-07
-3.62326e-06
5.23844e-07
-3.63973e-06
4.22128e-07
-3.65402e-06
3.18943e-07
-3.66635e-06
2.14433e-07
-3.67694e-06
1.08716e-07
-3.68588e-06
1.77384e-09
-3.69336e-06
-1.06046e-07
-3.69939e-06
-2.14958e-07
-3.70399e-06
-3.24809e-07
-3.70713e-06
-4.35541e-07
-3.70868e-06
-5.47086e-07
-3.70848e-06
-6.59351e-07
-7.7221e-07
-2.76277e-06
1.79774e-06
-2.85329e-06
1.77305e-06
-2.93761e-06
1.73931e-06
-3.01566e-06
1.69703e-06
-3.08744e-06
1.64679e-06
-3.15305e-06
1.58919e-06
-3.21264e-06
1.52487e-06
-3.26645e-06
1.45448e-06
-3.31477e-06
1.37866e-06
-3.35791e-06
1.29801e-06
-3.39625e-06
1.21312e-06
-3.43016e-06
1.12452e-06
-3.46005e-06
1.03273e-06
-3.48629e-06
9.38166e-07
-3.50928e-06
8.41226e-07
-3.52939e-06
7.42243e-07
-3.54697e-06
6.41497e-07
-3.56235e-06
5.39222e-07
-3.57582e-06
4.35603e-07
-3.58767e-06
3.30787e-07
-3.59811e-06
2.24882e-07
-3.60736e-06
1.17964e-07
-3.61565e-06
1.00579e-08
-3.62298e-06
-9.87093e-08
-3.62953e-06
-2.0841e-07
-3.63533e-06
-3.19012e-07
-3.64037e-06
-4.30504e-07
-3.64458e-06
-5.4287e-07
-3.64785e-06
-6.56082e-07
-7.70085e-07
-2.78732e-06
1.88771e-06
-2.87089e-06
1.85663e-06
-2.94798e-06
1.8164e-06
-3.01859e-06
1.76764e-06
-3.0828e-06
1.711e-06
-3.14082e-06
1.6472e-06
-3.19287e-06
1.57693e-06
-3.23929e-06
1.5009e-06
-3.28043e-06
1.41979e-06
-3.31668e-06
1.33426e-06
-3.34848e-06
1.24491e-06
-3.37624e-06
1.15229e-06
-3.4004e-06
1.05689e-06
-3.42138e-06
9.59144e-07
-3.43958e-06
8.59426e-07
-3.45538e-06
7.58047e-07
-3.46914e-06
6.55262e-07
-3.4812e-06
5.51275e-07
-3.49183e-06
4.46242e-07
-3.50133e-06
3.4028e-07
-3.50991e-06
2.33465e-07
-3.51779e-06
1.25842e-07
-3.52516e-06
1.74288e-08
-3.53212e-06
-9.17463e-08
-3.5388e-06
-2.01729e-07
-3.54528e-06
-3.1254e-07
-3.55157e-06
-4.2421e-07
-3.55767e-06
-5.36772e-07
-3.5635e-06
-6.50248e-07
-7.64648e-07
-2.79356e-06
1.97054e-06
-2.86971e-06
1.93277e-06
-2.93916e-06
1.88585e-06
-3.00202e-06
1.8305e-06
-3.05849e-06
1.76747e-06
-3.10883e-06
1.69754e-06
-3.15338e-06
1.62148e-06
-3.19253e-06
1.54005e-06
-3.22671e-06
1.45398e-06
-3.25638e-06
1.36393e-06
-3.282e-06
1.27053e-06
-3.30403e-06
1.17432e-06
-3.32291e-06
1.07578e-06
-3.33909e-06
9.75322e-07
-3.35297e-06
8.73301e-07
-3.36492e-06
7.69994e-07
-3.37528e-06
6.65628e-07
-3.38438e-06
5.60374e-07
-3.3925e-06
4.54357e-07
-3.39988e-06
3.47663e-07
-3.40675e-06
2.40339e-07
-3.41332e-06
1.32405e-07
-3.41974e-06
2.3855e-08
-3.42616e-06
-8.53278e-08
-3.43269e-06
-1.95197e-07
-3.43943e-06
-3.05805e-07
-3.44642e-06
-4.17214e-07
-3.4537e-06
-5.29492e-07
-3.46125e-06
-6.42702e-07
-7.56904e-07
-2.78239e-06
2.04585e-06
-2.85083e-06
2.00121e-06
-2.9125e-06
1.94752e-06
-2.96758e-06
1.88558e-06
-3.01637e-06
1.81626e-06
-3.05922e-06
1.74039e-06
-3.09656e-06
1.65881e-06
-3.12883e-06
1.57233e-06
-3.15653e-06
1.48168e-06
-3.18015e-06
1.38755e-06
-3.20018e-06
1.29055e-06
-3.21709e-06
1.19123e-06
-3.23133e-06
1.09002e-06
-3.24335e-06
9.87334e-07
-3.25351e-06
8.83467e-07
-3.26219e-06
7.78672e-07
-3.2697e-06
6.7314e-07
-3.27634e-06
5.67008e-07
-3.28235e-06
4.60371e-07
-3.28797e-06
3.53283e-07
-3.2934e-06
2.45766e-07
-3.29881e-06
1.37816e-07
-3.30436e-06
2.94066e-08
-3.31018e-06
-7.95058e-08
-3.31639e-06
-1.88986e-07
-3.32309e-06
-2.99108e-07
-3.33035e-06
-4.09954e-07
-3.33823e-06
-5.21615e-07
-3.34674e-06
-6.34185e-07
-7.47756e-07
-2.75504e-06
2.1135e-06
-2.81574e-06
2.06191e-06
-2.8697e-06
2.00147e-06
-2.91721e-06
1.93309e-06
-2.95863e-06
1.85769e-06
-2.99442e-06
1.77618e-06
-3.02506e-06
1.68945e-06
-3.05105e-06
1.59832e-06
-3.07293e-06
1.50355e-06
-3.0912e-06
1.40582e-06
-3.10637e-06
1.30573e-06
-3.11892e-06
1.20377e-06
-3.12928e-06
1.10039e-06
-3.13786e-06
9.95913e-07
-3.14502e-06
8.9063e-07
-3.15109e-06
7.84745e-07
-3.15637e-06
6.78411e-07
-3.16109e-06
5.71732e-07
-3.16549e-06
4.64768e-07
-3.16975e-06
3.57549e-07
-3.17406e-06
2.50071e-07
-3.17855e-06
1.42312e-07
-3.18338e-06
3.42282e-08
-3.18864e-06
-7.424e-08
-3.19446e-06
-1.83167e-07
-3.20093e-06
-2.92636e-07
-3.20814e-06
-4.02744e-07
-3.21617e-06
-5.13592e-07
-3.22506e-06
-6.2529e-07
-7.37955e-07
-2.713e-06
2.17354e-06
-2.76615e-06
2.11507e-06
-2.8127e-06
2.04803e-06
-2.85304e-06
1.97343e-06
-2.88762e-06
1.89227e-06
-2.91696e-06
1.80551e-06
-2.94158e-06
1.71407e-06
-2.96204e-06
1.61878e-06
-2.97888e-06
1.52039e-06
-2.99263e-06
1.41957e-06
-3.00377e-06
1.31687e-06
-3.01278e-06
1.21277e-06
-3.02005e-06
1.10766e-06
-3.02598e-06
1.00183e-06
-3.03087e-06
8.95525e-07
-3.03502e-06
7.88899e-07
-3.03868e-06
6.82071e-07
-3.04206e-06
5.7511e-07
-3.04534e-06
4.68049e-07
-3.04868e-06
3.60889e-07
-3.05222e-06
2.53609e-07
-3.05608e-06
1.46169e-07
-3.06036e-06
3.85143e-08
-3.06518e-06
-6.94239e-08
-3.07062e-06
-1.77724e-07
-3.07678e-06
-2.86476e-07
-3.08375e-06
-3.95775e-07
-3.09161e-06
-5.0573e-07
-3.10045e-06
-6.16455e-07
-7.28076e-07
-2.65795e-06
2.22624e-06
-2.70392e-06
2.16103e-06
-2.74355e-06
2.08766e-06
-2.7773e-06
2.00719e-06
-2.80572e-06
1.92068e-06
-2.82934e-06
1.82914e-06
-2.84875e-06
1.73348e-06
-2.86451e-06
1.63454e-06
-2.87718e-06
1.53306e-06
-2.88726e-06
1.42965e-06
-2.89523e-06
1.32484e-06
-2.90153e-06
1.21907e-06
-2.90652e-06
1.11265e-06
-2.91054e-06
1.00586e-06
-2.91388e-06
8.9886e-07
-2.91677e-06
7.91788e-07
-2.91941e-06
6.84717e-07
-2.92198e-06
5.77683e-07
-2.92462e-06
4.70689e-07
-2.92745e-06
3.63717e-07
-2.93057e-06
2.56728e-07
-2.93407e-06
1.4967e-07
-2.93804e-06
4.24811e-08
-2.94255e-06
-6.49112e-08
-2.94769e-06
-1.72586e-07
-2.95353e-06
-2.8063e-07
-2.96017e-06
-3.89137e-07
-2.96769e-06
-4.98211e-07
-2.97618e-06
-6.07964e-07
-7.1852e-07
-2.59167e-06
2.272e-06
-2.63098e-06
2.20034e-06
-2.66431e-06
2.12098e-06
-2.69219e-06
2.03507e-06
-2.7152e-06
1.94369e-06
-2.73393e-06
1.84787e-06
-2.74898e-06
1.74853e-06
-2.76091e-06
1.64648e-06
-2.77027e-06
1.54241e-06
-2.77754e-06
1.43692e-06
-2.78317e-06
1.33048e-06
-2.78755e-06
1.22344e-06
-2.79101e-06
1.11611e-06
-2.79383e-06
1.00868e-06
-2.79625e-06
9.01282e-07
-2.79847e-06
7.94005e-07
-2.80064e-06
6.86884e-07
-2.80288e-06
5.79927e-07
-2.8053e-06
4.73112e-07
-2.80799e-06
3.66401e-07
-2.811e-06
2.59744e-07
-2.81441e-06
1.5308e-07
-2.81827e-06
4.6343e-08
-2.82265e-06
-6.05392e-08
-2.82759e-06
-1.67642e-07
-2.83317e-06
-2.75046e-07
-2.83947e-06
-3.82837e-07
-2.84658e-06
-4.9111e-07
-2.85457e-06
-5.99967e-07
-7.09523e-07
-2.51596e-06
2.31138e-06
-2.54925e-06
2.23363e-06
-2.57698e-06
2.14872e-06
-2.59976e-06
2.05784e-06
-2.61818e-06
1.96212e-06
-2.63287e-06
1.86256e-06
-2.64442e-06
1.76007e-06
-2.65337e-06
1.65543e-06
-2.66025e-06
1.5493e-06
-2.66552e-06
1.44219e-06
-2.66957e-06
1.33452e-06
-2.67274e-06
1.22662e-06
-2.67532e-06
1.1187e-06
-2.67756e-06
1.01091e-06
-2.67962e-06
9.03345e-07
-2.68166e-06
7.96047e-07
-2.6838e-06
6.8902e-07
-2.68611e-06
5.8224e-07
-2.68867e-06
4.75668e-07
-2.69151e-06
3.6925e-07
-2.6947e-06
2.62925e-07
-2.69824e-06
1.56629e-07
-2.7022e-06
5.02942e-08
-2.70659e-06
-5.61479e-08
-2.71146e-06
-1.62767e-07
-2.71687e-06
-2.72289e-06
-2.72958e-06
-2.73704e-06
-2.43252e-06
2.34502e-06
-2.4605e-06
2.26161e-06
-2.48341e-06
2.17163e-06
-2.50189e-06
2.07632e-06
-2.51655e-06
1.97678e-06
-2.52802e-06
1.87403e-06
-2.53687e-06
1.76893e-06
-2.54364e-06
1.6622e-06
-2.54881e-06
1.55446e-06
-2.55278e-06
1.44616e-06
-2.55591e-06
1.33765e-06
-2.55849e-06
1.2292e-06
-2.56076e-06
1.12097e-06
-2.5629e-06
1.01305e-06
-2.56505e-06
9.05498e-07
-2.56732e-06
7.98314e-07
-2.56977e-06
6.91474e-07
-2.57246e-06
5.84932e-07
-2.57542e-06
4.78629e-07
-2.57868e-06
3.725e-07
-2.58223e-06
2.6648e-07
-2.5861e-06
1.60501e-07
-2.5903e-06
5.44969e-08
-2.59486e-06
-5.15947e-08
-1.57836e-07
-2.34299e-06
2.37359e-06
-2.36639e-06
2.285e-06
-2.38524e-06
2.19049e-06
-2.4002e-06
2.09127e-06
-2.41189e-06
1.98847e-06
-2.42091e-06
1.88305e-06
-2.42782e-06
1.77584e-06
-2.43311e-06
1.6675e-06
-2.43722e-06
1.55856e-06
-2.4405e-06
1.44944e-06
-2.44327e-06
1.34042e-06
-2.44575e-06
1.23169e-06
-2.44815e-06
1.12336e-06
-2.45058e-06
1.01549e-06
-2.45316e-06
9.08078e-07
-2.45595e-06
8.011e-07
-2.45898e-06
6.94502e-07
-2.46227e-06
5.88221e-07
-2.46582e-06
4.82185e-07
-2.46964e-06
3.7632e-07
-2.47372e-06
2.70558e-07
-2.47805e-06
1.6483e-07
-2.48263e-06
5.90753e-08
-2.48746e-06
-4.67625e-08
-1.52736e-07
-2.24881e-06
2.39779e-06
-2.26836e-06
2.30455e-06
-2.2839e-06
2.20603e-06
-2.29608e-06
2.10346e-06
-2.30552e-06
1.99791e-06
-2.31279e-06
1.89032e-06
-2.31841e-06
1.78145e-06
-2.32282e-06
1.67191e-06
-2.32641e-06
1.56216e-06
-2.3295e-06
1.45253e-06
-2.33234e-06
1.34325e-06
-2.33511e-06
1.23446e-06
-2.33795e-06
1.1262e-06
-2.34097e-06
1.0185e-06
-2.34421e-06
9.1132e-07
-2.34771e-06
8.04599e-07
-2.35148e-06
6.98268e-07
-2.3555e-06
5.92247e-07
-2.35977e-06
4.86454e-07
-2.36426e-06
3.80812e-07
-2.36895e-06
2.7525e-07
-2.37383e-06
1.69703e-07
-2.37887e-06
6.41149e-08
-2.38406e-06
-4.15639e-08
-1.47377e-07
-2.15125e-06
2.41833e-06
-2.16765e-06
2.32096e-06
-2.18057e-06
2.21895e-06
-2.19065e-06
2.11353e-06
-2.19848e-06
2.00573e-06
-2.20459e-06
1.89643e-06
-2.20946e-06
1.78632e-06
-2.21348e-06
1.67594e-06
-2.217e-06
1.56568e-06
-2.22028e-06
1.4558e-06
-2.2235e-06
1.34648e-06
-2.22683e-06
1.23778e-06
-2.23034e-06
1.12972e-06
-2.23411e-06
1.02227e-06
-2.23816e-06
9.15366e-07
-2.24248e-06
8.08925e-07
-2.24707e-06
7.02858e-07
-2.2519e-06
5.97075e-07
-2.25694e-06
4.91489e-07
-2.26215e-06
3.86021e-07
-2.26749e-06
2.80599e-07
-2.27296e-06
1.75164e-07
-2.27851e-06
6.96648e-08
-2.28413e-06
-3.59411e-08
-1.41688e-07
-2.05139e-06
2.43584e-06
-2.06529e-06
2.33485e-06
-2.07621e-06
2.22988e-06
-2.08477e-06
2.12209e-06
-2.09153e-06
2.01249e-06
-2.09698e-06
1.90188e-06
-2.10154e-06
1.79088e-06
-2.10557e-06
1.67996e-06
-2.10934e-06
1.56945e-06
-2.11306e-06
1.45953e-06
-2.1169e-06
1.35031e-06
-2.12095e-06
1.24183e-06
-2.12527e-06
1.13404e-06
-2.12988e-06
1.02689e-06
-2.1348e-06
9.20279e-07
-2.13999e-06
8.14115e-07
-2.14542e-06
7.08293e-07
-2.15106e-06
6.02716e-07
-2.15687e-06
4.97294e-07
-2.16279e-06
3.91947e-07
-2.1688e-06
2.86608e-07
-2.17486e-06
1.81222e-07
-2.18094e-06
7.57429e-08
-2.18702e-06
-2.98634e-08
-1.35623e-07
-1.95014e-06
2.45092e-06
-1.9621e-06
2.34681e-06
-1.97156e-06
2.23934e-06
-1.9791e-06
2.12964e-06
-1.98524e-06
2.01863e-06
-1.99042e-06
1.90706e-06
-1.99501e-06
1.79547e-06
-1.99931e-06
1.68427e-06
-2.00356e-06
1.57369e-06
-2.00791e-06
1.46388e-06
-2.01249e-06
1.35489e-06
-2.01735e-06
1.24669e-06
-2.02253e-06
1.13922e-06
-2.02802e-06
1.03238e-06
-2.0338e-06
9.26061e-07
-2.03984e-06
8.20154e-07
-2.04609e-06
7.14546e-07
-2.05251e-06
6.09135e-07
-2.05905e-06
5.03831e-07
-2.06566e-06
3.98557e-07
-2.0723e-06
2.93249e-07
-2.07894e-06
1.87857e-07
-2.08554e-06
8.23422e-08
-2.09208e-06
-2.33232e-08
-1.84818e-06
2.46409e-06
-1.85871e-06
2.35733e-06
-1.86716e-06
2.2478e-06
-1.87409e-06
2.13657e-06
-1.87996e-06
2.0245e-06
-1.88517e-06
1.91226e-06
-1.89003e-06
1.80034e-06
-1.89481e-06
1.68904e-06
-1.89967e-06
1.57856e-06
-1.90475e-06
1.46896e-06
-1.91012e-06
1.36026e-06
-1.91582e-06
1.25239e-06
-1.92184e-06
1.14524e-06
-1.92818e-06
1.03871e-06
-1.93478e-06
9.32668e-07
-1.94162e-06
8.26988e-07
-1.94863e-06
7.21556e-07
-1.95576e-06
6.16269e-07
-1.96297e-06
5.11039e-07
-1.9702e-06
4.05793e-07
-1.97743e-06
3.00472e-07
-1.9846e-06
1.95031e-07
-1.9917e-06
8.94374e-08
-1.63305e-08
-1.74609e-06
2.47582e-06
-1.75559e-06
2.36683e-06
-1.76341e-06
2.25562e-06
-1.77004e-06
2.1432e-06
-1.77591e-06
2.03037e-06
-1.78136e-06
1.91771e-06
-1.78666e-06
1.80564e-06
-1.79201e-06
1.69439e-06
-1.79756e-06
1.58411e-06
-1.8034e-06
1.4748e-06
-1.80956e-06
1.36642e-06
-1.81606e-06
1.25889e-06
-1.82288e-06
1.15207e-06
-1.83e-06
1.04582e-06
-1.83735e-06
9.40022e-07
-1.8449e-06
8.34532e-07
-1.85258e-06
7.29237e-07
-1.86034e-06
6.24035e-07
-1.86814e-06
5.1884e-07
-1.87593e-06
4.13584e-07
-1.88368e-06
3.08215e-07
-1.89134e-06
-1.89889e-06
-1.64426e-06
2.48648e-06
-1.65307e-06
2.37565e-06
-1.66055e-06
2.2631e-06
-1.66713e-06
2.14978e-06
-1.67318e-06
2.03642e-06
-1.67901e-06
1.92354e-06
-1.68483e-06
1.81146e-06
-1.69082e-06
1.70038e-06
-1.69706e-06
1.59035e-06
-1.70363e-06
1.48137e-06
-1.71054e-06
1.37333e-06
-1.71778e-06
1.26613e-06
-1.72532e-06
1.15961e-06
-1.73312e-06
1.05362e-06
-1.74113e-06
9.48029e-07
-1.74929e-06
8.42691e-07
-1.75754e-06
7.37494e-07
-1.76585e-06
6.32339e-07
-1.77416e-06
5.27147e-07
-1.78243e-06
4.21853e-07
3.16411e-07
-1.54298e-06
2.49638e-06
-1.55137e-06
2.38404e-06
-1.55872e-06
2.27045e-06
-1.56541e-06
2.15648e-06
-1.57178e-06
2.04278e-06
-1.57806e-06
1.92982e-06
-1.58444e-06
1.81784e-06
-1.59105e-06
1.70699e-06
-1.59796e-06
1.59727e-06
-1.60521e-06
1.48861e-06
-1.61279e-06
1.38092e-06
-1.62068e-06
1.27402e-06
-1.62885e-06
1.16777e-06
-1.63723e-06
1.06201e-06
-1.64578e-06
9.56581e-07
-1.65445e-06
8.51359e-07
-1.66318e-06
7.46226e-07
-1.67193e-06
6.41089e-07
-1.68066e-06
5.35873e-07
-1.68933e-06
4.30521e-07
3.2499e-07
-1.44243e-06
2.50578e-06
-1.45061e-06
2.39222e-06
-1.45799e-06
2.27782e-06
-1.4649e-06
2.16339e-06
-1.47164e-06
2.04952e-06
-1.4784e-06
1.93658e-06
-1.48533e-06
1.82478e-06
-1.49253e-06
1.71419e-06
-1.50005e-06
1.60478e-06
-1.5079e-06
1.49646e-06
-1.51606e-06
1.38907e-06
-1.52449e-06
1.28246e-06
-1.53317e-06
1.17645e-06
-1.54203e-06
1.07087e-06
-1.55102e-06
9.65573e-07
-1.56009e-06
8.60432e-07
-1.5692e-06
7.55335e-07
-1.57831e-06
6.50193e-07
-1.58737e-06
5.44936e-07
-1.59636e-06
4.39513e-07
3.33887e-07
-1.34274e-06
2.51485e-06
-1.35085e-06
2.40032e-06
-1.35835e-06
2.28532e-06
-1.36554e-06
2.17059e-06
-1.37267e-06
2.05665e-06
-1.3799e-06
1.94381e-06
-1.38734e-06
1.83222e-06
-1.39507e-06
1.72192e-06
-1.40311e-06
1.61282e-06
-1.41146e-06
1.50481e-06
-1.42009e-06
1.39771e-06
-1.42897e-06
1.29134e-06
-1.43805e-06
1.18552e-06
-1.44728e-06
1.08009e-06
-1.4566e-06
9.749e-07
-1.46599e-06
8.69814e-07
-1.47538e-06
7.6473e-07
-1.48475e-06
6.59566e-07
-1.49408e-06
5.54258e-07
-1.50333e-06
4.48761e-07
3.43042e-07
-1.24395e-06
2.52374e-06
-1.25207e-06
2.40844e-06
-1.25975e-06
2.293e-06
-1.26725e-06
2.17808e-06
-1.27476e-06
2.06415e-06
-1.28241e-06
1.95146e-06
-1.29031e-06
1.84011e-06
-1.29848e-06
1.73009e-06
-1.30695e-06
1.62129e-06
-1.3157e-06
1.51356e-06
-1.3247e-06
1.40671e-06
-1.33391e-06
1.30055e-06
-1.34329e-06
1.1949e-06
-1.35278e-06
1.08959e-06
-1.36235e-06
9.84466e-07
-1.37194e-06
8.79413e-07
-1.38154e-06
7.74328e-07
-1.39111e-06
6.69133e-07
-1.40062e-06
5.63772e-07
-1.41007e-06
4.58204e-07
3.52402e-07
-1.14607e-06
2.53252e-06
-1.15426e-06
2.41664e-06
-1.16214e-06
2.30088e-06
-1.16993e-06
2.18587e-06
-1.17778e-06
2.072e-06
-1.1858e-06
1.95949e-06
-1.19406e-06
1.84838e-06
-1.20259e-06
1.73862e-06
-1.21139e-06
1.63009e-06
-1.22044e-06
1.52261e-06
-1.22971e-06
1.41597e-06
-1.23915e-06
1.30999e-06
-1.24872e-06
1.20447e-06
-1.25838e-06
1.09925e-06
-1.2681e-06