/*--------------------------------*- C++ -*----------------------------------*\
  =========                 |
  \\      /  F ield         | OpenFOAM: The Open Source CFD Toolbox
   \\    /   O peration     | Website:  https://openfoam.org
    \\  /    A nd           | Version:  9
     \\/     M anipulation  |
\*---------------------------------------------------------------------------*/
FoamFile
{
    format      ascii;
    class       volVectorField;
    location    "3";
    object      U;
}
// * * * * * * * * * * * * * * * * * * * * * * * * * * * * * * * * * * * * * //

dimensions      [0 1 -1 0 0 0 0];

internalField   nonuniform List<vector> 
1250
(
(-0.00334491 0.000152896 0)
(-0.00401071 0.000168423 0)
(-0.00472708 0.000184163 0)
(-0.00549257 0.00019988 0)
(-0.00630478 0.000215303 0)
(-0.00716025 0.000230127 0)
(-0.00805442 0.000244018 0)
(-0.00898159 0.000256611 0)
(-0.00993488 0.00026752 0)
(-0.0109062 0.000276345 0)
(-0.0118865 0.000282675 0)
(-0.0128653 0.000286103 0)
(-0.0138314 0.000286232 0)
(-0.0147726 0.000282689 0)
(-0.0156761 0.000275137 0)
(-0.0165283 0.000263287 0)
(-0.0173154 0.000246909 0)
(-0.0180235 0.000225849 0)
(-0.0186387 0.000200041 0)
(-0.0191477 0.000169533 0)
(-0.0195378 0.000134529 0)
(-0.0197976 9.53631e-05 0)
(-0.0199169 5.23613e-05 0)
(-0.0198864 6.05935e-06 0)
(-0.0196991 -4.3324e-05 0)
(-0.0193513 -9.46392e-05 0)
(-0.0188409 -0.000146911 0)
(-0.0181689 -0.000199142 0)
(-0.0173389 -0.000250245 0)
(-0.016358 -0.000299064 0)
(-0.0152362 -0.000344418 0)
(-0.0139867 -0.000385135 0)
(-0.0126257 -0.000420105 0)
(-0.0126502 0.00126925 0)
(-0.0146538 0.00136685 0)
(-0.0167824 0.00146205 0)
(-0.0190282 0.00155303 0)
(-0.0213806 0.00163785 0)
(-0.0238262 0.00171441 0)
(-0.0263487 0.00178055 0)
(-0.0289291 0.00183404 0)
(-0.0315455 0.00187267 0)
(-0.0341734 0.00189424 0)
(-0.0367859 0.0018967 0)
(-0.039354 0.0018781 0)
(-0.0418472 0.00183677 0)
(-0.0442333 0.00177126 0)
(-0.0464795 0.00168049 0)
(-0.0485529 0.00156372 0)
(-0.0504204 0.00142068 0)
(-0.05205 0.00125153 0)
(-0.0534112 0.00105697 0)
(-0.0544754 0.00083822 0)
(-0.0552166 0.000597159 0)
(-0.0556129 0.000335999 0)
(-0.0556456 5.70318e-05 0)
(-0.0552997 -0.000234226 0)
(-0.0545648 -0.000535342 0)
(-0.0534374 -0.000841618 0)
(-0.0519191 -0.00114797 0)
(-0.0500177 -0.00144907 0)
(-0.0477466 -0.00173934 0)
(-0.0451261 -0.0020131 0)
(-0.0421823 -0.00226464 0)
(-0.0389478 -0.00248848 0)
(-0.0354605 -0.00267943 0)
(-0.02432 0.0038691 0)
(-0.0276562 0.00412756 0)
(-0.0311659 0.00437343 0)
(-0.0348316 0.0046014 0)
(-0.0386318 0.00480593 0)
(-0.0425406 0.00498127 0)
(-0.0465283 0.00512165 0)
(-0.0505611 0.00522136 0)
(-0.054602 0.00527494 0)
(-0.0586107 0.00527727 0)
(-0.0625444 0.00522374 0)
(-0.0663585 0.00511042 0)
(-0.0700072 0.00493411 0)
(-0.0734441 0.00469254 0)
(-0.076623 0.00438441 0)
(-0.0794989 0.00400951 0)
(-0.0820283 0.00356877 0)
(-0.0841704 0.00306431 0)
(-0.0858875 0.00249949 0)
(-0.087146 0.0018789 0)
(-0.0879168 0.00120843 0)
(-0.0881768 0.000495003 0)
(-0.0879059 -0.000254322 0)
(-0.0870914 -0.00102751 0)
(-0.0857288 -0.00181558 0)
(-0.0838187 -0.00260772 0)
(-0.0813693 -0.00339193 0)
(-0.0783962 -0.00415571 0)
(-0.0749221 -0.00488621 0)
(-0.0709774 -0.00557049 0)
(-0.0665994 -0.00619582 0)
(-0.0618328 -0.00674998 0)
(-0.0567283 -0.00722162 0)
(-0.0380811 0.00777754 0)
(-0.0427206 0.00823727 0)
(-0.0475551 0.00866387 0)
(-0.0525553 0.00904719 0)
(-0.0576864 0.00937685 0)
(-0.062909 0.00964248 0)
(-0.0681791 0.009834 0)
(-0.073449 0.00994181 0)
(-0.0786676 0.00995711 0)
(-0.0837815 0.00987213 0)
(-0.0887356 0.00968033 0)
(-0.0934743 0.00937664 0)
(-0.0979422 0.00895762 0)
(-0.102085 0.00842157 0)
(-0.10585 0.00776862 0)
(-0.109189 0.00700083 0)
(-0.112055 0.00612218 0)
(-0.114406 0.00513856 0)
(-0.116206 0.00405779 0)
(-0.117422 0.00288946 0)
(-0.11803 0.00164468 0)
(-0.11801 0.000336783 0)
(-0.117347 -0.00101681 0)
(-0.116033 -0.00240325 0)
(-0.11407 -0.00380443 0)
(-0.111466 -0.00520167 0)
(-0.108234 -0.00657551 0)
(-0.104396 -0.00790582 0)
(-0.0999808 -0.0091722 0)
(-0.095024 -0.0103542 0)
(-0.0895689 -0.0114319 0)
(-0.0836654 -0.0123861 0)
(-0.0773702 -0.013199 0)
(-0.0536211 0.0129443 0)
(-0.059503 0.0136181 0)
(-0.0655742 0.0142257 0)
(-0.071792 0.0147513 0)
(-0.0781082 0.0151791 0)
(-0.0844699 0.0154943 0)
(-0.0908206 0.0156825 0)
(-0.0971006 0.0157311 0)
(-0.103248 0.015629 0)
(-0.109201 0.0153669 0)
(-0.114898 0.0149382 0)
(-0.120277 0.0143384 0)
(-0.12528 0.0135658 0)
(-0.129852 0.0126212 0)
(-0.133941 0.011508 0)
(-0.137499 0.0102325 0)
(-0.140484 0.0088032 0)
(-0.142859 0.00723124 0)
(-0.144593 0.00553 0)
(-0.14566 0.00371499 0)
(-0.146039 0.00180356 0)
(-0.145717 -0.000184512 0)
(-0.144686 -0.00222538 0)
(-0.142946 -0.00429969 0)
(-0.140501 -0.00638242 0)
(-0.137361 -0.0084479 0)
(-0.133545 -0.0104697 0)
(-0.129076 -0.0124208 0)
(-0.123985 -0.0142738 0)
(-0.118308 -0.0160014 0)
(-0.112091 -0.0175768 0)
(-0.105382 -0.0189743 0)
(-0.0982389 -0.0201699 0)
(-0.0705886 0.0193166 0)
(-0.0776186 0.0201918 0)
(-0.0848065 0.0209542 0)
(-0.0920965 0.0215822 0)
(-0.0994283 0.0220556 0)
(-0.106738 0.0223555 0)
(-0.113959 0.0224648 0)
(-0.121025 0.0223694 0)
(-0.127868 0.0220577 0)
(-0.134423 0.0215214 0)
(-0.140626 0.0207555 0)
(-0.146418 0.0197585 0)
(-0.151743 0.0185322 0)
(-0.156549 0.0170817 0)
(-0.160791 0.0154154 0)
(-0.164427 0.0135447 0)
(-0.167423 0.0114837 0)
(-0.169748 0.00924914 0)
(-0.171378 0.00686021 0)
(-0.172294 0.00433829 0)
(-0.172482 0.00170693 0)
(-0.171932 -0.00100853 0)
(-0.170641 -0.00378232 0)
(-0.168612 -0.00658465 0)
(-0.16585 -0.0093856 0)
(-0.162367 -0.012154 0)
(-0.15818 -0.0148576 0)
(-0.153312 -0.0174632 0)
(-0.147791 -0.0199374 0)
(-0.141651 -0.0222465 0)
(-0.134933 -0.0243574 0)
(-0.127683 -0.0262381 0)
(-0.119955 -0.0278583 0)
(-0.0886065 0.0267974 0)
(-0.0966612 0.027837 0)
(-0.104821 0.0287042 0)
(-0.113018 0.0293732 0)
(-0.121184 0.0298203 0)
(-0.129247 0.0300246 0)
(-0.137137 0.0299686 0)
(-0.144784 0.0296388 0)
(-0.152121 0.0290256 0)
(-0.159084 0.0281237 0)
(-0.165615 0.0269322 0)
(-0.171659 0.025454 0)
(-0.177168 0.023696 0)
(-0.182098 0.0216689 0)
(-0.186411 0.0193864 0)
(-0.190074 0.0168653 0)
(-0.193061 0.0141252 0)
(-0.195347 0.0111881 0)
(-0.196916 0.00807804 0)
(-0.197752 0.00482121 0)
(-0.197846 0.00144581 0)
(-0.197191 -0.00201842 0)
(-0.195785 -0.00554091 0)
(-0.193629 -0.00908777 0)
(-0.190729 -0.0126245 0)
(-0.187093 -0.0161151 0)
(-0.182735 -0.0195224 0)
(-0.177674 -0.0228081 0)
(-0.171932 -0.025933 0)
(-0.165539 -0.0288579 0)
(-0.158529 -0.0315435 0)
(-0.150942 -0.0339515 0)
(-0.142827 -0.036045 0)
(-0.107289 0.0352601 0)
(-0.116224 0.0364066 0)
(-0.125195 0.0373112 0)
(-0.134128 0.0379454 0)
(-0.142949 0.0382844 0)
(-0.151584 0.0383081 0)
(-0.159964 0.0380008 0)
(-0.168022 0.0373523 0)
(-0.175694 0.036357 0)
(-0.182926 0.0350147 0)
(-0.189664 0.0333298 0)
(-0.195864 0.0313108 0)
(-0.201487 0.0289705 0)
(-0.206497 0.0263247 0)
(-0.210865 0.0233926 0)
(-0.214566 0.0201957 0)
(-0.21758 0.0167581 0)
(-0.219888 0.0131058 0)
(-0.221476 0.0092666 0)
(-0.222334 0.00527005 0)
(-0.222451 0.00114751 0)
(-0.221823 -0.00306801 0)
(-0.220444 -0.00734252 0)
(-0.218315 -0.0116394 0)
(-0.215437 -0.0159207 0)
(-0.211814 -0.0201466 0)
(-0.207454 -0.0242759 0)
(-0.20237 -0.0282658 0)
(-0.196578 -0.0320721 0)
(-0.190099 -0.03565 0)
(-0.182961 -0.0389543 0)
(-0.175198 -0.0419401 0)
(-0.166849 -0.0445639 0)
(-0.126258 0.04456 0)
(-0.13592 0.0457425 0)
(-0.14554 0.0466072 0)
(-0.155043 0.0471258 0)
(-0.164355 0.0472752 0)
(-0.173406 0.0470383 0)
(-0.182129 0.0464039 0)
(-0.190465 0.0453668 0)
(-0.19836 0.0439275 0)
(-0.205767 0.0420916 0)
(-0.212643 0.0398695 0)
(-0.218953 0.0372755 0)
(-0.224665 0.0343274 0)
(-0.229754 0.0310462 0)
(-0.234197 0.027455 0)
(-0.237974 0.0235793 0)
(-0.24107 0.0194461 0)
(-0.24347 0.015084 0)
(-0.245162 0.0105233 0)
(-0.246136 0.00579564 0)
(-0.246382 0.000934168 0)
(-0.245892 -0.00402612 0)
(-0.24466 -0.00904918 0)
(-0.242681 -0.0140964 0)
(-0.239952 -0.0191273 0)
(-0.236474 -0.0240993 0)
(-0.232246 -0.0289679 0)
(-0.227275 -0.0336862 0)
(-0.221569 -0.0382056 0)
(-0.215142 -0.0424761 0)
(-0.208012 -0.0464466 0)
(-0.145162 0.054545 0)
(-0.155396 0.0556864 0)
(-0.165512 0.0564326 0)
(-0.175435 0.0567581 0)
(-0.185097 0.0566441 0)
(-0.194433 0.0560788 0)
(-0.203386 0.0550573 0)
(-0.211905 0.0535806 0)
(-0.219945 0.0516558 0)
(-0.227469 0.0492946 0)
(-0.234444 0.0465129 0)
(-0.240843 0.0433303 0)
(-0.246641 0.039769 0)
(-0.25182 0.0358534 0)
(-0.256362 0.0316098 0)
(-0.260251 0.027066 0)
(-0.263475 0.0222508 0)
(-0.26602 0.0171946 0)
(-0.267877 0.0119286 0)
(-0.269033 0.00648542 0)
(-0.269479 0.000899211 0)
(-0.269205 -0.00479431 0)
(-0.268202 -0.0105578 0)
(-0.266462 -0.0163514 0)
(-0.263977 -0.0221331 0)
(-0.260742 -0.0278584 0)
(-0.25675 -0.0334801 0)
(-0.252002 -0.0389481 0)
(-0.246498 -0.04421 0)
(-0.163681 0.0650653 0)
(-0.174343 0.0660894 0)
(-0.184816 0.0666436 0)
(-0.19503 0.0667077 0)
(-0.204923 0.0662692 0)
(-0.214441 0.0653231 0)
(-0.223535 0.0638713 0)
(-0.232163 0.0619218 0)
(-0.240292 0.0594877 0)
(-0.247891 0.0565863 0)
(-0.254935 0.0532386 0)
(-0.261405 0.0494679 0)
(-0.267281 0.0452997 0)
(-0.272549 0.0407611 0)
(-0.277196 0.0358802 0)
(-0.281209 0.0306862 0)
(-0.284577 0.0252089 0)
(-0.28729 0.0194791 0)
(-0.289336 0.0135287 0)
(-0.290705 0.0073904 0)
(-0.291387 0.00109848 0)
(-0.29137 -0.00531136 0)
(-0.290644 -0.0118012 0)
(-0.289198 -0.0183309 0)
(-0.287021 -0.0248577 0)
(-0.284102 -0.0313359 0)
(-0.280431 -0.0377167 0)
(-0.276 -0.0439479 0)
(-0.270802 -0.049974 0)
(-0.181538 0.0759802 0)
(-0.192496 0.0768166 0)
(-0.203201 0.0771147 0)
(-0.213593 0.076861 0)
(-0.223619 0.0760504 0)
(-0.233231 0.0746853 0)
(-0.242391 0.0727746 0)
(-0.251066 0.0703325 0)
(-0.259229 0.0673775 0)
(-0.266858 0.0639319 0)
(-0.273934 0.0600202 0)
(-0.280441 0.055669 0)
(-0.286366 0.0509061 0)
(-0.291698 0.0457602 0)
(-0.296426 0.0402607 0)
(-0.300541 0.0344375 0)
(-0.304036 0.028321 0)
(-0.306899 0.0219421 0)
(-0.309125 0.0153324 0)
(-0.310702 0.00852452 0)
(-0.31162 0.00155217 0)
(-0.311871 -0.00554941 0)
(-0.311441 -0.0127427 0)
(-0.310319 -0.0199882 0)
(-0.308492 -0.0272433 0)
(-0.305944 -0.0344624 0)
(-0.302662 -0.0415961 0)
(-0.298631 -0.0485913 0)
(-0.293837 -0.0553906 0)
(-0.198489 0.0871611 0)
(-0.209624 0.0877481 0)
(-0.220453 0.0877361 0)
(-0.230923 0.0871194 0)
(-0.240989 0.0859005 0)
(-0.250614 0.084089 0)
(-0.259767 0.0817 0)
(-0.268421 0.0787533 0)
(-0.276555 0.0752722 0)
(-0.284154 0.0712827 0)
(-0.291202 0.0668124 0)
(-0.297689 0.0618904 0)
(-0.303606 0.0565462 0)
(-0.308945 0.0508101 0)
(-0.3137 0.0447122 0)
(-0.317865 0.0382832 0)
(-0.321436 0.0315535 0)
(-0.324405 0.024554 0)
(-0.326769 0.0173159 0)
(-0.328521 0.00987101 0)
(-0.329652 0.00225206 0)
(-0.330154 -0.00550674 0)
(-0.330018 -0.0133693 0)
(-0.329229 -0.0212976 0)
(-0.327775 -0.0292503 0)
(-0.325638 -0.0371831 0)
(-0.322799 -0.0450476 0)
(-0.319241 -0.0527911 0)
(-0.314941 -0.0603559 0)
(-0.214325 0.0984905 0)
(-0.225527 0.0987748 0)
(-0.236376 0.0984075 0)
(-0.246829 0.0973909 0)
(-0.256847 0.0957349 0)
(-0.2664 0.0934553 0)
(-0.275462 0.090573 0)
(-0.284014 0.0871125 0)
(-0.29204 0.0831014 0)
(-0.299527 0.0785687 0)
(-0.306467 0.073545 0)
(-0.312852 0.0680616 0)
(-0.318679 0.0621497 0)
(-0.323944 0.0558411 0)
(-0.328646 0.0491669 0)
(-0.332784 0.0421582 0)
(-0.336357 0.0348456 0)
(-0.339365 0.0272598 0)
(-0.341807 0.0194311 0)
(-0.34368 0.0113904 0)
(-0.34498 0.00316875 0)
(-0.345702 -0.00520146 0)
(-0.345837 -0.0136863 0)
(-0.345375 -0.0222502 0)
(-0.3443 -0.0308545 0)
(-0.342596 -0.0394574 0)
(-0.340241 -0.0480129 0)
(-0.337213 -0.0564703 0)
(-0.333484 -0.0647738 0)
(-0.228859 0.109859 0)
(-0.240023 0.109793 0)
(-0.250792 0.109031 0)
(-0.26113 0.107582 0)
(-0.271004 0.105463 0)
(-0.28039 0.102696 0)
(-0.289267 0.0993052 0)
(-0.297622 0.0953213 0)
(-0.305441 0.0907749 0)
(-0.312719 0.0856986 0)
(-0.319451 0.0801258 0)
(-0.325635 0.07409 0)
(-0.331272 0.0676247 0)
(-0.336366 0.0607631 0)
(-0.34092 0.0535373 0)
(-0.34494 0.0459792 0)
(-0.348431 0.0381194 0)
(-0.351399 0.029988 0)
(-0.353846 0.0216145 0)
(-0.355777 0.013028 0)
(-0.357191 0.00425764 0)
(-0.358087 -0.00466691 0)
(-0.358459 -0.0137147 0)
(-0.358299 -0.0228534 0)
(-0.357595 -0.0320484 0)
(-0.356328 -0.0412614 0)
(-0.354478 -0.0504505 0)
(-0.352018 -0.0595688 0)
(-0.348917 -0.0685637 0)
(-0.241927 0.121159 0)
(-0.252946 0.1207 0)
(-0.263532 0.119507 0)
(-0.273652 0.117594 0)
(-0.28328 0.114986 0)
(-0.292394 0.111709 0)
(-0.300981 0.107795 0)
(-0.30903 0.103276 0)
(-0.316535 0.0981877 0)
(-0.323494 0.0925666 0)
(-0.329909 0.0864488 0)
(-0.335784 0.0798709 0)
(-0.341128 0.0728685 0)
(-0.345949 0.0654763 0)
(-0.350259 0.0577281 0)
(-0.354069 0.0496558 0)
(-0.357391 0.0412902 0)
(-0.360236 0.0326607 0)
(-0.362614 0.0237953 0)
(-0.364534 0.0147211 0)
(-0.366001 0.00546457 0)
(-0.367017 -0.00394773 0)
(-0.367582 -0.0134886 0)
(-0.367689 -0.0231301 0)
(-0.367329 -0.032842 0)
(-0.366486 -0.0425912 0)
(-0.365138 -0.052341 0)
(-0.363259 -0.0620496 0)
(-0.360816 -0.0716697 0)
(-0.25338 0.132285 0)
(-0.264149 0.131391 0)
(-0.274445 0.129729 0)
(-0.284239 0.127321 0)
(-0.293511 0.124196 0)
(-0.302244 0.120388 0)
(-0.310429 0.115931 0)
(-0.318062 0.110865 0)
(-0.325141 0.105229 0)
(-0.331673 0.0990621 0)
(-0.337664 0.0924057 0)
(-0.343128 0.0852986 0)
(-0.348079 0.077779 0)
(-0.352533 0.0698834 0)
(-0.356509 0.0616464 0)
(-0.360024 0.0531005 0)
(-0.363097 0.0442761 0)
(-0.365745 0.0352014 0)
(-0.367984 0.0259027 0)
(-0.369827 0.0164048 0)
(-0.371286 0.00673092 0)
(-0.372366 -0.00309602 0)
(-0.373071 -0.013053 0)
(-0.373399 -0.0231171 0)
(-0.373343 -0.0332633 0)
(-0.37289 -0.0434644 0)
(-0.372021 -0.0536898 0)
(-0.37071 -0.0639043 0)
(-0.368923 -0.0740672 0)
(-0.263092 0.143129 0)
(-0.273504 0.141757 0)
(-0.283402 0.139588 0)
(-0.292762 0.136652 0)
(-0.301569 0.132982 0)
(-0.309812 0.128619 0)
(-0.317487 0.123603 0)
(-0.324598 0.117979 0)
(-0.33115 0.11179 0)
(-0.337155 0.105081 0)
(-0.34263 0.0978965 0)
(-0.347594 0.0902779 0)
(-0.352068 0.0822659 0)
(-0.356077 0.0738988 0)
(-0.359645 0.0652118 0)
(-0.362796 0.0562375 0)
(-0.365555 0.0470055 0)
(-0.367945 0.0375425 0)
(-0.369985 0.0278728 0)
(-0.371695 0.0180182 0)
(-0.373089 0.00799868 0)
(-0.374178 -0.00216684 0)
(-0.374969 -0.0124597 0)
(-0.375466 -0.0228626 0)
(-0.375663 -0.033356 0)
(-0.375552 -0.043919 0)
(-0.375117 -0.0545278 0)
(-0.374333 -0.0651545 0)
(-0.373171 -0.075766 0)
(-0.270965 0.153585 0)
(-0.280914 0.151692 0)
(-0.290309 0.148978 0)
(-0.299131 0.14548 0)
(-0.307371 0.141238 0)
(-0.315025 0.136299 0)
(-0.322096 0.13071 0)
(-0.328594 0.124521 0)
(-0.334534 0.11778 0)
(-0.339934 0.110537 0)
(-0.34482 0.10284 0)
(-0.349218 0.0947328 0)
(-0.353156 0.086259 0)
(-0.356665 0.0774573 0)
(-0.359774 0.0683634 0)
(-0.362515 0.0590094 0)
(-0.364915 0.0494236 0)
(-0.367001 0.039631 0)
(-0.3688 0.0296533 0)
(-0.370332 0.0195094 0)
(-0.371616 0.00921584 0)
(-0.372665 -0.00121282 0)
(-0.373492 -0.0117629 0)
(-0.374103 -0.0224216 0)
(-0.374496 -0.0331756 0)
(-0.374667 -0.04401 0)
(-0.374604 -0.0549081 0)
(-0.374287 -0.0658497 0)
(-0.37369 -0.0768098 0)
(-0.276932 0.16355 0)
(-0.286321 0.161094 0)
(-0.295118 0.157799 0)
(-0.303311 0.153708 0)
(-0.310896 0.14887 0)
(-0.317879 0.143339 0)
(-0.324271 0.137168 0)
(-0.330089 0.130413 0)
(-0.335356 0.123128 0)
(-0.3401 0.115366 0)
(-0.344352 0.107179 0)
(-0.348145 0.0986134 0)
(-0.351514 0.0897134 0)
(-0.354494 0.0805185 0)
(-0.35712 0.0710641 0)
(-0.359427 0.0613812 0)
(-0.361446 0.0514964 0)
(-0.363208 0.0414325 0)
(-0.364739 0.0312084 0)
(-0.366065 0.0208401 0)
(-0.367206 0.0103407 0)
(-0.368179 -0.000279511 0)
(-0.368998 -0.0110141 0)
(-0.369672 -0.0218512 0)
(-0.370204 -0.0327839 0)
(-0.370592 -0.0438038 0)
(-0.37083 -0.0549008 0)
(-0.370903 -0.0660622 0)
(-0.370789 -0.0772714 0)
(-0.271607 0.17509 0)
(-0.280965 0.172931 0)
(-0.28971 0.169873 0)
(-0.297829 0.165963 0)
(-0.305319 0.161254 0)
(-0.312185 0.155804 0)
(-0.31844 0.149671 0)
(-0.324103 0.142918 0)
(-0.329201 0.135605 0)
(-0.333765 0.127791 0)
(-0.337829 0.119534 0)
(-0.341431 0.110887 0)
(-0.34461 0.101898 0)
(-0.347406 0.0926127 0)
(-0.349857 0.0830696 0)
(-0.352003 0.0733031 0)
(-0.353878 0.0633425 0)
(-0.355518 0.0532124 0)
(-0.356953 0.0429328 0)
(-0.358212 0.0325198 0)
(-0.359321 0.0219861 0)
(-0.360301 0.0113412 0)
(-0.361174 0.000591761 0)
(-0.361952 -0.0102589 0)
(-0.362644 -0.0212047 0)
(-0.363261 -0.0322432 0)
(-0.363803 -0.0433715 0)
(-0.364268 -0.0545854 0)
(-0.364646 -0.0658792 0)
(-0.364922 -0.077244 0)
(-0.274401 0.18443 0)
(-0.283082 0.181649 0)
(-0.291116 0.177955 0)
(-0.298499 0.173405 0)
(-0.305236 0.168062 0)
(-0.311342 0.16199 0)
(-0.316837 0.155257 0)
(-0.321752 0.14793 0)
(-0.326119 0.140077 0)
(-0.329977 0.131759 0)
(-0.333369 0.123037 0)
(-0.336335 0.113966 0)
(-0.33892 0.104595 0)
(-0.341166 0.0949684 0)
(-0.343114 0.085124 0)
(-0.344804 0.0750943 0)
(-0.346274 0.0649063 0)
(-0.347557 0.0545818 0)
(-0.348684 0.0441381 0)
(-0.349684 0.0335881 0)
(-0.350582 0.0229412 0)
(-0.3514 0.0122033 0)
(-0.352159 0.00137817 0)
(-0.352872 -0.0095314 0)
(-0.353552 -0.0205275 0)
(-0.354208 -0.0316106 0)
(-0.354846 -0.0427821 0)
(-0.355467 -0.0540431 0)
(-0.356066 -0.0653938 0)
(-0.356633 -0.076832 0)
(-0.275392 0.193081 0)
(-0.283341 0.189643 0)
(-0.29062 0.185288 0)
(-0.297231 0.180083 0)
(-0.303191 0.174097 0)
(-0.308523 0.167406 0)
(-0.313257 0.160084 0)
(-0.317431 0.152204 0)
(-0.321086 0.143836 0)
(-0.324266 0.135047 0)
(-0.327018 0.125899 0)
(-0.329388 0.116446 0)
(-0.331423 0.106738 0)
(-0.333165 0.0968167 0)
(-0.334657 0.0867187 0)
(-0.335939 0.0764737 0)
(-0.337046 0.0661059 0)
(-0.338011 0.055634 0)
(-0.338865 0.0450723 0)
(-0.339634 0.0344306 0)
(-0.340341 0.0237152 0)
(-0.341009 0.0129291 0)
(-0.341654 0.00207323 0)
(-0.342293 -0.00885306 0)
(-0.342938 -0.0198541 0)
(-0.3436 -0.0309339 0)
(-0.344285 -0.0420975 0)
(-0.344999 -0.0533502 0)
(-0.345741 -0.0646967 0)
(-0.346508 -0.0761407 0)
(-0.274657 0.200994 0)
(-0.281843 0.196875 0)
(-0.288344 0.191845 0)
(-0.294175 0.185978 0)
(-0.29936 0.179356 0)
(-0.303931 0.17206 0)
(-0.307928 0.16417 0)
(-0.311396 0.155765 0)
(-0.314381 0.146919 0)
(-0.316934 0.137699 0)
(-0.319103 0.128168 0)
(-0.320938 0.11838 0)
(-0.322484 0.108381 0)
(-0.323786 0.0982134 0)
(-0.324885 0.0879088 0)
(-0.325819 0.0774941 0)
(-0.32662 0.0669903 0)
(-0.327321 0.0564128 0)
(-0.327947 0.0457727 0)
(-0.328523 0.0350768 0)
(-0.32907 0.0243285 0)
(-0.329608 0.0135286 0)
(-0.330153 0.00267529 0)
(-0.330718 -0.00823487 0)
(-0.331317 -0.0192077 0)
(-0.33196 -0.0302497 0)
(-0.332657 -0.0413686 0)
(-0.333413 -0.0525724 0)
(-0.334232 -0.0638695 0)
(-0.335116 -0.0752678 0)
(-0.272308 0.208143 0)
(-0.278722 0.203331 0)
(-0.284448 0.197622 0)
(-0.289512 0.191101 0)
(-0.293947 0.183858 0)
(-0.297795 0.175981 0)
(-0.301103 0.167556 0)
(-0.30392 0.158664 0)
(-0.3063 0.149382 0)
(-0.308293 0.139778 0)
(-0.309953 0.129912 0)
(-0.311326 0.119836 0)
(-0.312461 0.109596 0)
(-0.313397 0.0992282 0)
(-0.314176 0.0887615 0)
(-0.314829 0.0782191 0)
(-0.31539 0.0676183 0)
(-0.315883 0.0569712 0)
(-0.316334 0.0462854 0)
(-0.316762 0.0355651 0)
(-0.317187 0.0248113 0)
(-0.317623 0.0140222 0)
(-0.318086 0.00319448 0)
(-0.318588 -0.00767738 0)
(-0.319139 -0.0186004 0)
(-0.319752 -0.0295826 0)
(-0.320434 -0.0406333 0)
(-0.321194 -0.0517623 0)
(-0.322039 -0.0629801 0)
(-0.322973 -0.0742974 0)
(-0.268484 0.214524 0)
(-0.274137 0.209018 0)
(-0.279113 0.202639 0)
(-0.283446 0.195483 0)
(-0.287179 0.187646 0)
(-0.29036 0.179222 0)
(-0.293044 0.170303 0)
(-0.295283 0.16097 0)
(-0.297134 0.1513 0)
(-0.298649 0.141361 0)
(-0.299881 0.13121 0)
(-0.300877 0.120897 0)
(-0.301681 0.110462 0)
(-0.302331 0.0999377 0)
(-0.302864 0.0893499 0)
(-0.30331 0.0787173 0)
(-0.303694 0.0680532 0)
(-0.304041 0.0573661 0)
(-0.30437 0.0466607 0)
(-0.304697 0.0359385 0)
(-0.305038 0.0251982 0)
(-0.305405 0.0144365 0)
(-0.305809 0.00364831 0)
(-0.306262 -0.0071728 0)
(-0.306773 -0.0180347 0)
(-0.307351 -0.0289461 0)
(-0.308005 -0.0399168 0)
(-0.308745 -0.0509577 0)
(-0.309578 -0.0620802 0)
(-0.310512 -0.0732966 0)
(-0.263344 0.220154 0)
(-0.268268 0.213964 0)
(-0.272536 0.206936 0)
(-0.276191 0.199174 0)
(-0.279285 0.19078 0)
(-0.281871 0.181853 0)
(-0.284007 0.172486 0)
(-0.285751 0.162763 0)
(-0.287158 0.152757 0)
(-0.288282 0.142534 0)
(-0.289173 0.132148 0)
(-0.289876 0.121644 0)
(-0.290431 0.111059 0)
(-0.290873 0.10042 0)
(-0.291234 0.0897474 0)
(-0.29154 0.0790568 0)
(-0.291812 0.0683571 0)
(-0.292069 0.0576537 0)
(-0.292326 0.0469482 0)
(-0.292597 0.0362397 0)
(-0.292892 0.0255252 0)
(-0.293221 0.0148 0)
(-0.293592 0.00405798 0)
(-0.294014 -0.00670782 0)
(-0.294495 -0.0175055 0)
(-0.295042 -0.0283439 0)
(-0.295664 -0.0392328 0)
(-0.29637 -0.0501828 0)
(-0.297168 -0.0612056 0)
(-0.298068 -0.0723139 0)
(-0.257057 0.225066 0)
(-0.261299 0.218215 0)
(-0.264917 0.210569 0)
(-0.267962 0.202239 0)
(-0.27049 0.193333 0)
(-0.272561 0.183953 0)
(-0.274234 0.17419 0)
(-0.275568 0.164129 0)
(-0.276619 0.15384 0)
(-0.277438 0.143384 0)
(-0.278072 0.132811 0)
(-0.278563 0.122161 0)
(-0.278947 0.111466 0)
(-0.279254 0.100748 0)
(-0.279511 0.0900225 0)
(-0.279738 0.0793005 0)
(-0.279954 0.0685875 0)
(-0.280172 0.0578854 0)
(-0.280403 0.0471934 0)
(-0.280656 0.0365085 0)
(-0.28094 0.0258262 0)
(-0.281259 0.0151408 0)
(-0.281622 0.00444571 0)
(-0.282032 -0.00626626 0)
(-0.282496 -0.017003 0)
(-0.283021 -0.0277729 0)
(-0.283613 -0.0385851 0)
(-0.284281 -0.0494495 0)
(-0.285034 -0.0603772 0)
(-0.285881 -0.0713803 0)
(-0.249796 0.22931 0)
(-0.253416 0.22183 0)
(-0.256451 0.213605 0)
(-0.25896 0.204754 0)
(-0.261004 0.195387 0)
(-0.262643 0.185605 0)
(-0.263939 0.175501 0)
(-0.26495 0.165155 0)
(-0.265728 0.154634 0)
(-0.266324 0.143994 0)
(-0.26678 0.133279 0)
(-0.267133 0.122524 0)
(-0.267414 0.111755 0)
(-0.26765 0.100988 0)
(-0.26786 0.0902358 0)
(-0.268062 0.0795036 0)
(-0.268268 0.0687939 0)
(-0.268489 0.0581055 0)
(-0.268731 0.0474355 0)
(-0.269 0.0367792 0)
(-0.269301 0.0261309 0)
(-0.269637 0.0154842 0)
(-0.270011 0.0048325 0)
(-0.270427 -0.00583136 0)
(-0.270889 -0.0165147 0)
(-0.271402 -0.0272251 0)
(-0.271972 -0.0379707 0)
(-0.272605 -0.0487604 0)
(-0.27331 -0.0596038 0)
(-0.274098 -0.0705119 0)
(-0.24173 0.232946 0)
(-0.244795 0.224877 0)
(-0.247322 0.216121 0)
(-0.249374 0.206799 0)
(-0.251014 0.197023 0)
(-0.252304 0.186895 0)
(-0.253305 0.176504 0)
(-0.254073 0.165924 0)
(-0.254658 0.15522 0)
(-0.255104 0.144441 0)
(-0.255451 0.133624 0)
(-0.25573 0.1228 0)
(-0.255967 0.111986 0)
(-0.256183 0.101197 0)
(-0.256395 0.0904377 0)
(-0.256613 0.0797113 0)
(-0.256848 0.0690164 0)
(-0.257104 0.0583497 0)
(-0.257386 0.047706 0)
(-0.257697 0.0370794 0)
(-0.258037 0.0264634 0)
(-0.258408 0.0158514 0)
(-0.258811 0.00523661 0)
(-0.259248 -0.00538746 0)
(-0.259722 -0.0160274 0)
(-0.233018 0.23604 0)
(-0.235599 0.227428 0)
(-0.237694 0.218192 0)
(-0.239367 0.208453 0)
(-0.240682 0.198323 0)
(-0.241702 0.187903 0)
(-0.242485 0.177276 0)
(-0.243082 0.166513 0)
(-0.243542 0.15567 0)
(-0.243902 0.144791 0)
(-0.244197 0.133908 0)
(-0.244454 0.123043 0)
(-0.244694 0.112211 0)
(-0.244933 0.101418 0)
(-0.245182 0.0906676 0)
(-0.245449 0.0799581 0)
(-0.245739 0.0692856 0)
(-0.246055 0.0586444 0)
(-0.246397 0.048028 0)
(-0.246766 0.0374294 0)
(-0.247161 0.0268418 0)
(-0.247582 0.0162583 0)
(-0.248027 0.00567265 0)
(-0.248497 -0.00492122 0)
(-0.248994 -0.015529 0)
(-0.223804 0.238663 0)
(-0.225974 0.22956 0)
(-0.227711 0.219895 0)
(-0.22908 0.209793 0)
(-0.230144 0.199364 0)
(-0.230965 0.188703 0)
(-0.231596 0.177888 0)
(-0.232086 0.166985 0)
(-0.232478 0.156043 0)
(-0.232804 0.145099 0)
(-0.233095 0.134179 0)
(-0.233371 0.123298 0)
(-0.233649 0.112466 0)
(-0.23394 0.101685 0)
(-0.234252 0.0909541 0)
(-0.234588 0.0802685 0)
(-0.234952 0.0696221 0)
(-0.235342 0.0590074 0)
(-0.235757 0.0484168 0)
(-0.236195 0.0378427 0)
(-0.236655 0.0272781 0)
(-0.237134 0.0167162 0)
(-0.23763 0.00615124 0)
(-0.238142 -0.0044222 0)
(-0.23867 -0.0150089 0)
(-0.214218 0.240885 0)
(-0.216047 0.231342 0)
(-0.217495 0.221303 0)
(-0.218628 0.210892 0)
(-0.219508 0.200214 0)
(-0.220191 0.189359 0)
(-0.220728 0.178401 0)
(-0.221163 0.167397 0)
(-0.221533 0.15639 0)
(-0.221866 0.14541 0)
(-0.222187 0.134475 0)
(-0.222511 0.123598 0)
(-0.222851 0.11278 0)
(-0.223215 0.102021 0)
(-0.223605 0.0913159 0)
(-0.224024 0.0806577 0)
(-0.224471 0.0700382 0)
(-0.224942 0.0594487 0)
(-0.225436 0.0488808 0)
(-0.22595 0.0383266 0)
(-0.226478 0.027779 0)
(-0.227019 0.0172316 0)
(-0.227571 0.00667913 0)
(-0.22813 -0.00388302 0)
(-0.228695 -0.0144587 0)
(-0.20437 0.242772 0)
(-0.205922 0.232842 0)
(-0.207146 0.222482 0)
(-0.208104 0.211811 0)
(-0.208855 0.200931 0)
(-0.209453 0.189927 0)
(-0.209943 0.178864 0)
(-0.210364 0.167792 0)
(-0.210747 0.156748 0)
(-0.211118 0.145754 0)
(-0.211492 0.134824 0)
(-0.211885 0.123963 0)
(-0.212302 0.113169 0)
(-0.212749 0.102439 0)
(-0.213226 0.0917627 0)
(-0.213732 0.0811328 0)
(-0.214264 0.070539 0)
(-0.214819 0.059972 0)
(-0.215392 0.0494227 0)
(-0.21598 0.0388832 0)
(-0.216578 0.0283466 0)
(-0.217182 0.017807 0)
(-0.217789 0.00725964 0)
(-0.218398 -0.00329928 0)
(-0.219005 -0.0138728 0)
(-0.194352 0.244389 0)
(-0.195686 0.234123 0)
(-0.196741 0.22349 0)
(-0.197576 0.212606 0)
(-0.198247 0.201567 0)
(-0.198802 0.19045 0)
(-0.199281 0.179314 0)
(-0.199719 0.168203 0)
(-0.200141 0.157144 0)
(-0.200568 0.146155 0)
(-0.201012 0.135243 0)
(-0.201483 0.124407 0)
(-0.201985 0.113643 0)
(-0.202519 0.102944 0)
(-0.203083 0.0922977 0)
(-0.203675 0.0816948 0)
(-0.204291 0.0711241 0)
(-0.204926 0.0605757 0)
(-0.205575 0.0500404 0)
(-0.206234 0.0395105 0)
(-0.206897 0.0289794 0)
(-0.207562 0.0184417 0)
(-0.208224 0.00789321 0)
(-0.208882 -0.0026691 0)
(-0.209532 -0.0132475 0)
(-0.18424 0.24579 0)
(-0.185407 0.235236 0)
(-0.186341 0.224376 0)
(-0.187096 0.213321 0)
(-0.187724 0.20216 0)
(-0.188268 0.190963 0)
(-0.188764 0.179782 0)
(-0.189241 0.168653 0)
(-0.189718 0.157597 0)
(-0.190213 0.146625 0)
(-0.190734 0.135739 0)
(-0.191287 0.124935 0)
(-0.191874 0.114204 0)
(-0.192493 0.103536 0)
(-0.193141 0.0929183 0)
(-0.193814 0.0823397 0)
(-0.194508 0.0717886 0)
(-0.195216 0.0612547 0)
(-0.195935 0.050729 0)
(-0.196658 0.0402039 0)
(-0.197382 0.0296734 0)
(-0.198103 0.0191326 0)
(-0.198817 0.0085781 0)
(-0.199522 -0.00199268 0)
(-0.174091 0.247025 0)
(-0.175136 0.236228 0)
(-0.175987 0.225183 0)
(-0.176697 0.213992 0)
(-0.177312 0.202741 0)
(-0.17787 0.191491 0)
(-0.178401 0.180287 0)
(-0.178929 0.169157 0)
(-0.179471 0.158117 0)
(-0.180039 0.147171 0)
(-0.180638 0.136316 0)
(-0.181271 0.125546 0)
(-0.181939 0.114848 0)
(-0.182637 0.10421 0)
(-0.183361 0.0936181 0)
(-0.184108 0.0830604 0)
(-0.18487 0.072525 0)
(-0.185644 0.0620014 0)
(-0.186424 0.051481 0)
(-0.187204 0.0409567 0)
(-0.187982 0.0304228 0)
(-0.188753 0.0198753 0)
(-0.189514 0.00931103 0)
(-0.190264 -0.0012718 0)
(-0.16395 0.248136 0)
(-0.164909 0.237137 0)
(-0.16571 0.225941 0)
(-0.166401 0.214648 0)
(-0.167024 0.203334 0)
(-0.167611 0.192052 0)
(-0.168188 0.180842 0)
(-0.168775 0.169724 0)
(-0.169385 0.158707 0)
(-0.170025 0.147792 0)
(-0.170699 0.136971 0)
(-0.171407 0.126234 0)
(-0.172147 0.115568 0)
(-0.172916 0.104957 0)
(-0.173708 0.0943883 0)
(-0.174517 0.0838477 0)
(-0.175339 0.0733239 0)
(-0.176169 0.0628068 0)
(-0.177001 0.0522881 0)
(-0.17783 0.0417612 0)
(-0.178654 0.0312211 0)
(-0.15385 0.249158 0)
(-0.154751 0.237992 0)
(-0.155526 0.226678 0)
(-0.156219 0.215309 0)
(-0.156864 0.203952 0)
(-0.15749 0.192656 0)
(-0.158119 0.181452 0)
(-0.158766 0.170354 0)
(-0.159441 0.159366 0)
(-0.160149 0.148484 0)
(-0.160891 0.137698 0)
(-0.161665 0.126993 0)
(-0.162469 0.116355 0)
(-0.163298 0.105769 0)
(-0.164147 0.0952185 0)
(-0.165009 0.0846913 0)
(-0.16588 0.0741755 0)
(-0.166756 0.0636615 0)
(-0.16763 0.0531416 0)
(-0.168501 0.0426096 0)
(-0.169364 0.0320612 0)
(-0.143813 0.250118 0)
(-0.144679 0.238816 0)
(-0.145446 0.227411 0)
(-0.146152 0.215987 0)
(-0.146828 0.204606 0)
(-0.147498 0.193308 0)
(-0.148179 0.182118 0)
(-0.148884 0.171045 0)
(-0.14962 0.160089 0)
(-0.150388 0.14924 0)
(-0.151189 0.138487 0)
(-0.15202 0.127812 0)
(-0.152877 0.1172 0)
(-0.153755 0.106633 0)
(-0.154649 0.0960981 0)
(-0.155554 0.0855806 0)
(-0.156464 0.0750697 0)
(-0.157376 0.0645562 0)
(-0.158285 0.0540328 0)
(-0.159189 0.0434941 0)
(-0.160084 0.0329363 0)
(-0.133852 0.251037 0)
(-0.1347 0.239628 0)
(-0.135471 0.228153 0)
(-0.136198 0.216692 0)
(-0.136909 0.205299 0)
(-0.137623 0.194008 0)
(-0.138354 0.182838 0)
(-0.139112 0.171793 0)
(-0.1399 0.160869 0)
(-0.14072 0.150052 0)
(-0.14157 0.139329 0)
(-0.142447 0.12868 0)
(-0.143346 0.11809 0)
(-0.144263 0.10754 0)
(-0.145192 0.0970164 0)
(-0.146129 0.0865056 0)
(-0.147068 0.0759969 0)
(-0.148008 0.0654818 0)
(-0.148943 0.0549537 0)
(-0.149872 0.0444076 0)
(-0.150793 0.0338402 0)
(-0.123976 0.251933 0)
(-0.124817 0.240437 0)
(-0.125599 0.228911 0)
(-0.126351 0.217426 0)
(-0.127097 0.206031 0)
(-0.127852 0.194754 0)
(-0.128628 0.183607 0)
(-0.129431 0.172591 0)
(-0.130263 0.161696 0)
(-0.131125 0.15091 0)
(-0.132013 0.140213 0)
(-0.132925 0.129587 0)
(-0.133856 0.119015 0)
(-0.134801 0.108478 0)
(-0.135755 0.0979632 0)
(-0.136714 0.0874566 0)
(-0.137675 0.0769484 0)
(-0.138634 0.0664305 0)
(-0.139588 0.055897 0)
(-0.140536 0.0453435 0)
(-0.141477 0.0347671 0)
(-0.114188 0.252814 0)
(-0.115028 0.241252 0)
(-0.115825 0.229689 0)
(-0.116603 0.218191 0)
(-0.117381 0.2068 0)
(-0.118172 0.195539 0)
(-0.118985 0.184416 0)
(-0.119825 0.173428 0)
(-0.120692 0.162562 0)
(-0.121585 0.151802 0)
(-0.122502 0.141129 0)
(-0.123438 0.130522 0)
(-0.12439 0.119965 0)
(-0.125353 0.109438 0)
(-0.126323 0.0989292 0)
(-0.127297 0.0884251 0)
(-0.12827 0.0779161 0)
(-0.129242 0.067395 0)
(-0.130209 0.0568563 0)
(-0.131171 0.0462961 0)
(-0.132126 0.035712 0)
(-0.104485 0.25369 0)
(-0.105329 0.242076 0)
(-0.106141 0.230487 0)
(-0.106942 0.218983 0)
(-0.107748 0.207601 0)
(-0.108569 0.196358 0)
(-0.109411 0.185259 0)
(-0.110279 0.174296 0)
(-0.11117 0.163456 0)
(-0.112085 0.152719 0)
(-0.11302 0.142065 0)
(-0.113971 0.131475 0)
(-0.114935 0.120929 0)
(-0.115908 0.110411 0)