/*--------------------------------*- C++ -*----------------------------------*\
  =========                 |
  \\      /  F ield         | OpenFOAM: The Open Source CFD Toolbox
   \\    /   O peration     | Website:  https://openfoam.org
    \\  /    A nd           | Version:  9
     \\/     M anipulation  |
\*---------------------------------------------------------------------------*/
FoamFile
{
    format      ascii;
    class       volScalarField;
    location    "0.25";
    object      p;
}
// * * * * * * * * * * * * * * * * * * * * * * * * * * * * * * * * * * * * * //

dimensions      [0 2 -2 0 0 0 0];

internalField   nonuniform List<scalar> 
10000
(
3.49951e-09
-2.71885e-06
-7.34635e-06
-1.24969e-05
-1.71516e-05
-2.06277e-05
-2.24849e-05
-2.24616e-05
-2.04141e-05
-1.62759e-05
-1.00291e-05
-1.6856e-06
8.72654e-06
2.11721e-05
3.56141e-05
5.20178e-05
7.03521e-05
9.05911e-05
0.000112714
0.000136703
0.000162547
0.000190234
0.000219758
0.00025111
0.000284284
0.000319275
0.000356075
0.000394677
0.000435071
0.000477248
0.000521196
0.0005669
0.000614344
0.000663509
0.000714374
0.000766914
0.000821101
0.000876904
0.000934288
0.000993215
0.00105364
0.00111553
0.00117881
0.00124345
0.00130937
0.00137653
0.00144483
0.00151422
0.00158462
0.00165593
0.00172808
0.00180096
0.00187448
0.00194854
0.00202303
0.00209783
0.00217283
0.0022479
0.00232293
0.00239778
0.00247232
0.00254642
0.00261994
0.00269273
0.00276467
0.00283561
0.0029054
0.00297391
0.00304099
0.00310651
0.00317033
0.00323231
0.00329232
0.00335023
0.00340592
0.00345926
0.00351016
0.00355848
0.00360414
0.00364702
0.00368705
0.00372412
0.00375817
0.00378912
0.00381691
0.00384146
0.00386275
0.00388072
0.00389538
0.0039067
0.00391474
0.00391956
0.00392128
0.00392011
0.00391636
0.0039105
0.00390324
0.00389555
0.00388897
0.00388525
2.72387e-06
-1.01556e-08
-3.47104e-06
-7.07496e-06
-1.01759e-05
-1.2243e-05
-1.29075e-05
-1.19238e-05
-9.13413e-06
-4.44414e-06
2.1952e-06
1.08025e-05
2.13769e-05
3.39066e-05
4.83739e-05
6.47592e-05
8.30434e-05
0.000103209
0.000125241
0.000149126
0.000174854
0.000202417
0.000231806
0.000263015
0.000296038
0.000330867
0.000367495
0.000405915
0.000446116
0.000488088
0.000531818
0.000577292
0.000624492
0.0006734
0.000723993
0.000776246
0.000830131
0.000885616
0.000942666
0.00100124
0.0010613
0.0011228
0.00118568
0.0012499
0.00131539
0.00138208
0.00144991
0.00151881
0.0015887
0.00165948
0.00173108
0.0018034
0.00187634
0.00194981
0.00202368
0.00209785
0.00217221
0.00224664
0.002321
0.00239517
0.00246903
0.00254243
0.00261525
0.00268735
0.00275858
0.00282881
0.0028979
0.0029657
0.00303209
0.00309691
0.00316004
0.00322135
0.0032807
0.00333796
0.00339302
0.00344576
0.00349607
0.00354383
0.00358895
0.00363133
0.00367089
0.00370754
0.00374121
0.00377183
0.00379935
0.00382374
0.00384494
0.00386296
0.0038778
0.00388948
0.00389808
0.0039037
0.00390651
0.00390673
0.00390469
0.00390082
0.00389574
0.00389022
0.00388521
0.00388152
7.37e-06
3.43698e-06
-3.81689e-08
-3.12881e-06
-5.55433e-06
-6.91214e-06
-6.90875e-06
-5.34083e-06
-2.06646e-06
3.008e-06
9.93924e-06
1.87574e-05
2.94746e-05
4.20911e-05
5.66002e-05
7.29919e-05
9.12547e-05
0.000111378
0.00013335
0.000157162
0.000182807
0.000210276
0.000239564
0.000270664
0.000303569
0.000338275
0.000374772
0.000413053
0.000453108
0.000494927
0.000538496
0.0005838
0.000630823
0.000679545
0.000729944
0.000781993
0.000835666
0.00089093
0.00094775
0.00100609
0.0010659
0.00112714
0.00118975
0.00125369
0.00131889
0.00138529
0.00145282
0.0015214
0.00159096
0.00166142
0.00173267
0.00180464
0.00187723
0.00195032
0.00202382
0.00209761
0.00217158
0.00224561
0.00231957
0.00239334
0.00246678
0.00253977
0.00261217
0.00268385
0.00275466
0.00282446
0.00289313
0.00296051
0.00302647
0.00309088
0.0031536
0.0032145
0.00327345
0.00333032
0.003385
0.00343737
0.00348731
0.00353472
0.00357951
0.00362158
0.00366084
0.00369722
0.00373065
0.00376107
0.00378843
0.00381271
0.00383387
0.00385191
0.00386687
0.00387878
0.00388772
0.00389382
0.00389724
0.00389823
0.00389707
0.00389416
0.00388999
0.00388518
0.00388018
0.00387497
1.25717e-05
7.02762e-06
3.00705e-06
-9.23211e-08
-2.29847e-06
-3.31553e-06
-2.925e-06
-9.76691e-07
2.64127e-06
8.00803e-06
1.51755e-05
2.4175e-05
3.50231e-05
4.77263e-05
6.22847e-05
7.86943e-05
9.69494e-05
0.000117044
0.00013897
0.000162723
0.000188297
0.000215686
0.000244885
0.000275889
0.000308692
0.000343288
0.00037967
0.000417831
0.00045776
0.000499448
0.00054288
0.000588043
0.000634919
0.000683489
0.000733731
0.000785619
0.000839124
0.000894217
0.00095086
0.00100902
0.00106864
0.00112969
0.00119211
0.00125585
0.00132085
0.00138704
0.00145436
0.00152273
0.00159207
0.0016623
0.00173333
0.00180507
0.00187742
0.00195028
0.00202354
0.00209709
0.00217081
0.00224459
0.00231831
0.00239182
0.00246502
0.00253775
0.0026099
0.00268132
0.00275187
0.00282142
0.00288982
0.00295695
0.00302265
0.00308681
0.00314927
0.00320991
0.00326861
0.00332523
0.00337966
0.00343178
0.00348149
0.00352867
0.00357323
0.00361509
0.00365415
0.00369034
0.00372361
0.00375388
0.00378113
0.00380533
0.00382645
0.00384451
0.00385954
0.00387159
0.00388074
0.00388713
0.00389092
0.00389231
0.00389159
0.00388907
0.00388515
0.00388032
0.00387462
0.00386735
1.72879e-05
1.00917e-05
5.35285e-06
2.01976e-06
-1.8775e-07
-1.05765e-06
-4.38498e-07
1.76709e-06
5.63746e-06
1.12323e-05
1.85931e-05
2.77473e-05
3.87116e-05
5.14951e-05
6.61016e-05
8.25314e-05
0.000100783
0.000120854
0.000142741
0.00016644
0.000191949
0.000219263
0.000248379
0.000279293
0.000312
0.000346495
0.000382771
0.000420821
0.000460636
0.000502205
0.000545516
0.000590554
0.000637303
0.000685742
0.000735851
0.000787604
0.000840974
0.000895928
0.000952432
0.00101045
0.00106993
0.00113084
0.00119312
0.00125672
0.00132157
0.00138762
0.00145479
0.00152301
0.00159221
0.0016623
0.00173319
0.00180479
0.001877
0.00194972
0.00202284
0.00209625
0.00216984
0.00224348
0.00231706
0.00239044
0.0024635
0.0025361
0.00260811
0.00267939
0.0027498
0.00281921
0.00288748
0.00295446
0.00302003
0.00308404
0.00314635
0.00320685
0.0032654
0.00332187
0.00337615
0.00342812
0.00347767
0.00352469
0.00356911
0.00361081
0.00364973
0.00368579
0.00371893
0.0037491
0.00377625
0.00380038
0.00382146
0.00383952
0.00385458
0.00386671
0.00387599
0.00388254
0.00388652
0.00388813
0.00388759
0.00388516
0.00388117
0.003876
0.0038694
0.00386007
2.07908e-05
1.20534e-05
6.5492e-06
2.85885e-06
5.05772e-07
-3.58623e-07
3.62295e-07
2.71881e-06
6.75679e-06
1.25149e-05
2.00218e-05
2.92978e-05
4.03567e-05
5.32074e-05
6.78552e-05
8.4303e-05
0.000102552
0.000122603
0.000144454
0.000168105
0.000193554
0.0002208
0.000249841
0.000280673
0.000313293
0.000347696
0.000383877
0.00042183
0.000461545
0.000503012
0.00054622
0.000591155
0.000637799
0.000686135
0.00073614
0.00078779
0.000841058
0.000895912
0.000952318
0.00101024
0.00106963
0.00113045
0.00119264
0.00125616
0.00132093
0.0013869
0.00145401
0.00152217
0.0015913
0.00166134
0.00173217
0.00180373
0.0018759
0.00194858
0.00202167
0.00209506
0.00216862
0.00224224
0.0023158
0.00238917
0.00246221
0.0025348
0.0026068
0.00267807
0.00274847
0.00281786
0.00288611
0.00295308
0.00301862
0.0030826
0.00314489
0.00320535
0.00326385
0.00332027
0.00337449
0.0034264
0.00347588
0.00352284
0.00356717
0.00360879
0.00364762
0.0036836
0.00371665
0.00374674
0.00377383
0.0037979
0.00381894
0.00383697
0.00385202
0.00386417
0.00387348
0.00388009
0.00388413
0.00388577
0.00388522
0.00388268
0.00387841
0.00387273
0.00386517
0.00385401
2.25748e-05
1.2482e-05
6.23978e-06
2.13987e-06
-4.4183e-07
-1.3951e-06
-6.65509e-07
1.75796e-06
5.8922e-06
1.17557e-05
1.93635e-05
2.87276e-05
3.9857e-05
5.27586e-05
6.74378e-05
8.38983e-05
0.000102143
0.000122174
0.000143992
0.000167599
0.000192995
0.00022018
0.000249153
0.000279912
0.000312455
0.000346779
0.000382879
0.000420748
0.00046038
0.000501764
0.00054489
0.000589744
0.00063631
0.00068457
0.000734503
0.000786084
0.000839288
0.000894084
0.000950437
0.00100831
0.00106766
0.00112845
0.00119061
0.00125411
0.00131887
0.00138485
0.00145196
0.00152013
0.00158929
0.00165936
0.00173024
0.00180185
0.00187408
0.00194683
0.00202
0.00209346
0.00216712
0.00224084
0.0023145
0.00238797
0.00246113
0.00253383
0.00260594
0.00267732
0.00274784
0.00281735
0.0028857
0.00295277
0.00301841
0.00308248
0.00314484
0.00320537
0.00326394
0.00332041
0.00337467
0.0034266
0.0034761
0.00352305
0.00356737
0.00360898
0.00364778
0.00368371
0.00371672
0.00374676
0.00377379
0.00379781
0.0038188
0.00383678
0.0038518
0.0038639
0.00387319
0.00387975
0.00388374
0.00388529
0.00388458
0.00388178
0.00387711
0.00387086
0.00386238
0.00384968
2.23017e-05
1.10604e-05
4.14959e-06
-3.61913e-07
-3.20709e-06
-4.30256e-06
-3.6251e-06
-1.19489e-06
2.98068e-06
8.90213e-06
1.65718e-05
2.5993e-05
3.71694e-05
5.01051e-05
6.4804e-05
8.127e-05
9.95066e-05
0.000119517
0.000141304
0.000164871
0.000190218
0.000217348
0.000246262
0.000276957
0.000309435
0.000343691
0.000379723
0.000417526
0.000457092
0.000498413
0.000541479
0.000586277
0.000632792
0.000681006
0.000730899
0.000782448
0.000835627
0.000890406
0.000946751
0.00100463
0.00106399
0.0011248
0.001187
0.00125054
0.00131537
0.00138141
0.00144861
0.00151688
0.00158615
0.00165634
0.00172736
0.00179912
0.00187151
0.00194444
0.00201779
0.00209145
0.00216531
0.00223925
0.00231313
0.00238683
0.00246022
0.00253315
0.0026055
0.00267713
0.00274788
0.00281762
0.0028862
0.00295349
0.00301934
0.00308361
0.00314617
0.00320687
0.0032656
0.00332221
0.0033766
0.00342864
0.00347823
0.00352525
0.00356963
0.00361126
0.00365008
0.00368601
0.00371901
0.00374902
0.00377601
0.00379998
0.00382091
0.00383883
0.00385377
0.0038658
0.00387499
0.00388144
0.00388528
0.00388665
0.0038857
0.00388256
0.00387744
0.0038706
0.00386132
0.00384737
1.9746e-05
7.55562e-06
6.21655e-08
-4.83498e-06
-7.94828e-06
-9.211e-06
-8.62239e-06
-6.22654e-06
-2.05029e-06
3.89188e-06
1.1591e-05
2.10424e-05
3.22445e-05
4.51979e-05
5.99049e-05
7.63686e-05
9.45928e-05
0.000114581
0.000136338
0.000159867
0.000185171
0.000212253
0.000241115
0.000271757
0.00030418
0.000338383
0.000374362
0.000412114
0.000451633
0.000492912
0.000535941
0.000580709
0.0006272
0.0006754
0.000725287
0.000776841
0.000830035
0.000884841
0.000941226
0.000999155
0.00105859
0.00111948
0.00118178
0.00124543
0.00131039
0.00137658
0.00144394
0.00151239
0.00158186
0.00165227
0.00172352
0.00179552
0.00186818
0.00194139
0.00201503
0.002089
0.00216319
0.00223745
0.00231167
0.00238572
0.00245946
0.00253276
0.00260547
0.00267745
0.00274856
0.00281865
0.00288759
0.00295521
0.00302139
0.00308597
0.00314882
0.0032098
0.00326878
0.00332563
0.00338023
0.00343246
0.00348221
0.00352937
0.00357386
0.00361558
0.00365446
0.00369043
0.00372343
0.00375343
0.0037804
0.00380431
0.00382518
0.00384301
0.00385786
0.00386976
0.00387881
0.0038851
0.00388874
0.00388986
0.0038886
0.00388509
0.0038795
0.00387211
0.00386213
0.0038472
1.47592e-05
1.79838e-06
-6.18953e-06
-1.14331e-05
-1.48019e-05
-1.62388e-05
-1.57588e-05
-1.34238e-05
-9.27576e-06
-3.34111e-06
4.36176e-06
1.38211e-05
2.50303e-05
3.79869e-05
5.26911e-05
6.91451e-05
8.73523e-05
0.000107317
0.000129044
0.000152538
0.000177804
0.000204845
0.000233663
0.000264263
0.000296643
0.000330805
0.000366747
0.000404466
0.000443958
0.000485217
0.000528233
0.000572997
0.000619495
0.000667712
0.000717629
0.000769225
0.000822476
0.000877354
0.000933828
0.000991862
0.00105142
0.00111245
0.00117491
0.00123875
0.0013039
0.00137032
0.00143792
0.00150664
0.0015764
0.00164711
0.00171869
0.00179104
0.00186407
0.00193766
0.00201171
0.0020861
0.00216072
0.00223543
0.00231012
0.00238464
0.00245885
0.00253263
0.00260582
0.00267829
0.00274988
0.00282045
0.00288984
0.00295792
0.00302453
0.00308953
0.00315279
0.00321414
0.00327348
0.00333065
0.00338554
0.00343804
0.00348802
0.00353538
0.00358003
0.00362188
0.00366086
0.0036969
0.00372994
0.00375994
0.00378688
0.00381075
0.00383153
0.00384927
0.00386398
0.00387574
0.0038846
0.00389068
0.00389407
0.00389491
0.00389331
0.00388939
0.00388335
0.00387545
0.00386489
0.0038492
7.24655e-06
-6.33176e-06
-1.47317e-05
-2.02778e-05
-2.38807e-05
-2.54878e-05
-2.51246e-05
-2.28661e-05
-1.87656e-05
-1.28589e-05
-5.17205e-06
4.27743e-06
1.54787e-05
2.84261e-05
4.3118e-05
5.95555e-05
7.77418e-05
9.76814e-05
0.00011938
0.000142842
0.000168074
0.00019508
0.000223865
0.000254431
0.000286781
0.000320917
0.000356838
0.000394542
0.000434027
0.000475288
0.000518316
0.000563104
0.000609638
0.000657905
0.000707888
0.000759566
0.000812917
0.000867913
0.000924525
0.000982717
0.00104245
0.00110369
0.00116637
0.00123046
0.00129589
0.0013626
0.00143053
0.0014996
0.00156973
0.00164085
0.00171285
0.00178565
0.00185915
0.00193324
0.00200781
0.00208274
0.0021579
0.00223319
0.00230845
0.00238356
0.00245838
0.00253276
0.00260656
0.00267963
0.00275183
0.00282299
0.00289297
0.00296161
0.00302877
0.0030943
0.00315806
0.00321989
0.00327967
0.00333725
0.00339252
0.00344535
0.00349563
0.00354325
0.00358812
0.00363015
0.00366926
0.00370539
0.00373848
0.0037685
0.00379542
0.00381923
0.00383993
0.00385754
0.0038721
0.00388367
0.00389233
0.00389815
0.00390126
0.00390178
0.00389982
0.00389551
0.00388903
0.00388067
0.00386961
0.00385334
-2.84942e-06
-1.69188e-05
-2.56581e-05
-3.14641e-05
-3.52762e-05
-3.70432e-05
-3.67976e-05
-3.46235e-05
-3.05827e-05
-2.47181e-05
-1.70616e-05
-7.63554e-06
3.54567e-06
1.64738e-05
3.11456e-05
4.75611e-05
6.57232e-05
8.56365e-05
0.000107307
0.000130741
0.000155944
0.000182922
0.000211681
0.000242225
0.000274558
0.000308682
0.000344598
0.000382306
0.000421804
0.000463089
0.000506155
0.000550994
0.000597595
0.000645946
0.000696031
0.000747831
0.000801324
0.000856485
0.000913285
0.000971689
0.00103166
0.00109316
0.00115614
0.00122055
0.00128633
0.00135342
0.00142175
0.00149126
0.00156185
0.00163346
0.00170599
0.00177935
0.00185342
0.00192811
0.00200331
0.00207889
0.00215473
0.0022307
0.00230667
0.00238249
0.00245804
0.00253315
0.00260768
0.00268148
0.0027544
0.00282628
0.00289696
0.00296629
0.00303411
0.00310028
0.00316464
0.00322704
0.00328735
0.00334544
0.00340116
0.0034544
0.00350504
0.00355297
0.0035981
0.00364035
0.00367963
0.00371588
0.00374904
0.00377909
0.00380599
0.00382973
0.00385033
0.0038678
0.00388218
0.00389354
0.00390194
0.00390749
0.00391029
0.00391046
0.00390813
0.00390342
0.00389653
0.00388776
0.00387628
0.00385955
-1.55608e-05
-3.00199e-05
-3.90378e-05
-4.50649e-05
-4.90611e-05
-5.09752e-05
-5.08435e-05
-4.87567e-05
-4.47825e-05
-3.89692e-05
-3.13532e-05
-2.19605e-05
-1.08085e-05
2.0926e-06
1.6738e-05
3.3127e-05
5.12625e-05
7.1149e-05
9.27929e-05
0.000116201
0.00014138
0.000168338
0.00019708
0.000227612
0.000259939
0.000294065
0.000329992
0.000367722
0.000407255
0.000448587
0.000491716
0.000536634
0.000583333
0.000631801
0.000682025
0.000733987
0.000787666
0.000843038
0.000900075
0.000958746
0.00101901
0.00108084
0.00114417
0.00120897
0.00127517
0.00134272
0.00141154
0.00148157
0.00155273
0.00162493
0.00169808
0.00177209
0.00184685
0.00192226
0.0019982
0.00207455
0.00215118
0.00222796
0.00230475
0.00238142
0.00245782
0.00253379
0.00260918
0.00268384
0.00275761
0.00283032
0.00290182
0.00297195
0.00304055
0.00310746
0.00317253
0.00323561
0.00329655
0.00335521
0.00341146
0.00346518
0.00351625
0.00356455
0.00360999
0.00365249
0.00369197
0.00372835
0.0037616
0.00379168
0.00381855
0.00384222
0.0038627
0.00388001
0.00389419
0.0039053
0.00391343
0.00391867
0.00392113
0.00392094
0.00391823
0.00391312
0.00390584
0.00389668
0.00388484
0.00386774
-3.0903e-05
-4.56732e-05
-5.49204e-05
-6.11356e-05
-6.52933e-05
-6.7341e-05
-6.73173e-05
-6.53174e-05
-6.14131e-05
-5.56567e-05
-4.80879e-05
-3.87358e-05
-2.76197e-05
-1.47517e-05
-1.37389e-07
1.6222e-05
3.43291e-05
5.41888e-05
7.58078e-05
9.91936e-05
0.000124354
0.000151297
0.00018003
0.00021056
0.000242894
0.000277035
0.00031299
0.00035076
0.000390346
0.000431748
0.000474964
0.000519989
0.000566816
0.000615436
0.000665834
0.000717997
0.000771904
0.000827534
0.00088486
0.00094385
0.00100447
0.00106668
0.00113044
0.0011957
0.0012624
0.00133048
0.00139988
0.00147052
0.00154233
0.00161521
0.00168909
0.00176386
0.00183942
0.00191565
0.00199245
0.00206968
0.00214723
0.00222494
0.00230269
0.00238033
0.00245771
0.00253467
0.00261105
0.00268669
0.00276144
0.00283512
0.00290756
0.00297861
0.0030481
0.00311587
0.00318176
0.0032456
0.00330726
0.00336659
0.00342346
0.00347772
0.00352927
0.003578
0.0036238
0.00366658
0.00370628
0.00374282
0.00377616
0.00380626
0.00383311
0.0038567
0.00387703
0.00389415
0.0039081
0.00391895
0.00392677
0.00393167
0.00393376
0.00393319
0.00393009
0.00392459
0.00391692
0.00390741
0.00389525
0.00387784
-4.88817e-05
-6.39038e-05
-7.33417e-05
-7.97181e-05
-8.40178e-05
-8.61866e-05
-8.62643e-05
-8.4349e-05
-8.05156e-05
-7.48192e-05
-6.73022e-05
-5.79956e-05
-4.69204e-05
-3.40898e-05
-1.95101e-05
-3.1827e-06
1.48949e-05
3.47279e-05
5.63235e-05
7.96899e-05
0.000104836
0.00013177
0.000160502
0.000191039
0.00022339
0.000257561
0.000293557
0.000331384
0.000371043
0.000412538
0.000455865
0.000501024
0.000548009
0.000596811
0.00064742
0.000699822
0.000754
0.000809933
0.000867596
0.00092696
0.000987992
0.00105065
0.0011149
0.00118069
0.00124796
0.00131666
0.00138671
0.00145805
0.0015306
0.00160427
0.00167897
0.00175461
0.00183107
0.00190825
0.00198602
0.00206427
0.00214285
0.00222163
0.00230046
0.0023792
0.00245769
0.00253577
0.00261328
0.00269004
0.00276589
0.00284067
0.00291419
0.00298628
0.00305678
0.00312551
0.00319232
0.00325704
0.00331952
0.0033796
0.00343715
0.00349204
0.00354413
0.00359333
0.00363953
0.00368263
0.00372257
0.00375929
0.00379273
0.00382286
0.00384966
0.00387315
0.00389332
0.00391023
0.00392391
0.00393445
0.00394193
0.00394646
0.00394817
0.00394719
0.00394368
0.00393779
0.00392974
0.00391989
0.00390743
0.00388976
-6.94964e-05
-8.47278e-05
-9.43277e-05
-0.000100844
-0.00010527
-0.000107549
-0.000107722
-0.000105888
-0.000102125
-9.64909e-05
-8.90284e-05
-7.97707e-05
-6.874e-05
-5.595e-05
-4.14075e-05
-2.5114e-05
-7.06678e-06
1.27398e-05
3.43133e-05
5.76627e-05
8.2798e-05
0.000109729
0.000138466
0.000169019
0.000201397
0.000235609
0.000271661
0.000309561
0.000349312
0.000390918
0.000434381
0.000479699
0.000526869
0.000575885
0.000626738
0.000679417
0.000733906
0.000790187
0.000848236
0.000908026
0.000969525
0.0010327
0.0010975
0.00116389
0.0012318
0.00130119
0.00137199
0.00144412
0.0015175
0.00159206
0.00166769
0.0017443
0.00182178
0.00190001
0.00197888
0.00205826
0.002138
0.00221798
0.00229803
0.00237801
0.00245775
0.00253708
0.00261585
0.00269387
0.00277097
0.00284697
0.00292169
0.00299495
0.00306658
0.0031364
0.00320425
0.00326994
0.00333333
0.00339425
0.00345257
0.00350815
0.00356085
0.00361057
0.00365721
0.00370067
0.00374087
0.00377777
0.00381131
0.00384146
0.00386821
0.00389157
0.00391156
0.00392822
0.00394161
0.0039518
0.00395891
0.00396303
0.00396432
0.00396291
0.00395898
0.00395267
0.00394424
0.00393406
0.00392132
0.0039034
-9.27443e-05
-0.000108156
-0.000117897
-0.000124538
-0.000129077
-0.000131458
-0.00013172
-0.000129966
-0.000126273
-0.000120701
-0.000113295
-0.000104089
-9.31056e-05
-8.03588e-05
-6.58557e-05
-4.95976e-05
-3.15816e-05
-1.18017e-05
9.75052e-06
3.3085e-05
5.82125e-05
8.51447e-05
0.000113893
0.000144469
0.000176883
0.000211146
0.000247267
0.000285253
0.000325112
0.00036685
0.000410468
0.000455969
0.000503351
0.000552611
0.000603741
0.000656732
0.000711572
0.000768243
0.000826725
0.000886992
0.000949013
0.00101275
0.00107818
0.00114523
0.00121387
0.00128403
0.00135565
0.00142865
0.00150297
0.0015785
0.00165517
0.00173286
0.00181147
0.00189088
0.00197097
0.00205161
0.00213265
0.00221395
0.00229536
0.00237671
0.00245784
0.00253857
0.00261874
0.00269816
0.00277664
0.00285401
0.00293006
0.00300463
0.00307752
0.00314855
0.00321754
0.00328432
0.00334872
0.00341058
0.00346974
0.00352608
0.00357945
0.00362975
0.00367686
0.0037207
0.0037612
0.00379828
0.00383192
0.00386209
0.00388877
0.00391198
0.00393174
0.00394812
0.00396117
0.00397098
0.00397767
0.00398135
0.00398218
0.00398031
0.00397593
0.0039692
0.00396038
0.00394986
0.00393683
0.00391868
-0.000118622
-0.000134196
-0.000144064
-0.000150818
-0.000155463
-0.000157939
-0.000158286
-0.000156609
-0.000152986
-0.000147477
-0.000140129
-0.000130977
-0.000120042
-0.000107341
-9.28793e-05
-7.66585e-05
-5.86751e-05
-3.89225e-05
-1.73915e-05
5.9288e-06
3.10507e-05
5.7987e-05
8.67509e-05
0.000117355
0.000149813
0.000184136
0.000220335
0.000258421
0.000298403
0.000340288
0.000384082
0.000429787
0.000477405
0.000526935
0.000578373
0.00063171
0.000686938
0.000744041
0.000803
0.000863793
0.00092639
0.000990759
0.00105686
0.00112465
0.00119408
0.00126509
0.00133761
0.00141158
0.00148692
0.00156354
0.00164134
0.00172023
0.00180008
0.00188079
0.00196223
0.00204425
0.00212672
0.00220949
0.00229239
0.00237526
0.00245792
0.00254021
0.00262192
0.00270289
0.0027829
0.00286177
0.00293931
0.00301532
0.0030896
0.00316196
0.00323222
0.0033002
0.00336571
0.0034286
0.0034887
0.00354587
0.00359997
0.0036509
0.00369853
0.00374278
0.00378357
0.00382086
0.00385459
0.00388475
0.00391134
0.00393437
0.00395388
0.00396992
0.00398259
0.00399197
0.00399819
0.00400139
0.00400171
0.00399935
0.00399449
0.00398731
0.00397809
0.00396722
0.00395391
0.00393552
-0.000147128
-0.000162854
-0.000172841
-0.000179701
-0.000184445
-0.000187012
-0.000187442
-0.00018584
-0.000182287
-0.000176842
-0.000169554
-0.000160457
-0.000149574
-0.000136921
-0.000122503
-0.000106322
-8.83729e-05
-6.86493e-05
-4.71405e-05
-2.38345e-05
1.28243e-06
2.82245e-05
5.70066e-05
8.76435e-05
0.00012015
0.000154539
0.000190826
0.000229022
0.000269139
0.000311186
0.00035517
0.000401099
0.000448975
0.0004988
0.000550573
0.000604288
0.000659939
0.000717512
0.000776991
0.000838356
0.000901579
0.000966631
0.00103347
0.00110207
0.00117236
0.00124429
0.00131781
0.00139283
0.00146928
0.00154708
0.00162613
0.00170631
0.00178753
0.00186966
0.00195257
0.00203612
0.00212015
0.00220452
0.00228907
0.0023736
0.00245795
0.00254194
0.00262536
0.00270802
0.00278972
0.00287025
0.00294942
0.00302701
0.00310282
0.00317665
0.00324831
0.00331759
0.00338433
0.00344834
0.00350946
0.00356754
0.00362245
0.00367405
0.00372223
0.00376692
0.00380804
0.00384552
0.00387934
0.00390947
0.00393593
0.00395874
0.00397795
0.00399363
0.00400586
0.00401476
0.00402045
0.00402311
0.00402289
0.00401999
0.00401461
0.00400695
0.0039973
0.00398607
0.00397247
0.00395384
-0.000178263
-0.000194136
-0.000204238
-0.0002112
-0.00021604
-0.000218695
-0.000219208
-0.000217681
-0.000214197
-0.000208818
-0.000201592
-0.000192553
-0.000181725
-0.000169122
-0.000154751
-0.000138612
-0.000120701
-0.000101009
-7.9525e-05
-5.62348e-05
-3.11239e-05
-4.1761e-06
2.4625e-05
5.52961e-05
8.7854e-05
0.000122315
0.000158695
0.000197008
0.000237269
0.000279489
0.000323679
0.000369846
0.000417999
0.000468141
0.000520274
0.000574396
0.0006305
0.000688579
0.000748618
0.000810598
0.000874497
0.000940286
0.00100793
0.00107739
0.00114861
0.00122154
0.00129613
0.00137229
0.00144996
0.00152903
0.00160943
0.00169103
0.00177373
0.0018574
0.00194191
0.00202712
0.00211286
0.00219898
0.00228531
0.00237167
0.00245787
0.00254371
0.002629
0.00271352
0.00279706
0.00287942
0.00296036
0.00303969
0.00311718
0.00319262
0.0032658
0.00333652
0.0034046
0.00346984
0.00353207
0.00359114
0.00364691
0.00369924
0.00374802
0.00379317
0.00383461
0.00387229
0.00390618
0.00393627
0.00396257
0.00398512
0.00400398
0.00401922
0.00403095
0.00403931
0.00404442
0.00404648
0.00404565
0.00404217
0.00403623
0.00402805
0.00401795
0.00400634
0.00399243
0.00397354
-0.000212027
-0.000228048
-0.000238265
-0.000245327
-0.000250263
-0.000253006
-0.0002536
-0.00025215
-0.000248738
-0.000243426
-0.000236264
-0.000227286
-0.000216516
-0.000203968
-0.000189648
-0.000173556
-0.000155687
-0.000136031
-0.000114575
-9.13037e-05
-6.62015e-05
-3.92503e-05
-1.04316e-05
2.02734e-05
5.28835e-05
8.74174e-05
0.000123893
0.000162329
0.00020274
0.000245141
0.000289546
0.000335966
0.000384411
0.000434889
0.000487403
0.000541955
0.000598543
0.000657159
0.000717793
0.000780431
0.00084505
0.000911625
0.000980124
0.00105051
0.00112273
0.00119674
0.00127247
0.00134986
0.00142883
0.00150928
0.00159113
0.00167426
0.00175856
0.0018439
0.00193015
0.00201715
0.00210475
0.00219278
0.00228105
0.00236939
0.0024576
0.00254547
0.00263278
0.00271933
0.00280489
0.00288923
0.00297213
0.00305335
0.00313267
0.00320987
0.00328472
0.00335701
0.00342654
0.00349312
0.00355656
0.00361671
0.0036734
0.00372651
0.00377593
0.00382157
0.00386334
0.00390121
0.00393516
0.00396516
0.00399126
0.0040135
0.00403194
0.00404669
0.00405786
0.0040656
0.00407006
0.00407145
0.00406996
0.00406582
0.00405927
0.00405054
0.00403995
0.00402793
0.0040137
0.00399455
-0.000248427
-0.000264599
-0.000274932
-0.000282096
-0.000287127
-0.00028996
-0.000290637
-0.000289265
-0.000285927
-0.000280686
-0.000273591
-0.000264678
-0.00025397
-0.000241482
-0.000227219
-0.00021118
-0.000193358
-0.000173743
-0.000152321
-0.000129074
-0.000103986
-7.70355e-05
-4.82031e-05
-1.74675e-05
1.51925e-05
4.97983e-05
8.63705e-05
0.000124929
0.000165493
0.00020808
0.000252707
0.000299389
0.000348139
0.000398966
0.00045188
0.000506883
0.000563977
0.000623159
0.000684422
0.000747753
0.000813134
0.000880543
0.00094995
0.00102132
0.0010946
0.00116976
0.00124672
0.00132542
0.00140578
0.00148771
0.00157112
0.00165589
0.00174191
0.00182905
0.00191717
0.00200611
0.00209571
0.0021858
0.00227618
0.00236667
0.00245706
0.00254712
0.00263665
0.00272541
0.00281316
0.00289967
0.00298469
0.00306798
0.0031493
0.00322841
0.00330507
0.00337907
0.00345019
0.00351822
0.00358297
0.00364427
0.00370197
0.00375592
0.00380601
0.00385215
0.00389427
0.00393232
0.00396629
0.00399618
0.00402203
0.00404389
0.00406185
0.00407603
0.00408655
0.00409359
0.00409733
0.00409797
0.00409574
0.00409089
0.00408367
0.00407433
0.00406321
0.00405075
0.00403618
0.00401676
-0.000287467
-0.000303797
-0.000314249
-0.000321517
-0.000326647
-0.000329572
-0.000330335
-0.000329043
-0.000325783
-0.000320616
-0.000313593
-0.00030475
-0.000294111
-0.000281688
-0.000267489
-0.000251509
-0.000233742
-0.000214176
-0.000192795
-0.000169581
-0.000144513
-0.000117571
-8.87319e-05
-5.79718e-05
-2.52671e-05
9.40597e-06
4.60709e-05
8.47505e-05
0.000125467
0.000168241
0.000213094
0.000260042
0.000309104
0.000360291
0.000413617
0.000469088
0.000526709
0.00058648
0.000648399
0.000712456
0.000778638
0.000846924
0.000917288
0.000989696
0.00106411
0.00114047
0.00121873
0.00129883
0.00138067
0.00146417
0.00154925
0.00163578
0.00172365
0.00181272
0.00190284
0.00199387
0.00208563
0.00217793
0.0022706
0.00236341
0.00245615
0.0025486
0.00264053
0.00273168
0.00282181
0.00291067
0.002998
0.00308354
0.00316704
0.00324823
0.00332687
0.00340273
0.00347557
0.00354517
0.00361134
0.00367389
0.00373266
0.0037875
0.0038383
0.00388497
0.00392743
0.00396565
0.00399961
0.00402934
0.00405488
0.0040763
0.0040937
0.00410722
0.00411701
0.00412325
0.00412617
0.00412597
0.00412292
0.00411728
0.00410933
0.00409933
0.00408763
0.00407471
0.00405977
0.00404008
-0.000329158
-0.000345652
-0.000356228
-0.000363604
-0.000368835
-0.000371856
-0.000372708
-0.000371502
-0.000368323
-0.000363236
-0.000356291
-0.000347524
-0.00033696
-0.000324612
-0.000310483
-0.000294572
-0.00027687
-0.000257362
-0.000236032
-0.00021286
-0.000187823
-0.000160899
-0.000132063
-0.000101287
-6.85464e-05
-3.3814e-05
2.93661e-06
4.17313e-05
8.25957e-05
0.000125554
0.000170631
0.000217847
0.000267223
0.000318776
0.000372522
0.000428472
0.000486635
0.000547015
0.000609614
0.000674426
0.00074144
0.000810642
0.000882007
0.000955506
0.0010311
0.00110874
0.00118838
0.00126994
0.00135335
0.00143853
0.00152538
0.00161378
0.00170361
0.00179474
0.00188702
0.00198029
0.00207436
0.00216905
0.00226417
0.00235948
0.00245477
0.0025498
0.00264432
0.00273807
0.00283079
0.0029222
0.00301204
0.00310002
0.00318587
0.00326933
0.00335012
0.003428
0.0035027
0.00357401
0.00364171
0.00370561
0.00376553
0.00382132
0.00387287
0.00392008
0.00396288
0.00400124
0.00403517
0.00406467
0.00408983
0.00411072
0.00412747
0.00414023
0.00414918
0.00415453
0.00415652
0.00415539
0.00415142
0.00414491
0.00413615
0.00412542
0.0041131
0.00409968
0.00408436
0.00406437
-0.000373509
-0.000390176
-0.00040088
-0.000408369
-0.000413707
-0.000416827
-0.000417773
-0.000416657
-0.000413566
-0.000408565
-0.000401705
-0.000393022
-0.000382542
-0.000370277
-0.00035623
-0.000340398
-0.00032277
-0.000303332
-0.000282066
-0.000258948
-0.000233956
-0.000207063
-0.000178241
-0.000147463
-0.000114699
-7.99187e-05
-4.30934e-05
-4.19359e-06
3.68097e-05
7.99449e-05
0.000125239
0.000172719
0.000222407
0.000274327
0.000328496
0.000384931
0.000443646
0.000504649
0.000567946
0.000633535
0.000701411
0.000771561
0.000843967
0.000918602
0.000995432
0.00107441
0.00115549
0.0012386
0.00132367
0.00141062
0.00149934
0.00158972
0.00168165
0.00177498
0.00186955
0.0019652
0.00206176
0.00215901
0.00225676
0.00235477
0.0024528
0.00255061
0.00264793
0.00274449
0.00284
0.00293418
0.00302674
0.00311737
0.00320579
0.00329171
0.00337483
0.00345489
0.00353162
0.00360478
0.00367413
0.00373948
0.00380063
0.00385743
0.00390977
0.00395753
0.00400067
0.00403915
0.00407298
0.0041022
0.00412689
0.00414716
0.00416315
0.00417504
0.00418304
0.00418737
0.00418831
0.00418614
0.00418115
0.00417367
0.00416401
0.00415249
0.0041395
0.00412553
0.0041098
0.00408953
-0.000420532
-0.000437379
-0.000448219
-0.000455826
-0.000461275
-0.0004645
-0.000465546
-0.000464526
-0.000461529
-0.000456622
-0.000449855
-0.000441266
-0.000430879
-0.000418708
-0.000404754
-0.000389013
-0.000371474
-0.000352121
-0.000330932
-0.000307885
-0.000282953
-0.000256107
-0.000227317
-0.000196552
-0.00016378
-0.000128968
-9.20829e-05
-5.30925e-05
-1.19638e-05
3.13356e-05
7.68369e-05
0.00012457
0.000174564
0.000226844
0.000281434
0.000338356
0.000397626
0.00045926
0.000523266
0.00058965
0.000658409
0.000729536
0.000803017
0.000878829
0.000956942
0.00103732
0.0011199
0.00120463
0.00129144
0.00138025
0.00147095
0.00156343
0.00165757
0.00175323
0.00185025
0.00194845
0.00204765
0.00214764
0.00224821
0.00234911
0.0024501
0.0025509
0.00265124
0.00275083