/*--------------------------------*- C++ -*----------------------------------*\
  =========                 |
  \\      /  F ield         | OpenFOAM: The Open Source CFD Toolbox
   \\    /   O peration     | Website:  https://openfoam.org
    \\  /    A nd           | Version:  9
     \\/     M anipulation  |
\*---------------------------------------------------------------------------*/
FoamFile
{
    format      ascii;
    class       surfaceScalarField;
    location    "0.25";
    object      phi;
}
// * * * * * * * * * * * * * * * * * * * * * * * * * * * * * * * * * * * * * //

dimensions      [0 3 -1 0 0 0 0];

internalField   nonuniform List<scalar> 
19800
(
5.53339e-11
-5.53613e-11
3.79828e-11
1.73518e-11
-8.85812e-11
1.26565e-10
-3.23376e-10
2.34797e-10
-6.51721e-10
3.28348e-10
-1.05578e-09
4.04055e-10
-1.51865e-09
4.62875e-10
-2.02576e-09
5.0711e-10
-2.56505e-09
5.39283e-10
-3.12681e-09
5.61762e-10
-3.70345e-09
5.76646e-10
-4.28917e-09
5.85723e-10
-4.87965e-09
5.90475e-10
-5.47174e-09
5.92091e-10
-6.06323e-09
5.91489e-10
-6.65259e-09
5.89356e-10
-7.23877e-09
5.86182e-10
-7.82106e-09
5.82298e-10
-8.39898e-09
5.7792e-10
-8.97216e-09
5.73172e-10
-9.54028e-09
5.68113e-10
-1.0103e-08
5.62763e-10
-1.06602e-08
5.57112e-10
-1.12113e-08
5.51133e-10
-1.17561e-08
5.44795e-10
-1.22941e-08
5.38059e-10
-1.2825e-08
5.30889e-10
-1.33483e-08
5.23246e-10
-1.38634e-08
5.15094e-10
-1.43698e-08
5.06399e-10
-1.48669e-08
4.97128e-10
-1.53541e-08
4.87249e-10
-1.58309e-08
4.76732e-10
-1.62964e-08
4.65546e-10
-1.67501e-08
4.53664e-10
-1.71911e-08
4.41056e-10
-1.76188e-08
4.27696e-10
-1.80324e-08
4.13558e-10
-1.8431e-08
3.98618e-10
-1.88138e-08
3.82852e-10
-1.91801e-08
3.6624e-10
-1.95288e-08
3.4876e-10
-1.98592e-08
3.30397e-10
-2.01704e-08
3.11135e-10
-2.04613e-08
2.90963e-10
-2.07312e-08
2.69872e-10
-2.09791e-08
2.47857e-10
-2.1204e-08
2.24917e-10
-2.1405e-08
2.01052e-10
-2.15813e-08
1.76271e-10
-2.17319e-08
1.50584e-10
-2.18559e-08
1.24007e-10
-2.19525e-08
9.65634e-11
-2.20207e-08
6.82793e-11
-2.20599e-08
3.9188e-11
-2.20693e-08
9.33005e-12
-2.2048e-08
-2.12587e-11
-2.19955e-08
-5.25171e-11
-2.19111e-08
-8.43926e-11
-2.17943e-08
-1.16822e-10
-2.16445e-08
-1.49736e-10
-2.14615e-08
-1.83061e-10
-2.12447e-08
-2.16716e-10
-2.09941e-08
-2.50617e-10
-2.07095e-08
-2.84674e-10
-2.03907e-08
-3.18792e-10
-2.00378e-08
-3.52873e-10
-1.9651e-08
-3.86817e-10
-1.92305e-08
-4.2052e-10
-1.87766e-08
-4.53878e-10
-1.82898e-08
-4.86785e-10
-1.77707e-08
-5.19136e-10
-1.72198e-08
-5.50826e-10
-1.66381e-08
-5.8175e-10
-1.60263e-08
-6.11803e-10
-1.53854e-08
-6.40881e-10
-1.47165e-08
-6.68875e-10
-1.40208e-08
-6.9567e-10
-1.32997e-08
-7.21141e-10
-1.25546e-08
-7.45141e-10
-1.17871e-08
-7.67494e-10
-1.09991e-08
-7.87976e-10
-1.01928e-08
-8.06305e-10
-9.37068e-09
-8.22111e-10
-8.53576e-09
-8.34915e-10
-7.69166e-09
-8.44102e-10
-6.84278e-09
-8.48886e-10
-5.99449e-09
-8.48285e-10
-5.15341e-09
-8.41087e-10
-4.32759e-09
-8.25821e-10
-3.52686e-09
-8.00732e-10
-2.7631e-09
-7.63753e-10
-2.05061e-09
-7.12497e-10
-1.40633e-09
-6.44277e-10
-8.50097e-10
-5.5623e-10
-4.04298e-10
-4.45801e-10
-9.19562e-11
-3.12342e-10
6.92108e-11
-1.6116e-10
8.15509e-11
-1.23235e-11
8.15673e-11
-1.71348e-11
-3.82258e-11
-2.18313e-10
2.18534e-10
-6.59832e-10
5.68082e-10
-1.33914e-09
9.141e-10
-2.23294e-09
1.22215e-09
-3.30901e-09
1.48012e-09
-4.53323e-09
1.6871e-09
-5.87356e-09
1.84744e-09
-7.30175e-09
1.96747e-09
-8.79393e-09
2.05394e-09
-1.03306e-08
2.11332e-09
-1.18963e-08
2.1514e-09
-1.3479e-08
2.17316e-09
-1.50696e-08
2.18272e-09
-1.66615e-08
2.18336e-09
-1.82497e-08
2.17759e-09
-1.98308e-08
2.16728e-09
-2.14022e-08
2.15372e-09
-2.29621e-08
2.13781e-09
-2.4509e-08
2.12009e-09
-2.60418e-08
2.10088e-09
-2.75593e-08
2.0803e-09
-2.90606e-08
2.0584e-09
-3.05446e-08
2.03514e-09
-3.20103e-08
2.01043e-09
-3.34564e-08
1.98416e-09
-3.48817e-08
1.95623e-09
-3.6285e-08
1.92652e-09
-3.76648e-08
1.89491e-09
-3.90197e-08
1.86129e-09
-4.03481e-08
1.82555e-09
-4.16485e-08
1.78758e-09
-4.2919e-08
1.74729e-09
-4.4158e-08
1.70456e-09
-4.53637e-08
1.65931e-09
-4.6534e-08
1.61143e-09
-4.76672e-08
1.56085e-09
-4.87611e-08
1.50747e-09
-4.98137e-08
1.45122e-09
-5.08228e-08
1.39201e-09
-5.17864e-08
1.32978e-09
-5.27021e-08
1.26446e-09
-5.35677e-08
1.196e-09
-5.43809e-08
1.12436e-09
-5.51394e-08
1.04949e-09
-5.58409e-08
9.71378e-10
-5.64831e-08
8.90003e-10
-5.70635e-08
8.05367e-10
-5.758e-08
7.17481e-10
-5.80301e-08
6.26376e-10
-5.84116e-08
5.32096e-10
-5.87223e-08
4.34704e-10
-5.896e-08
3.34281e-10
-5.91226e-08
2.30925e-10
-5.92082e-08
1.24757e-10
-5.92148e-08
1.59191e-11
-5.91406e-08
-9.54428e-11
-5.8984e-08
-2.09135e-10
-5.87434e-08
-3.24957e-10
-5.84175e-08
-4.42689e-10
-5.80052e-08
-5.62088e-10
-5.75054e-08
-6.82892e-10
-5.69173e-08
-8.0482e-10
-5.62403e-08
-9.27572e-10
-5.54741e-08
-1.05083e-09
-5.46187e-08
-1.17427e-09
-5.3674e-08
-1.29755e-09
-5.26405e-08
-1.42031e-09
-5.15188e-08
-1.54219e-09
-5.03099e-08
-1.66283e-09
-4.90148e-08
-1.78185e-09
-4.76351e-08
-1.89888e-09
-4.61724e-08
-2.01355e-09
-4.46286e-08
-2.12547e-09
-4.30061e-08
-2.23429e-09
-4.13074e-08
-2.3396e-09
-3.95353e-08
-2.441e-09
-3.76929e-08
-2.53806e-09
-3.57838e-08
-2.63029e-09
-3.38118e-08
-2.71712e-09
-3.17814e-08
-2.79787e-09
-2.96977e-08
-2.87168e-09
-2.75666e-08
-2.93744e-09
-2.53949e-08
-2.99375e-09
-2.3191e-08
-3.03881e-09
-2.09648e-08
-3.07034e-09
-1.87282e-08
-3.08547e-09
-1.64959e-08
-3.08067e-09
-1.42853e-08
-3.05167e-09
-1.21177e-08
-2.99338e-09
-1.00185e-08
-2.89991e-09
-8.01771e-09
-2.76458e-09
-6.1501e-09
-2.5801e-09
-4.45541e-09
-2.33897e-09
-2.97731e-09
-2.03433e-09
-1.76105e-09
-1.66206e-09
-8.48027e-10
-1.22537e-09
-2.66035e-10
-7.43178e-10
-1.22764e-11
-2.66117e-10
6.92996e-11
-1.27391e-10
8.91661e-11
-5.71783e-10
6.62931e-10
-1.35381e-09
1.35011e-09
-2.46261e-09
2.02291e-09
-3.86772e-09
2.62725e-09
-5.52864e-09
3.14104e-09
-7.40176e-09
3.56022e-09
-9.44475e-09
3.89043e-09
-1.16191e-08
4.14182e-09
-1.38913e-08
4.32618e-09
-1.62334e-08
4.45537e-09
-1.86224e-08
4.54039e-09
-2.10402e-08
4.59097e-09
-2.34728e-08
4.6153e-09
-2.59094e-08
4.62003e-09
-2.83422e-08
4.61038e-09
-3.07652e-08
4.59025e-09
-3.31739e-08
4.56248e-09
-3.55651e-08
4.52901e-09
-3.79362e-08
4.49111e-09
-4.02848e-08
4.44953e-09
-4.26092e-08
4.40468e-09
-4.49075e-08
4.35671e-09
-4.7178e-08
4.3056e-09
-4.94188e-08
4.25125e-09
-5.16281e-08
4.19347e-09
-5.38039e-08
4.13207e-09
-5.59442e-08
4.06683e-09
-5.80468e-08
3.99754e-09
-6.01095e-08
3.92397e-09
-6.21299e-08
3.84593e-09
-6.41055e-08
3.7632e-09
-6.60338e-08
3.67558e-09
-6.79121e-08
3.58287e-09
-6.97377e-08
3.48489e-09
-7.15077e-08
3.38145e-09
-7.32192e-08
3.27238e-09
-7.48693e-08
3.15751e-09
-7.64547e-08
3.03669e-09
-7.79725e-08
2.90976e-09
-7.94193e-08
2.7766e-09
-8.07919e-08
2.63709e-09
-8.2087e-08
2.49111e-09
-8.33013e-08
2.3386e-09
-8.44313e-08
2.17948e-09
-8.54736e-08
2.01372e-09
-8.64249e-08
1.84128e-09
-8.72817e-08
1.66219e-09
-8.80407e-08
1.47648e-09
-8.86985e-08
1.28421e-09
-8.92519e-08
1.08548e-09
-8.96977e-08
8.80439e-10
-9.00326e-08
6.6925e-10
-9.02538e-08
4.52124e-10
-9.03584e-08
2.29307e-10
-9.03436e-08
1.13362e-12
-9.02069e-08
-2.3217e-10
-8.99459e-08
-4.70128e-10
-8.95585e-08
-7.12363e-10
-8.90427e-08
-9.58416e-10
-8.8397e-08
-1.20779e-09
-8.762e-08
-1.45995e-09
-8.67105e-08
-1.71431e-09
-8.56678e-08
-1.97027e-09
-8.44914e-08
-2.22718e-09
-8.31813e-08
-2.48438e-09
-8.17377e-08
-2.74115e-09
-8.01613e-08
-2.99679e-09
-7.84529e-08
-3.25055e-09
-7.66141e-08
-3.50168e-09
-7.46465e-08
-3.74943e-09
-7.25523e-08
-3.99304e-09
-7.03341e-08
-4.23172e-09
-6.79949e-08
-4.46471e-09
-6.5538e-08
-4.69122e-09
-6.29671e-08
-4.91043e-09
-6.02866e-08
-5.12149e-09
-5.75012e-08
-5.32346e-09
-5.46162e-08
-5.5153e-09
-5.16376e-08
-5.69578e-09
-4.8572e-08
-5.8634e-09
-4.54274e-08
-6.0163e-09
-4.22127e-08
-6.15212e-09
-3.89386e-08
-6.26787e-09
-3.56177e-08
-6.35975e-09
-3.2265e-08
-6.42298e-09
-2.88988e-08
-6.45165e-09
-2.5541e-08
-6.43854e-09
-2.22176e-08
-6.37501e-09
-1.896e-08
-6.251e-09
-1.58049e-08
-6.05504e-09
-1.2795e-08
-5.77449e-09
-9.97896e-09
-5.39612e-09
-7.41087e-09
-4.90706e-09
-5.14835e-09
-4.29684e-09
-3.24923e-09
-3.56118e-09
-1.76529e-09
-2.70929e-09
-7.32664e-10
-1.7758e-09
-1.57785e-10
-8.41012e-10
-8.84836e-11
-2.38885e-10
3.2805e-10
-9.28842e-10
1.35289e-09
-2.04763e-09
2.4689e-09
-3.56387e-09
3.53915e-09
-5.43574e-09
4.49913e-09
-7.61502e-09
5.32032e-09
-1.00514e-08
5.99659e-09
-1.2696e-08
6.53502e-09
-1.55038e-08
6.94962e-09
-1.8435e-08
7.25743e-09
-2.14558e-08
7.47612e-09
-2.45379e-08
7.62252e-09
-2.76587e-08
7.71176e-09
-3.08002e-08
7.75681e-09
-3.39485e-08
7.76836e-09
-3.70931e-08
7.75489e-09
-4.02257e-08
7.72288e-09
-4.33403e-08
7.67708e-09
-4.64321e-08
7.62083e-09
-4.94974e-08
7.55635e-09
-5.25329e-08
7.48504e-09
-5.55359e-08
7.40768e-09
-5.85038e-08
7.32463e-09
-6.14341e-08
7.23596e-09
-6.43244e-08
7.14155e-09
-6.71722e-08
7.04119e-09
-6.99747e-08
6.93459e-09
-7.27293e-08
6.82145e-09
-7.54332e-08
6.70142e-09
-7.80834e-08
6.5742e-09
-8.06769e-08
6.43944e-09
-8.32105e-08
6.29682e-09
-8.5681e-08
6.14604e-09
-8.80849e-08
5.98679e-09
-9.04188e-08
5.81878e-09
-9.26791e-08
5.64171e-09
-9.4862e-08
5.45533e-09
-9.69639e-08
5.25936e-09
-9.89808e-08
5.05358e-09
-1.00909e-07
4.83774e-09
-1.02744e-07
4.61166e-09
-1.04482e-07
4.37514e-09
-1.06119e-07
4.12804e-09
-1.0765e-07
3.87023e-09
-1.09073e-07
3.60162e-09
-1.10381e-07
3.32215e-09
-1.11572e-07
3.03181e-09
-1.1264e-07
2.73063e-09
-1.13582e-07
2.41867e-09
-1.14394e-07
2.09606e-09
-1.15072e-07
1.76298e-09
-1.15611e-07
1.41967e-09
-1.16008e-07
1.06641e-09
-1.16259e-07
7.03559e-10
-1.16362e-07
3.31536e-10
-1.16311e-07
-4.91646e-11
-1.16105e-07
-4.38027e-10
-1.15741e-07
-8.344e-10
-1.15216e-07
-1.23761e-09
-1.14527e-07
-1.6469e-09
-1.13674e-07
-2.06147e-09
-1.12653e-07
-2.48042e-09
-1.11465e-07
-2.90282e-09
-1.10107e-07
-3.32766e-09
-1.08581e-07
-3.75391e-09
-1.06885e-07
-4.18045e-09
-1.0502e-07
-4.60616e-09
-1.02986e-07
-5.02986e-09
-1.00787e-07
-5.45034e-09
-9.8422e-08
-5.86639e-09
-9.58947e-08
-6.27676e-09
-9.32075e-08
-6.6802e-09
-9.03638e-08
-7.07544e-09
-8.73673e-08
-7.46121e-09
-8.42223e-08
-7.8362e-09
-8.09337e-08
-8.19905e-09
-7.75068e-08
-8.54832e-09
-7.39478e-08
-8.88245e-09
-7.02635e-08
-9.19964e-09
-6.64615e-08
-9.49781e-09
-6.25505e-08
-9.77441e-09
-5.85405e-08
-1.00263e-08
-5.44431e-08
-1.02495e-08
-5.0272e-08
-1.0439e-08
-4.60434e-08
-1.05884e-08
-4.17763e-08
-1.069e-08
-3.74938e-08
-1.07341e-08
-3.32234e-08
-1.0709e-08
-2.89975e-08
-1.06009e-08
-2.48546e-08
-1.03939e-08
-2.08393e-08
-1.00703e-08
-1.7003e-08
-9.61085e-09
-1.34031e-08
-8.99597e-09
-1.01027e-08
-8.20745e-09
-7.16816e-09
-7.2314e-09
-4.66581e-09
-6.06354e-09
-2.65702e-09
-4.71808e-09
-1.19164e-09
-3.24116e-09
-3.0131e-10
-1.73135e-09
-3.89794e-10
-3.38138e-10
6.66189e-10
-1.25578e-09
2.27053e-09
-2.68846e-09
3.90158e-09
-4.57991e-09
5.4306e-09
-6.87379e-09
6.793e-09
-9.51294e-09
7.95948e-09
-1.24409e-08
8.92456e-09
-1.56039e-08
9.69799e-09
-1.89524e-08
1.02981e-08
-2.24425e-08
1.07475e-08
-2.60363e-08
1.10699e-08
-2.97021e-08
1.12883e-08
-3.34139e-08
1.14236e-08
-3.71509e-08
1.14938e-08
-4.08967e-08
1.15142e-08
-4.46386e-08
1.14968e-08
-4.83666e-08
1.1451e-08
-5.20733e-08
1.13838e-08
-5.57526e-08
1.13001e-08
-5.93996e-08
1.12033e-08
-6.30102e-08
1.10957e-08
-6.65809e-08
1.09784e-08
-7.01083e-08
1.08521e-08
-7.35894e-08
1.0717e-08
-7.70209e-08
1.05731e-08
-8.03999e-08
1.04201e-08
-8.3723e-08
1.02577e-08
-8.6987e-08
1.00854e-08
-9.01885e-08
9.9029e-09
-9.33239e-08
9.70964e-09
-9.63897e-08
9.50523e-09
-9.93821e-08
9.28922e-09
-1.02297e-07
9.06117e-09
-1.05131e-07
8.82068e-09
-1.0788e-07
8.56734e-09
-1.10539e-07
8.30075e-09
-1.13104e-07
8.02054e-09
-1.15571e-07
7.72636e-09
-1.17935e-07
7.41788e-09
-1.20192e-07
7.09478e-09
-1.22337e-07
6.7568e-09
-1.24366e-07
6.40369e-09
-1.26273e-07
6.03525e-09
-1.28054e-07
5.65131e-09
-1.29704e-07
5.25177e-09
-1.31219e-07
4.83656e-09
-1.32593e-07
4.40568e-09
-1.33821e-07
3.95919e-09
-1.349e-07
3.4972e-09
-1.35824e-07
3.01992e-09
-1.36588e-07
2.52763e-09
-1.37189e-07
2.02066e-09
-1.37622e-07
1.49947e-09
-1.37883e-07
9.64575e-10
-1.37968e-07
4.16598e-10
-1.37874e-07
-1.43751e-10
-1.37596e-07
-7.15672e-10
-1.37132e-07
-1.29826e-09
-1.36479e-07
-1.8905e-09
-1.35635e-07
-2.49133e-09
-1.34597e-07
-3.09954e-09
-1.33363e-07
-3.71385e-09
-1.31933e-07
-4.33292e-09
-1.30306e-07
-4.95529e-09
-1.2848e-07
-5.57944e-09
-1.26457e-07
-6.20379e-09
-1.24236e-07
-6.8267e-09
-1.2182e-07
-7.44646e-09
-1.19209e-07
-8.06135e-09
-1.16405e-07
-8.6696e-09
-1.13413e-07
-9.2694e-09
-1.10234e-07
-9.85896e-09
-1.06873e-07
-1.04364e-08
-1.03334e-07
-1.09999e-08
-9.96231e-08
-1.15476e-08
-9.57448e-08
-1.20773e-08
-9.1706e-08
-1.25871e-08
-8.75138e-08
-1.30746e-08
-8.31763e-08
-1.35371e-08
-7.87026e-08
-1.39715e-08
-7.41029e-08
-1.43741e-08
-6.93891e-08
-1.47401e-08
-6.45749e-08
-1.50637e-08
-5.96762e-08
-1.53377e-08
-5.47119e-08
-1.55527e-08
-4.97044e-08
-1.56975e-08
-4.46803e-08
-1.57582e-08
-3.9671e-08
-1.57183e-08
-3.47137e-08
-1.55583e-08
-2.98515e-08
-1.52561e-08
-2.51346e-08
-1.47872e-08
-2.06198e-08
-1.41256e-08
-1.63705e-08
-1.32453e-08
-1.24556e-08
-1.21223e-08
-8.94786e-09
-1.07392e-08
-5.92113e-09
-9.09027e-09
-3.44755e-09
-7.19167e-09
-1.59438e-09
-5.09432e-09
-4.23425e-10
-2.90231e-09
-8.1322e-10
-4.2178e-10
1.08797e-09
-1.53996e-09
3.38871e-09
-3.25326e-09
5.61488e-09
-5.48065e-09
7.65799e-09
-8.14998e-09
9.46233e-09
-1.11942e-08
1.10037e-08
-1.45504e-08
1.22808e-08
-1.81603e-08
1.33079e-08
-2.1971e-08
1.41088e-08
-2.59354e-08
1.4712e-08
-3.00131e-08
1.51476e-08
-3.41698e-08
1.54451e-08
-3.83774e-08
1.56311e-08
-4.2613e-08
1.57294e-08
-4.68584e-08
1.57596e-08
-5.10993e-08
1.57377e-08
-5.53245e-08
1.56762e-08
-5.95252e-08
1.55844e-08
-6.36942e-08
1.54691e-08
-6.78259e-08
1.5335e-08
-7.19153e-08
1.51851e-08
-7.59581e-08
1.50212e-08
-7.99504e-08
1.48444e-08
-8.38885e-08
1.46551e-08
-8.77686e-08
1.44533e-08
-9.15871e-08
1.42387e-08
-9.53404e-08
1.40109e-08
-9.90246e-08
1.37696e-08
-1.02636e-07
1.35141e-08
-1.0617e-07
1.32439e-08
-1.09623e-07
1.29584e-08
-1.12991e-07
1.26571e-08
-1.16269e-07
1.23394e-08
-1.19453e-07
1.20048e-08
-1.22539e-07
1.16528e-08
-1.25521e-07
1.12829e-08
-1.28395e-07
1.08946e-08
-1.31156e-07
1.04874e-08
-1.33799e-07
1.0061e-08
-1.36319e-07
9.61487e-09
-1.38711e-07
9.14879e-09
-1.4097e-07
8.66241e-09
-1.4309e-07
8.15549e-09
-1.45067e-07
7.62783e-09
-1.46894e-07
7.07929e-09
-1.48567e-07
6.50983e-09
-1.50081e-07
5.91946e-09
-1.5143e-07
5.30828e-09
-1.52609e-07
4.67647e-09
-1.53614e-07
4.02432e-09
-1.54438e-07
3.35222e-09
-1.55078e-07
2.66067e-09
-1.55529e-07
1.95025e-09
-1.55786e-07
1.22171e-09
-1.55846e-07
4.75873e-10
-1.55703e-07
-2.86284e-10
-1.55355e-07
-1.06367e-09
-1.54798e-07
-1.85507e-09
-1.5403e-07
-2.65913e-09
-1.53047e-07
-3.47437e-09
-1.51847e-07
-4.29921e-09
-1.50429e-07
-5.13193e-09
-1.48791e-07
-5.97069e-09
-1.46933e-07
-6.81357e-09
-1.44854e-07
-7.65852e-09
-1.42554e-07
-8.50343e-09
-1.40035e-07
-9.34608e-09
-1.37297e-07
-1.01842e-08
-1.34343e-07
-1.10155e-08
-1.31175e-07
-1.18376e-08
-1.27796e-07
-1.26481e-08
-1.24211e-07
-1.34445e-08
-1.20423e-07
-1.42244e-08
-1.16437e-07
-1.49852e-08
-1.1226e-07
-1.57245e-08
-1.07898e-07
-1.64394e-08
-1.03358e-07
-1.7127e-08
-9.86488e-08
-1.77843e-08
-9.37783e-08
-1.84075e-08
-8.87574e-08
-1.89925e-08
-8.35975e-08
-1.9534e-08
-7.83119e-08
-2.00257e-08
-7.2916e-08
-2.04597e-08
-6.74275e-08
-2.08261e-08
-6.18676e-08
-2.11127e-08
-5.62608e-08
-2.13043e-08
-5.06363e-08
-2.13827e-08
-4.50284e-08
-2.13261e-08
-3.94774e-08
-2.11093e-08
-3.40298e-08
-2.07037e-08
-2.87393e-08
-2.00777e-08
-2.36665e-08
-1.91985e-08
-1.88787e-08
-1.80331e-08
-1.44494e-08
-1.65517e-08
-1.04568e-08
-1.47318e-08
-6.98258e-09
-1.25645e-08
-4.11046e-09
-1.00638e-08
-1.92615e-09
-7.27863e-09
-5.202e-10
-4.30826e-09
-1.33342e-09
-4.90311e-10
1.57828e-09
-1.77919e-09
4.6776e-09
-3.73566e-09
7.57135e-09
-6.25643e-09
1.01788e-08
-9.25393e-09
1.24598e-08
-1.26509e-08
1.44006e-08
-1.63776e-08
1.60075e-08
-2.03714e-08
1.73017e-08
-2.45761e-08
1.83135e-08
-2.89424e-08
1.90783e-08
-3.34279e-08
1.96331e-08
-3.79966e-08
2.00138e-08
-4.26188e-08
2.02534e-08
-4.72703e-08
2.03809e-08
-5.19317e-08
2.0421e-08
-5.65876e-08
2.03936e-08
-6.12257e-08
2.03142e-08
-6.58362e-08
2.01949e-08
-7.04113e-08
2.00442e-08
-7.49444e-08
1.98681e-08
-7.94301e-08
1.96707e-08
-8.38633e-08
1.94545e-08
-8.82397e-08
1.92208e-08
-9.25549e-08
1.89703e-08
-9.68048e-08
1.87032e-08
-1.00985e-07
1.84192e-08
-1.05092e-07
1.81179e-08
-1.09121e-07
1.77988e-08
-1.13069e-07
1.74612e-08
-1.16929e-07
1.71045e-08
-1.20699e-07
1.6728e-08
-1.24373e-07
1.63311e-08
-1.27947e-07
1.59132e-08
-1.31415e-07
1.54734e-08
-1.34774e-07
1.50113e-08
-1.38017e-07
1.45263e-08
-1.4114e-07
1.40177e-08
-1.44138e-07
1.3485e-08
-1.47005e-07
1.29276e-08
-1.49735e-07
1.23453e-08
-1.52324e-07
1.17374e-08
-1.54765e-07
1.11038e-08
-1.57054e-07
1.0444e-08
-1.59184e-07
9.75787e-09
-1.6115e-07
9.04528e-09
-1.62946e-07
8.30615e-09
-1.64567e-07
7.54055e-09
-1.66007e-07
6.74862e-09
-1.67261e-07
5.93063e-09
-1.68324e-07
5.08695e-09
-1.6919e-07
4.21811e-09
-1.69854e-07
3.32475e-09
-1.70311e-07
2.40765e-09
-1.70558e-07
1.46777e-09
-1.70588e-07
5.06175e-10
-1.70398e-07
-4.75875e-10
-1.69985e-07
-1.47698e-09
-1.69344e-07
-2.49557e-09
-1.68474e-07
-3.52993e-09
-1.6737e-07
-4.57816e-09
-1.66031e-07
-5.63824e-09
-1.64455e-07
-6.70798e-09
-1.6264e-07
-7.78503e-09
-1.60587e-07
-8.86694e-09
-1.58294e-07
-9.95112e-09
-1.55763e-07
-1.10349e-08
-1.52994e-07
-1.21154e-08
-1.49988e-07
-1.31897e-08
-1.46749e-07
-1.4255e-08
-1.43278e-07
-1.53082e-08
-1.3958e-07
-1.63463e-08
-1.35658e-07
-1.73661e-08
-1.31518e-07
-1.83644e-08
-1.27165e-07
-1.93381e-08
-1.22606e-07
-2.02839e-08
-1.17847e-07
-2.11982e-08
-1.12897e-07
-2.20773e-08
-1.07764e-07
-2.29172e-08
-1.02458e-07
-2.37132e-08
-9.69912e-08
-2.44597e-08
-9.13751e-08
-2.51501e-08
-8.56244e-08
-2.57763e-08
-7.97559e-08
-2.63282e-08
-7.37886e-08
-2.67933e-08
-6.77453e-08
-2.7156e-08
-6.16521e-08
-2.73974e-08
-5.55402e-08
-2.74946e-08
-4.94458e-08
-2.74206e-08
-4.34112e-08
-2.71439e-08
-3.74854e-08
-2.66295e-08
-3.17243e-08
-2.58387e-08
-2.61914e-08
-2.47314e-08
-2.09572e-08
-2.32673e-08
-1.60989e-08
-2.14099e-08
-1.17004e-08
-1.91303e-08
-7.85092e-09
-1.64139e-08
-4.64602e-09
-1.32687e-08
-2.1887e-09
-9.73595e-09
-5.93878e-10
-5.90308e-09
-1.9273e-09
-5.45492e-10
2.12377e-09
-1.97624e-09
6.10835e-09
-4.1384e-09
9.7335e-09
-6.90994e-09
1.29503e-08
-1.01893e-08
1.57392e-08
-1.38893e-08
1.81006e-08
-1.79336e-08
2.00518e-08
-2.22549e-08
2.1623e-08
-2.6794e-08
2.28526e-08
-3.14996e-08
2.37839e-08
-3.63276e-08
2.44611e-08
-4.12409e-08
2.4927e-08
-4.62087e-08
2.52211e-08
-5.12059e-08
2.53781e-08
-5.62122e-08
2.54274e-08
-6.12116e-08
2.53929e-08
-6.61909e-08
2.52936e-08
-7.11398e-08
2.51438e-08
-7.60497e-08
2.49542e-08
-8.09138e-08
2.47321e-08
-8.57257e-08
2.44827e-08
-9.04803e-08
2.4209e-08
-9.51724e-08
2.39129e-08
-9.97975e-08
2.35954e-08
-1.04351e-07
2.32566e-08
-1.08828e-07
2.28965e-08
-1.13225e-07
2.25146e-08
-1.17537e-07
2.21103e-08
-1.21758e-07
2.16829e-08
-1.25885e-07
2.12317e-08
-1.29913e-07
2.07558e-08
-1.33837e-07
2.02547e-08
-1.37651e-07
1.97274e-08
-1.41351e-07
1.91732e-08
-1.44931e-07
1.85914e-08
-1.48386e-07
1.79813e-08
-1.5171e-07
1.73421e-08
-1.54899e-07
1.66734e-08
-1.57945e-07
1.59745e-08
-1.60845e-07
1.52447e-08
-1.63591e-07
1.44838e-08
-1.66179e-07
1.36912e-08
-1.68601e-07
1.28667e-08
-1.70853e-07
1.20099e-08
-1.72929e-07
1.11208e-08
-1.74822e-07
1.01993e-08
-1.76527e-07
9.24555e-09
-1.78038e-07
8.25968e-09
-1.7935e-07
7.24206e-09
-1.80456e-07
6.19319e-09
-1.81351e-07
5.11373e-09
-1.82031e-07
4.00447e-09
-1.8249e-07
2.86642e-09
-1.82723e-07
1.70073e-09
-1.82725e-07
5.08763e-10
-1.82493e-07
-7.07945e-10
-1.82023e-07
-1.94766e-09
-1.8131e-07
-3.20844e-09
-1.80352e-07
-4.48817e-09
-1.79145e-07
-5.78453e-09
-1.77689e-07
-7.09502e-09
-1.7598e-07
-8.41693e-09
-1.74017e-07
-9.74742e-09
-1.71801e-07
-1.10834e-08
-1.6933e-07
-1.24218e-08
-1.66606e-07
-1.37593e-08
-1.63629e-07
-1.50923e-08
-1.60401e-07
-1.64174e-08
-1.56925e-07
-1.7731e-08
-1.53204e-07
-1.90293e-08
-1.49242e-07
-2.03086e-08
-1.45043e-07
-2.1565e-08
-1.40612e-07
-2.27947e-08
-1.35957e-07
-2.39938e-08
-1.31082e-07
-2.5158e-08
-1.25997e-07
-2.62832e-08
-1.2071e-07
-2.73647e-08
-1.1523e-07
-2.83973e-08
-1.09568e-07
-2.93755e-08
-1.03735e-07
-3.02922e-08
-9.77459e-08
-3.11394e-08
-9.16152e-08
-3.19071e-08
-8.53606e-08
-3.25828e-08
-7.90024e-08
-3.31515e-08
-7.25644e-08
-3.35941e-08
-6.60741e-08
-3.38877e-08
-5.95638e-08
-3.40049e-08
-5.30713e-08
-3.39131e-08
-4.66403e-08
-3.35749e-08
-4.03214e-08
-3.29483e-08
-3.41725e-08
-3.19876e-08
-2.82591e-08
-3.06447e-08
-2.26546e-08
-2.88719e-08
-1.744e-08
-2.66245e-08
-1.27044e-08
-2.3866e-08
-8.54483e-09
-2.05735e-08
-5.0677e-09
-1.67458e-08
-2.39094e-09
-1.24127e-08
-6.48532e-10
-7.64549e-09
-2.57583e-09
-5.89325e-10
2.7131e-09
-2.13584e-09
7.65486e-09
-4.46868e-09
1.20663e-08
-7.45071e-09
1.59323e-08
-1.09683e-08
1.92568e-08
-1.49254e-08
2.20576e-08
-1.9239e-08
2.43655e-08
-2.38376e-08
2.62215e-08
-2.86589e-08
2.7674e-08
-3.36496e-08
2.87746e-08
-3.87642e-08
2.95757e-08
-4.39647e-08
3.01275e-08
-4.92196e-08
3.0476e-08
-5.45032e-08
3.06617e-08
-5.97946e-08
3.07188e-08
-6.50771e-08
3.06755e-08
-7.03375e-08
3.05539e-08
-7.55647e-08
3.0371e-08
-8.07499e-08
3.01394e-08
-8.58856e-08
2.98678e-08
-9.09653e-08
2.95624e-08
-9.59833e-08
2.9227e-08
-1.00934e-07
2.88639e-08
-1.05813e-07
2.84743e-08
-1.10615e-07
2.80587e-08
-1.15336e-07
2.76168e-08
-1.19969e-07
2.71484e-08
-1.24512e-07
2.66527e-08
-1.28958e-07
2.61291e-08
-1.33303e-07
2.55766e-08
-1.37542e-07
2.49945e-08
-1.41669e-07
2.43818e-08
-1.45679e-07
2.37378e-08
-1.49567e-07
2.30614e-08
-1.53328e-07
2.2352e-08
-1.56955e-07
2.16087e-08
-1.60444e-07
2.08307e-08
-1.63788e-07
2.00173e-08
-1.66981e-07
1.91679e-08
-1.70018e-07
1.82818e-08
-1.72893e-07
1.73584e-08
-1.75599e-07
1.63974e-08
-1.78131e-07
1.53984e-08
-1.80482e-07
1.43611e-08
-1.82647e-07
1.32854e-08
-1.84619e-07
1.21712e-08
-1.86392e-07
1.10187e-08
-1.8796e-07
9.8281e-09
-1.89318e-07
8.59991e-09
-1.9046e-07
7.33471e-09
-1.91379e-07
6.03329e-09
-1.92071e-07
4.69664e-09
-1.92531e-07
3.32596e-09
-1.92753e-07
1.92264e-09
-1.92732e-07
4.88323e-10
-1.92465e-07
-9.75149e-10
-1.91947e-07
-2.46569e-09
-1.91174e-07
-3.98099e-09
-1.90144e-07
-5.51851e-09
-1.88853e-07
-7.07546e-09
-1.87299e-07
-8.64886e-09
-1.85481e-07
-1.02355e-08
-1.83396e-07
-1.18319e-08
-1.81045e-07
-1.34346e-08
-1.78427e-07
-1.50396e-08
-1.75544e-07
-1.6643e-08
-1.72395e-07
-1.82408e-08
-1.68984e-07
-1.98287e-08
-1.65312e-07
-2.14024e-08
-1.61384e-07
-2.29574e-08
-1.57204e-07
-2.44893e-08
-1.52775e-07
-2.59934e-08
-1.48105e-07
-2.74652e-08
-1.43199e-07
-2.88999e-08
-1.38064e-07
-3.02925e-08
-1.3271e-07
-3.16379e-08
-1.27144e-07
-3.29305e-08
-1.21377e-07
-3.41644e-08
-1.1542e-07
-3.53324e-08
-1.09285e-07
-3.64264e-08
-1.02988e-07
-3.74368e-08
-9.65435e-08
-3.83516e-08
-8.99703e-08
-3.91561e-08
-8.32895e-08
-3.98322e-08
-7.65257e-08
-4.03579e-08
-6.97075e-08
-4.0706e-08
-6.2868e-08
-4.08444e-08
-5.60461e-08
-4.0735e-08
-4.92866e-08
-4.03343e-08
-4.26416e-08
-3.95934e-08
-3.61705e-08
-3.84588e-08
-2.99406e-08
-3.68746e-08
-2.40281e-08
-3.47843e-08
-1.85179e-08
-3.21348e-08
-1.35039e-08
-2.88799e-08
-9.09064e-09
-2.49868e-08
-5.39393e-09
-2.04425e-08
-2.54384e-09
-1.52628e-08
-6.88298e-10
-9.50102e-09
-3.26413e-09
-6.23738e-10
3.33684e-09
-2.26336e-09
9.29449e-09
-4.73565e-09
1.45386e-08
-7.89174e-09
1.90884e-08
-1.1608e-08
2.29731e-08
-1.57805e-08
2.62301e-08
-2.03204e-08
2.89055e-08
-2.5152e-08
3.10531e-08
-3.02101e-08
3.27321e-08
-3.54394e-08
3.40039e-08
-4.07932e-08
3.49295e-08
-4.62326e-08
3.55669e-08
-5.17255e-08
3.59689e-08
-5.72458e-08
3.61819e-08
-6.27723e-08
3.62453e-08
-6.82881e-08
3.61912e-08
-7.37794e-08
3.60452e-08
-7.92352e-08
3.58268e-08
-8.46462e-08
3.55504e-08
-9.00047e-08
3.52263e-08
-9.5304e-08
3.48617e-08
-1.00538e-07
3.4461e-08
-1.05701e-07
3.40271e-08
-1.10788e-07
3.35613e-08
-1.15794e-07
3.30644e-08
-1.20713e-07
3.25363e-08
-1.25542e-07
3.19766e-08
-1.30273e-07
3.13846e-08
-1.34904e-07
3.07595e-08
-1.39428e-07
3.01003e-08
-1.43839e-07
2.94063e-08
-1.48134e-07
2.86764e-08
-1.52306e-07
2.79096e-08
-1.56349e-07
2.71049e-08
-1.60259e-07
2.62615e-08
-1.64029e-07
2.53785e-08
-1.67653e-07
2.44549e-08
-1.71125e-07
2.349e-08
-1.7444e-07
2.24829e-08
-1.77592e-07
2.14332e-08
-1.80573e-07
2.034e-08
-1.83379e-07
1.9203e-08
-1.86002e-07
1.80217e-08
-1.88437e-07
1.67959e-08
-1.90677e-07
1.55253e-08
-1.92716e-07
1.42101e-08
-1.94548e-07
1.28503e-08
-1.96166e-07
1.14464e-08
-1.97565e-07
9.99873e-09
-1.98738e-07
8.50814e-09
-1.9968e-07
6.97554e-09
-2.00386e-07
5.4021e-09
-2.00849e-07
3.78922e-09
-2.01065e-07
2.13856e-09
-2.01029e-07
4.52014e-10
-2.00736e-07
-1.26824e-09
-2.00181e-07
-3.01976e-09
-1.99363e-07
-4.79985e-09
-1.98276e-07
-6.60552e-09
-1.96918e-07
-8.43353e-09
-1.95286e-07
-1.02804e-08
-1.93379e-07
-1.21423e-08
-1.91196e-07
-1.40153e-08
-1.88735e-07
-1.58951e-08
-1.85997e-07
-1.77774e-08
-1.82983e-07
-1.96574e-08
-1.79694e-07
-2.15304e-08
-1.76131e-07
-2.33914e-08
-1.72298e-07
-2.52353e-08
-1.68198e-07
-2.70571e-08
-1.63836e-07
-2.88513e-08
-1.59217e-07
-3.06126e-08
-1.54347e-07
-3.23357e-08
-1.49232e-07
-3.40148e-08
-1.4388e-07
-3.56443e-08
-1.383e-07
-3.7218e-08
-1.32501e-07
-3.87295e-08
-1.26494e-07
-4.01716e-08
-1.2029e-07
-4.15361e-08
-1.13903e-07
-4.28136e-08
-1.07347e-07
-4.39926e-08
-1.00639e-07
-4.50593e-08
-9.37987e-08
-4.59966e-08
-8.68471e-08
-4.67838e-08
-7.98097e-08
-4.73952e-08
-7.27158e-08
-4.77999e-08
-6.55996e-08
-4.79606e-08
-5.85006e-08
-4.7834e-08
-5.14647e-08
-4.73702e-08
-4.45452e-08
-4.65129e-08
-3.78028e-08
-4.52011e-08
-3.13072e-08
-4.33702e-08
-2.51368e-08
-4.09547e-08
-1.93803e-08
-3.78913e-08
-1.41366e-08
-3.41236e-08
-9.51647e-09
-2.96069e-08
-5.64385e-09
-2.43152e-08
-2.65812e-09
-1.82485e-08
-7.16829e-10
-1.14423e-08
-3.98095e-09
-6.50494e-10
3.98733e-09
-2.36416e-09
1.10082e-08
-4.94908e-09
1.71235e-08
-8.24744e-09
2.23868e-08
-1.21277e-08
2.68534e-08
-1.6479e-08
3.05815e-08
-2.12077e-08
3.36341e-08
-2.62339e-08
3.60793e-08
-3.14898e-08
3.7988e-08
-3.69183e-08
3.94323e-08
-4.24714e-08
4.04826e-08
-4.81093e-08
4.12049e-08
-5.37996e-08
4.16592e-08
-5.95158e-08
4.18981e-08
-6.52365e-08
4.1966e-08
-7.09446e-08
4.18993e-08
-7.66262e-08
4.17268e-08
-8.227e-08
4.14706e-08
-8.78667e-08
4.11471e-08
-9.34084e-08
4.0768e-08
-9.88881e-08
4.03414e-08
-1.043e-07
3.98726e-08
-1.09637e-07
3.93647e-08
-1.14896e-07
3.88197e-08
-1.20069e-07
3.82381e-08
-1.25153e-07
3.76202e-08
-1.30142e-07
3.69654e-08
-1.3503e-07
3.62731e-08
-1.39813e-07
3.55425e-08
-1.44486e-07
3.47725e-08
-1.49041e-07
3.39621e-08
-1.53475e-07
3.31104e-08
-1.57782e-07
3.22162e-08
-1.61956e-07
3.12784e-08
-1.6599e-07
3.02961e-08
-1.6988e-07
2.92682e-08
-1.73619e-07
2.81938e-08
-1.77201e-07
2.70719e-08
-1.8062e-07
2.59018e-08
-1.83869e-07
2.46827e-08
-1.86943e-07
2.34139e-08
-1.89835e-07
2.20948e-08
-1.92538e-07
2.07251e-08
-1.95047e-07
1.93045e-08
-1.97354e-07
1.78327e-08
-1.99454e-07
1.63097e-08
-2.01339e-07
1.47359e-08
-2.03004e-07
1.31116e-08
-2.04443e-07
1.14373e-08
-2.05649e-07
9.71397e-09
-2.06616e-07
7.94266e-09
-2.07339e-07
6.12472e-09
-2.07811e-07
4.26175e-09
-2.08028e-07
2.35566e-09
-2.07985e-07
4.08644e-10
-2.07676e-07
-1.57681e-09
-2.07098e-07
-3.59789e-09
-2.06247e-07
-5.6515e-09
-2.05118e-07
-7.7342e-09
-2.03709e-07
-9.84227e-09
-2.02018e-07
-1.19717e-08
-2.00042e-07
-1.41181e-08
-1.9778e-07
-1.62769e-08
-1.95232e-07
-1.84433e-08
-1.92397e-07
-2.06121e-08
-1.89277e-07
-2.2778e-08
-1.85872e-07
-2.49355e-08
-1.82184e-07
-2.70789e-08
-1.78217e-07
-2.92022e-08
-1.73975e-07
-3.12997e-08
-1.69461e-07
-3.3365e-08
-1.64681e-07
-3.53922e-08
-1.59642e-07
-3.73748e-08
-1.54351e-07
-3.93065e-08
-1.48814e-07
-4.11805e-08
-1.43042e-07
-4.29899e-08
-1.37045e-07
-4.47272e-08
-1.30832e-07
-4.6384e-08
-1.24417e-07
-4.7951e-08
-1.17814e-07
-4.94174e-08
-1.11036e-07
-5.07699e-08
-1.04103e-07
-5.19929e-08
-9.70324e-08
-5.30669e-08
-8.9848e-08
-5.39683e-08
-8.25752e-08
-5.4668e-08
-7.52442e-08
-5.51309e-08
-6.78896e-08
-5.53151e-08
-6.05521e-08
-5.51716e-08
-5.32785e-08
-5.46437e-08
-4.61232e-08
-5.36683e-08
-3.91485e-08
-5.21758e-08
-3.2426e-08
-5.00927e-08
-2.60369e-08
-4.73437e-08
-2.00733e-08
-4.3855e-08
-1.46385e-08
-3.95583e-08
-9.84903e-09
-3.43964e-08
-5.8352e-09
-2.8329e-08
-2.74332e-09
-2.13404e-08
-7.37165e-10
-1.34485e-08
-4.71812e-09
-6.71168e-10
4.6585e-09
-2.44332e-09
1.27803e-08
-5.11853e-09
1.97988e-08
-8.53236e-09
2.58006e-08
-1.2547e-08
3.08679e-08
-1.70461e-08
3.50806e-08
-2.19315e-08
3.85195e-08
-2.71199e-08
4.12677e-08
-3.2541e-08
4.34091e-08
-3.81357e-08
4.50271e-08
-4.38551e-08
4.62019e-08
-4.96586e-08
4.70084e-08
-5.55132e-08
4.75138e-08
-6.13922e-08
4.77771e-08
-6.72741e-08
4.78479e-08
-7.31416e-08
4.77668e-08
-7.89807e-08
4.7566e-08
-8.47803e-08
4.72701e-08
-9.05307e-08
4.68975e-08
-9.62241e-08
4.64614e-08
-1.01853e-07
4.59707e-08
-1.07412e-07
4.54315e-08
-1.12895e-07
4.48474e-08
-1.18296e-07
4.42205e-08
-1.23609e-07
4.35518e-08
-1.28831e-07
4.28413e-08
-1.33954e-07
4.20886e-08
-1.38974e-07
4.12931e-08
-1.43885e-07
4.04539e-08
-1.48683e-07
3.95699e-08
-1.53361e-07
3.864e-08
-1.57913e-07
3.76631e-08
-1.62335e-07
3.6638e-08
-1.6662e-07
3.55635e-08
-1.70763e-07
3.44385e-08
-1.74756e-07
3.32619e-08
-1.78595e-07
3.20327e-08
-1.82273e-07
3.07499e-08
-1.85784e-07
2.94125e-08
-1.89121e-07
2.80197e-08
-1.92278e-07
2.65708e-08
-1.95248e-07
2.50651e-08
-1.98025e-07
2.35023e-08
-2.00603e-07
2.18819e-08
-2.02974e-07
2.02037e-08
-2.05132e-07
1.84679e-08
-2.07071e-07
1.66746e-08
-2.08783e-07
1.48242e-08
-2.10264e-07
1.29176e-08
-2.11505e-07
1.09555e-08
-2.12502e-07
8.93933e-09
-2.13248e-07
6.87049e-09
-2.13737e-07
4.75084e-09
-2.13963e-07
2.58251e-09
-2.13923e-07
3.68001e-10
-2.1361e-07
-1.88988e-09
-2.1302e-07
-4.18796e-09
-2.12148e-07
-6.52272e-09
-2.10992e-07
-8.89028e-09
-2.09548e-07
-1.12864e-08
-2.07813e-07
-1.37066e-08
-2.05786e-07
-1.61458e-08
-2.03464e-07
-1.85989e-08
-2.00847e-07
-2.10604e-08
-1.97934e-07
-2.35244e-08
-1.94728e-07
-2.59848e-08
-1.91228e-07
-2.84355e-08
-1.87437e-07
-3.08698e-08