/*--------------------------------*- C++ -*----------------------------------*\
  =========                 |
  \\      /  F ield         | OpenFOAM: The Open Source CFD Toolbox
   \\    /   O peration     | Website:  https://openfoam.org
    \\  /    A nd           | Version:  9
     \\/     M anipulation  |
\*---------------------------------------------------------------------------*/
FoamFile
{
    format      ascii;
    class       volVectorField;
    location    "0.25";
    object      U;
}
// * * * * * * * * * * * * * * * * * * * * * * * * * * * * * * * * * * * * * //

dimensions      [0 1 -1 0 0 0 0];

internalField   nonuniform List<vector> 
10000
(
(3.69611e-06 -3.6943e-06 0)
(6.81454e-06 -1.7702e-06 0)
(-1.45729e-07 2.20136e-06 0)
(-1.84227e-05 6.04187e-06 0)
(-4.69074e-05 9.21496e-06 0)
(-8.38714e-05 1.16508e-05 0)
(-0.000127544 1.34449e-05 0)
(-0.000176329 1.47248e-05 0)
(-0.00022889 1.56061e-05 0)
(-0.000284137 1.61843e-05 0)
(-0.000341212 1.65367e-05 0)
(-0.00039945 1.6725e-05 0)
(-0.000458349 1.67974e-05 0)
(-0.000517543 1.67908e-05 0)
(-0.00057677 1.67326e-05 0)
(-0.000635846 1.66421e-05 0)
(-0.000694646 1.65323e-05 0)
(-0.000753086 1.64113e-05 0)
(-0.00081111 1.62837e-05 0)
(-0.000868674 1.61519e-05 0)
(-0.000925747 1.60162e-05 0)
(-0.0009823 1.5876e-05 0)
(-0.0010383 1.57303e-05 0)
(-0.00109372 1.55775e-05 0)
(-0.00114853 1.54161e-05 0)
(-0.00120268 1.52446e-05 0)
(-0.00125614 1.50616e-05 0)
(-0.00130886 1.48657e-05 0)
(-0.00136079 1.46557e-05 0)
(-0.00141187 1.44304e-05 0)
(-0.00146206 1.41887e-05 0)
(-0.0015113 1.39295e-05 0)
(-0.00155951 1.3652e-05 0)
(-0.00160664 1.3355e-05 0)
(-0.00165262 1.30376e-05 0)
(-0.00169737 1.26989e-05 0)
(-0.00174083 1.23381e-05 0)
(-0.00178291 1.19541e-05 0)
(-0.00182353 1.15463e-05 0)
(-0.00186262 1.11139e-05 0)
(-0.0019001 1.06561e-05 0)
(-0.00193587 1.01722e-05 0)
(-0.00196985 9.66159e-06 0)
(-0.00200194 9.12379e-06 0)
(-0.00203207 8.55836e-06 0)
(-0.00206013 7.96497e-06 0)
(-0.00208604 7.34339e-06 0)
(-0.0021097 6.69349e-06 0)
(-0.00213102 6.01526e-06 0)
(-0.0021499 5.30883e-06 0)
(-0.00216627 4.57449e-06 0)
(-0.00218001 3.81268e-06 0)
(-0.00219106 3.02401e-06 0)
(-0.00219932 2.20927e-06 0)
(-0.00220471 1.36944e-06 0)
(-0.00220716 5.05701e-07 0)
(-0.00220657 -3.80679e-07 0)
(-0.0022029 -1.28821e-06 0)
(-0.00219607 -2.2151e-06 0)
(-0.00218602 -3.15943e-06 0)
(-0.0021727 -4.11909e-06 0)
(-0.00215607 -5.09179e-06 0)
(-0.00213609 -6.07507e-06 0)
(-0.00211272 -7.06631e-06 0)
(-0.00208596 -8.06272e-06 0)
(-0.00205579 -9.0614e-06 0)
(-0.0020222 -1.00593e-05 0)
(-0.00198521 -1.10533e-05 0)
(-0.00194484 -1.20402e-05 0)
(-0.00190111 -1.30168e-05 0)
(-0.00185407 -1.39798e-05 0)
(-0.00180376 -1.4926e-05 0)
(-0.00175024 -1.58524e-05 0)
(-0.0016936 -1.67556e-05 0)
(-0.0016339 -1.76328e-05 0)
(-0.00157124 -1.84808e-05 0)
(-0.00150573 -1.92968e-05 0)
(-0.00143747 -2.00776e-05 0)
(-0.0013666 -2.082e-05 0)
(-0.00129325 -2.15202e-05 0)
(-0.00121758 -2.21738e-05 0)
(-0.00113976 -2.27751e-05 0)
(-0.00105999 -2.33169e-05 0)
(-0.000978502 -2.37894e-05 0)
(-0.000895574 -2.41796e-05 0)
(-0.000811529 -2.44706e-05 0)
(-0.000726766 -2.464e-05 0)
(-0.000641768 -2.46589e-05 0)
(-0.000557131 -2.44909e-05 0)
(-0.00047358 -2.409e-05 0)
(-0.000392006 -2.3399e-05 0)
(-0.000313488 -2.23468e-05 0)
(-0.000239331 -2.08447e-05 0)
(-0.000171096 -1.87821e-05 0)
(-0.000110632 -1.60229e-05 0)
(-6.00744e-05 -1.24148e-05 0)
(-2.1735e-05 -7.8535e-06 0)
(2.14348e-06 -2.47492e-06 0)
(1.04075e-05 2.96696e-06 0)
(5.30722e-06 5.30873e-06 0)
(1.79737e-06 -6.83641e-06 0)
(-6.18189e-06 6.1906e-06 0)
(-3.81568e-05 2.6176e-05 0)
(-9.4591e-05 4.60208e-05 0)
(-0.000173889 6.34232e-05 0)
(-0.000273156 7.77159e-05 0)
(-0.000388951 8.89621e-05 0)
(-0.000517892 9.75133e-05 0)
(-0.000656937 0.000103797 0)
(-0.000803473 0.000108236 0)
(-0.000955336 0.000111215 0)
(-0.00111078 0.000113066 0)
(-0.00126846 0.00011407 0)
(-0.00142731 0.000114452 0)
(-0.00158658 0.000114391 0)
(-0.00174569 0.000114018 0)
(-0.00190423 0.000113431 0)
(-0.00206191 0.000112696 0)
(-0.00221852 0.000111856 0)
(-0.00237389 0.000110937 0)
(-0.0025279 0.000109952 0)
(-0.00268045 0.000108906 0)
(-0.00283141 0.000107798 0)
(-0.00298071 0.000106625 0)
(-0.00312822 0.00010538 0)
(-0.00327383 0.000104057 0)
(-0.00341743 0.000102649 0)
(-0.0035589 0.00010115 0)
(-0.00369809 9.95514e-05 0)
(-0.00383486 9.7848e-05 0)
(-0.00396906 9.60333e-05 0)
(-0.00410054 9.41014e-05 0)
(-0.00422913 9.20465e-05 0)
(-0.00435465 8.98629e-05 0)
(-0.00447692 8.75452e-05 0)
(-0.00459577 8.50881e-05 0)
(-0.004711 8.24865e-05 0)
(-0.0048224 7.97356e-05 0)
(-0.00492977 7.68307e-05 0)
(-0.00503291 7.37676e-05 0)
(-0.0051316 7.05423e-05 0)
(-0.00522561 6.7151e-05 0)
(-0.00531473 6.35906e-05 0)
(-0.00539873 5.98583e-05 0)
(-0.00547737 5.59521e-05 0)
(-0.00555043 5.18703e-05 0)
(-0.00561767 4.7612e-05 0)
(-0.00567885 4.3177e-05 0)
(-0.00573375 3.85656e-05 0)
(-0.00578213 3.37794e-05 0)
(-0.00582377 2.88205e-05 0)
(-0.00585843 2.36922e-05 0)
(-0.0058859 1.83986e-05 0)
(-0.00590596 1.29449e-05 0)
(-0.00591842 7.33767e-06 0)
(-0.00592307 1.58439e-06 0)
(-0.00591973 -4.30734e-06 0)
(-0.00590823 -1.03269e-05 0)
(-0.00588841 -1.64635e-05 0)
(-0.00586011 -2.27053e-05 0)
(-0.00582323 -2.90392e-05 0)
(-0.00577764 -3.54509e-05 0)
(-0.00572326 -4.19252e-05 0)
(-0.00566002 -4.84459e-05 0)
(-0.00558787 -5.49958e-05 0)
(-0.00550679 -6.1557e-05 0)
(-0.00541677 -6.81109e-05 0)
(-0.00531785 -7.46382e-05 0)
(-0.00521008 -8.11192e-05 0)
(-0.00509352 -8.75342e-05 0)
(-0.00496829 -9.38628e-05 0)
(-0.00483451 -0.000100085 0)
(-0.00469235 -0.000106181 0)
(-0.00454197 -0.00011213 0)
(-0.00438361 -0.000117912 0)
(-0.00421748 -0.000123508 0)
(-0.00404387 -0.000128895 0)
(-0.00386306 -0.000134052 0)
(-0.0036754 -0.000138953 0)
(-0.00348124 -0.00014357 0)
(-0.00328101 -0.000147868 0)
(-0.00307518 -0.000151803 0)
(-0.00286428 -0.000155319 0)
(-0.00264896 -0.000158344 0)
(-0.00242997 -0.000160783 0)
(-0.0022082 -0.000162518 0)
(-0.00198474 -0.000163396 0)
(-0.00176091 -0.000163228 0)
(-0.0015383 -0.000161781 0)
(-0.00131883 -0.000158776 0)
(-0.00110484 -0.00015388 0)
(-0.000899067 -0.00014671 0)
(-0.00070476 -0.000136827 0)
(-0.000525659 -0.000123757 0)
(-0.000365968 -0.000107021 0)
(-0.000230232 -8.62473e-05 0)
(-0.000122953 -6.14653e-05 0)
(-4.77839e-05 -3.37421e-05 0)
(-6.35219e-06 -6.41031e-06 0)
(2.94582e-06 1.03759e-05 0)
(-2.20099e-06 1.146e-07 0)
(-2.63854e-05 3.82042e-05 0)
(-8.78826e-05 8.73736e-05 0)
(-0.000183227 0.000136107 0)
(-0.000309795 0.000179804 0)
(-0.000464114 0.000216708 0)
(-0.000641868 0.000246564 0)
(-0.000838661 0.000269874 0)
(-0.0010504 0.000287454 0)
(-0.00127348 0.000300218 0)
(-0.00150482 0.000309061 0)
(-0.00174187 0.000314798 0)
(-0.0019826 0.000318137 0)
(-0.00222542 0.000319669 0)
(-0.00246911 0.00031987 0)
(-0.00271276 0.000319105 0)
(-0.00295567 0.000317647 0)
(-0.00319735 0.000315692 0)
(-0.00343742 0.000313372 0)
(-0.00367559 0.000310769 0)
(-0.00391163 0.000307933 0)
(-0.00414533 0.000304887 0)
(-0.00437651 0.000301639 0)
(-0.00460499 0.000298184 0)
(-0.0048306 0.000294513 0)
(-0.00505315 0.00029061 0)
(-0.00527246 0.000286462 0)
(-0.00548831 0.00028205 0)
(-0.00570051 0.00027736 0)
(-0.00590884 0.000272375 0)
(-0.00611305 0.000267079 0)
(-0.00631291 0.000261458 0)
(-0.00650817 0.000255496 0)
(-0.00669856 0.00024918 0)
(-0.00688383 0.000242495 0)
(-0.00706368 0.000235429 0)
(-0.00723782 0.000227969 0)
(-0.00740598 0.000220102 0)
(-0.00756783 0.000211817 0)
(-0.00772307 0.000203103 0)
(-0.00787137 0.00019395 0)
(-0.00801242 0.000184349 0)
(-0.00814589 0.000174294 0)
(-0.00827144 0.000163776 0)
(-0.00838874 0.000152792 0)
(-0.00849743 0.000141338 0)
(-0.0085972 0.000129412 0)
(-0.00868768 0.000117014 0)
(-0.00876856 0.000104146 0)
(-0.00883948 9.08136e-05 0)
(-0.00890012 7.70225e-05 0)
(-0.00895015 6.27823e-05 0)
(-0.00898926 4.81046e-05 0)
(-0.00901714 3.30041e-05 0)
(-0.00903349 1.7498e-05 0)
(-0.00903804 1.6065e-06 0)
(-0.00903053 -1.46461e-05 0)
(-0.00901069 -3.12345e-05 0)
(-0.00897832 -4.81295e-05 0)
(-0.00893321 -6.52987e-05 0)
(-0.00887517 -8.27071e-05 0)
(-0.00880407 -0.000100317 0)
(-0.00871976 -0.000118087 0)
(-0.00862217 -0.000135974 0)
(-0.00851122 -0.000153933 0)
(-0.0083869 -0.000171916 0)
(-0.0082492 -0.000189873 0)
(-0.00809818 -0.000207754 0)
(-0.00793391 -0.000225507 0)
(-0.00775651 -0.000243077 0)
(-0.00756614 -0.000260412 0)
(-0.00736299 -0.000277458 0)
(-0.00714731 -0.00029416 0)
(-0.00691936 -0.000310463 0)
(-0.00667947 -0.000326313 0)
(-0.00642798 -0.000341654 0)
(-0.00616531 -0.000356425 0)
(-0.00589189 -0.000370563 0)
(-0.00560824 -0.000383996 0)
(-0.0053149 -0.000396639 0)
(-0.00501252 -0.000408391 0)
(-0.00470181 -0.000419123 0)
(-0.0043836 -0.000428675 0)
(-0.00405888 -0.000436837 0)
(-0.00372879 -0.000443347 0)
(-0.00339471 -0.00044787 0)
(-0.00305829 -0.00044999 0)
(-0.0027215 -0.000449192 0)
(-0.00238675 -0.000444862 0)
(-0.00205687 -0.00043627 0)
(-0.00173527 -0.000422578 0)
(-0.00142591 -0.000402848 0)
(-0.00113337 -0.000376075 0)
(-0.000862799 -0.00034125 0)
(-0.000619852 -0.000297508 0)
(-0.000410434 -0.000244417 0)
(-0.000240183 -0.000182592 0)
(-0.000113429 -0.000114763 0)
(-3.30494e-05 -4.76889e-05 0)
(-2.37577e-06 2.20217e-06 0)
(-6.14512e-06 1.85875e-05 0)
(-4.68512e-05 9.51924e-05 0)
(-0.000138183 0.000183035 0)
(-0.000271309 0.000268493 0)
(-0.000441832 0.000345372 0)
(-0.000645588 0.00041101 0)
(-0.000877603 0.000464838 0)
(-0.00113281 0.00050747 0)
(-0.00140648 0.000540106 0)
(-0.00169434 0.00056418 0)
(-0.0019927 0.000581158 0)
(-0.00229847 0.000592423 0)
(-0.00260912 0.000599203 0)
(-0.00292262 0.000602544 0)
(-0.00323742 0.000603302 0)
(-0.00355229 0.000602147 0)
(-0.00386632 0.000599591 0)
(-0.00417881 0.000596002 0)
(-0.00448924 0.000591639 0)
(-0.00479718 0.000586671 0)
(-0.00510229 0.000581201 0)
(-0.00540428 0.000575286 0)
(-0.00570289 0.000568948 0)
(-0.00599786 0.00056219 0)
(-0.00628896 0.000554998 0)
(-0.00657592 0.000547354 0)
(-0.0068585 0.000539232 0)
(-0.00713643 0.000530606 0)
(-0.00740942 0.000521449 0)
(-0.0076772 0.000511734 0)
(-0.00793946 0.000501433 0)
(-0.0081959 0.000490522 0)
(-0.00844618 0.000478973 0)
(-0.00868999 0.000466763 0)
(-0.00892697 0.000453867 0)
(-0.00915676 0.000440263 0)
(-0.00937901 0.000425928 0)
(-0.00959335 0.000410841 0)
(-0.00979938 0.000394983 0)
(-0.00999672 0.000378334 0)
(-0.010185 0.000360879 0)
(-0.0103637 0.000342601 0)
(-0.0105326 0.000323489 0)
(-0.0106911 0.000303532 0)
(-0.0108389 0.000282722 0)
(-0.0109755 0.000261054 0)
(-0.0111006 0.000238526 0)
(-0.0112136 0.00021514 0)
(-0.0113143 0.0001909 0)
(-0.0114021 0.000165815 0)
(-0.0114766 0.0001399 0)
(-0.0115376 0.000113172 0)
(-0.0115845 8.56541e-05 0)
(-0.011617 5.73728e-05 0)
(-0.0116347 2.8361e-05 0)
(-0.0116374 -1.34382e-06 0)
(-0.0116247 -3.16969e-05 0)
(-0.0115962 -6.26513e-05 0)
(-0.0115518 -9.41532e-05 0)
(-0.0114912 -0.000126143 0)
(-0.0114141 -0.000158557 0)
(-0.0113205 -0.000191326 0)
(-0.01121 -0.000224374 0)
(-0.0110828 -0.000257624 0)
(-0.0109386 -0.000290992 0)
(-0.0107774 -0.000324392 0)
(-0.0105993 -0.000357733 0)
(-0.0104044 -0.000390923 0)
(-0.0101927 -0.000423867 0)
(-0.00996445 -0.000456468 0)
(-0.00971978 -0.000488628 0)
(-0.00945899 -0.000520248 0)
(-0.00918236 -0.000551229 0)
(-0.00889025 -0.00058147 0)
(-0.00858306 -0.000610868 0)
(-0.00826126 -0.000639319 0)
(-0.00792535 -0.00066671 0)
(-0.0075759 -0.000692919 0)
(-0.00721356 -0.000717808 0)
(-0.00683904 -0.000741216 0)
(-0.00645316 -0.000762946 0)
(-0.00605685 -0.000782753 0)
(-0.00565118 -0.00080033 0)
(-0.00523739 -0.000815284 0)
(-0.00481698 -0.000827121 0)
(-0.00439168 -0.000835223 0)
(-0.00396359 -0.000838822 0)
(-0.00353521 -0.000836992 0)
(-0.00310953 -0.000828626 0)
(-0.00269008 -0.000812441 0)
(-0.00228099 -0.000786988 0)
(-0.00188708 -0.000750687 0)
(-0.00151378 -0.000701904 0)
(-0.00116717 -0.000639088 0)
(-0.00085377 -0.000561026 0)
(-0.000580361 -0.000467313 0)
(-0.000353405 -0.000359185 0)
(-0.000178057 -0.000240837 0)
(-5.93737e-05 -0.000121548 0)
(-7.46865e-06 -2.10314e-05 0)
(-9.50759e-06 4.77185e-05 0)
(-6.53216e-05 0.000176093 0)
(-0.000184557 0.000311302 0)
(-0.000352788 0.000439769 0)
(-0.000563458 0.000554792 0)
(-0.000811487 0.000653328 0)
(-0.00109122 0.000734714 0)
(-0.00139706 0.000799746 0)
(-0.00172379 0.000850023 0)
(-0.00206674 0.000887513 0)
(-0.00242179 0.000914278 0)
(-0.00278549 0.000932301 0)
(-0.00315495 0.000943377 0)
(-0.00352784 0.000949053 0)
(-0.00390234 0.000950613 0)
(-0.004277 0.00094908 0)
(-0.00465071 0.000945239 0)
(-0.00502262 0.00093967 0)
(-0.00539204 0.000932784 0)
(-0.00575847 0.000924858 0)
(-0.00612144 0.000916065 0)
(-0.00648059 0.000906508 0)
(-0.00683558 0.000896233 0)
(-0.00718608 0.000885254 0)
(-0.00753179 0.000873561 0)
(-0.00787239 0.00086113 0)
(-0.00820758 0.000847929 0)
(-0.00853701 0.000833922 0)
(-0.00886037 0.00081907 0)
(-0.0091773 0.000803336 0)
(-0.00948746 0.00078668 0)
(-0.00979046 0.000769064 0)
(-0.0100859 0.000750452 0)
(-0.0103735 0.000730806 0)
(-0.0106527 0.000710094 0)
(-0.0109232 0.000688279 0)
(-0.0111845 0.000665331 0)
(-0.0114362 0.000641219 0)
(-0.0116779 0.000615914 0)
(-0.0119091 0.00058939 0)
(-0.0121293 0.000561621 0)
(-0.0123381 0.000532589 0)
(-0.012535 0.000502274 0)
(-0.0127195 0.000470662 0)
(-0.0128912 0.000437742 0)
(-0.0130496 0.000403509 0)
(-0.0131941 0.000367962 0)
(-0.0133243 0.000331103 0)
(-0.0134398 0.000292944 0)
(-0.01354 0.000253499 0)
(-0.0136246 0.000212791 0)
(-0.013693 0.000170848 0)
(-0.0137448 0.000127706 0)
(-0.0137796 8.34093e-05 0)
(-0.013797 3.80085e-05 0)
(-0.0137966 -8.43733e-06 0)
(-0.013778 -5.58619e-05 0)
(-0.013741 -0.000104189 0)
(-0.0136853 -0.000153337 0)
(-0.0136105 -0.000203213 0)
(-0.0135164 -0.000253719 0)
(-0.0134028 -0.000304747 0)
(-0.0132697 -0.000356185 0)
(-0.0131168 -0.000407911 0)
(-0.0129442 -0.000459798 0)
(-0.0127517 -0.000511714 0)
(-0.0125395 -0.00056352 0)
(-0.0123076 -0.000615075 0)
(-0.0120562 -0.000666232 0)
(-0.0117854 -0.000716845 0)
(-0.0114955 -0.000766763 0)
(-0.0111869 -0.000815835 0)
(-0.0108598 -0.000863906 0)
(-0.0105147 -0.000910821 0)
(-0.0101521 -0.000956422 0)
(-0.00977242 -0.00100054 0)
(-0.0093764 -0.00104301 0)
(-0.00896467 -0.00108362 0)
(-0.00853798 -0.00112217 0)
(-0.00809719 -0.0011584 0)
(-0.00764325 -0.00119199 0)
(-0.00717726 -0.00122255 0)
(-0.0067005 -0.00124961 0)
(-0.00621442 -0.00127255 0)
(-0.00572077 -0.00129061 0)
(-0.00522159 -0.00130282 0)
(-0.00471931 -0.00130804 0)
(-0.0042168 -0.00130484 0)
(-0.00371748 -0.00129159 0)
(-0.00322536 -0.00126638 0)
(-0.00274509 -0.00122712 0)
(-0.00228202 -0.00117154 0)
(-0.00184218 -0.00109738 0)
(-0.00143221 -0.00100254 0)
(-0.00105924 -0.000885458 0)
(-0.000730733 -0.000745701 0)
(-0.000453974 -0.000584878 0)
(-0.000235207 -0.000408019 0)
(-8.21022e-05 -0.000225549 0)
(-1.15986e-05 -5.77517e-05 0)
(-1.22092e-05 8.60162e-05 0)
(-8.10946e-05 0.000278546 0)
(-0.000225177 0.000469456 0)
(-0.000424884 0.000646705 0)
(-0.000671435 0.000804087 0)
(-0.000958682 0.000938787 0)
(-0.00128022 0.00105038 0)
(-0.00162992 0.00114 0)
(-0.00200219 0.00120973 0)
(-0.00239204 0.00126212 0)
(-0.00279507 0.00129983 0)
(-0.00320756 0.00132549 0)
(-0.00362641 0.00134146 0)
(-0.00404908 0.00134984 0)
(-0.00447353 0.00135235 0)
(-0.00489816 0.00135041 0)
(-0.00532171 0.0013451 0)
(-0.0057432 0.00133722 0)
(-0.00616184 0.00132738 0)
(-0.006577 0.00131595 0)
(-0.00698817 0.00130321 0)
(-0.00739488 0.00128931 0)
(-0.00779673 0.00127433 0)
(-0.00819334 0.00125829 0)
(-0.00858434 0.0012412 0)
(-0.00896937 0.00122304 0)
(-0.00934805 0.00120375 0)
(-0.00972002 0.0011833 0)
(-0.0100849 0.00116164 0)
(-0.0104423 0.00113872 0)
(-0.0107917 0.00111449 0)
(-0.0111329 0.0010889 0)
(-0.0114653 0.00106191 0)
(-0.0117885 0.00103345 0)
(-0.0121021 0.00100349 0)
(-0.0124056 0.000971983 0)
(-0.0126985 0.000938886 0)
(-0.0129804 0.000904158 0)
(-0.0132507 0.000867763 0)
(-0.013509 0.000829665 0)
(-0.0137547 0.000789833 0)
(-0.0139874 0.00074824 0)
(-0.0142065 0.000704863 0)
(-0.0144114 0.000659684 0)
(-0.0146018 0.000612692 0)
(-0.0147769 0.00056388 0)
(-0.0149364 0.000513248 0)
(-0.0150797 0.000460803 0)
(-0.0152062 0.000406562 0)
(-0.0153155 0.000350548 0)
(-0.0154071 0.000292793 0)
(-0.0154805 0.00023334 0)
(-0.0155351 0.00017224 0)
(-0.0155706 0.000109554 0)
(-0.0155865 4.53568e-05 0)
(-0.0155825 -2.027e-05 0)
(-0.015558 -8.72321e-05 0)
(-0.0155129 -0.000155424 0)
(-0.0154467 -0.000224728 0)
(-0.0153591 -0.000295019 0)
(-0.01525 -0.000366156 0)
(-0.0151192 -0.000437993 0)
(-0.0149664 -0.000510369 0)
(-0.0147916 -0.000583118 0)
(-0.0145948 -0.000656062 0)
(-0.0143758 -0.000729017 0)
(-0.0141348 -0.000801792 0)
(-0.0138719 -0.00087419 0)
(-0.0135873 -0.00094601 0)
(-0.0132811 -0.00101704 0)
(-0.0129537 -0.00108709 0)
(-0.0126054 -0.00115592 0)
(-0.0122366 -0.00122334 0)
(-0.0118478 -0.00128913 0)
(-0.0114395 -0.00135305 0)
(-0.0110124 -0.00141488 0)
(-0.0105671 -0.00147437 0)
(-0.0101044 -0.00153124 0)
(-0.0096252 -0.00158519 0)
(-0.00913036 -0.00163585 0)
(-0.00862102 -0.00168276 0)
(-0.0080984 -0.0017254 0)
(-0.00756392 -0.00176306 0)
(-0.00701923 -0.0017949 0)
(-0.00646625 -0.00181985 0)
(-0.00590726 -0.00183659 0)
(-0.00534492 -0.00184352 0)
(-0.00478239 -0.00183873 0)
(-0.00422337 -0.00181998 0)
(-0.00367221 -0.00178476 0)
(-0.00313389 -0.00173026 0)
(-0.00261414 -0.00165354 0)
(-0.00211936 -0.00155167 0)
(-0.00165661 -0.00142198 0)
(-0.00123352 -0.00126249 0)
(-0.000858169 -0.00107256 0)
(-0.000538745 -0.000853769 0)
(-0.000282741 -0.000611281 0)
(-0.000100413 -0.000355465 0)
(-1.46812e-05 -0.000105413 0)
(-1.43267e-05 0.000131913 0)
(-9.41546e-05 0.000399589 0)
(-0.000259617 0.000653861 0)
(-0.000486741 0.000885172 0)
(-0.000764682 0.0010886 0)
(-0.00108617 0.00126212 0)
(-0.00144401 0.00140591 0)
(-0.00183153 0.00152168 0)
(-0.00224277 0.00161209 0)
(-0.00267247 0.00168034 0)
(-0.00311603 0.00172975 0)
(-0.00356955 0.00176358 0)
(-0.00402977 0.00178482 0)
(-0.00449399 0.0017961 0)
(-0.00496007 0.00179962 0)
(-0.00542628 0.00179719 0)
(-0.00589125 0.0017902 0)
(-0.00635389 0.00177972 0)
(-0.00681335 0.00176651 0)
(-0.00726891 0.00175111 0)
(-0.00771997 0.00173386 0)
(-0.00816604 0.00171499 0)
(-0.00860663 0.00169462 0)
(-0.00904131 0.00167279 0)
(-0.00946967 0.00164951 0)
(-0.00989129 0.00162476 0)
(-0.0103058 0.0015985 0)
(-0.0107127 0.00157068 0)
(-0.0111116 0.00154123 0)
(-0.0115021 0.00151011 0)
(-0.0118837 0.00147724 0)
(-0.012256 0.00144256 0)
(-0.0126185 0.00140603 0)
(-0.0129708 0.00136756 0)
(-0.0133123 0.00132712 0)
(-0.0136425 0.00128464 0)
(-0.0139609 0.00124007 0)
(-0.0142671 0.00119336 0)
(-0.0145604 0.00114447 0)
(-0.0148404 0.00109335 0)
(-0.0151065 0.00103997 0)
(-0.0153582 0.000984283 0)
(-0.0155948 0.000926273 0)
(-0.0158158 0.000865918 0)
(-0.0160208 0.000803202 0)
(-0.016209 0.000738122 0)
(-0.01638 0.000670678 0)
(-0.0165333 0.000600885 0)
(-0.0166681 0.000528764 0)
(-0.0167841 0.000454348 0)
(-0.0168806 0.000377683 0)
(-0.0169572 0.000298824 0)
(-0.0170134 0.000217842 0)
(-0.0170487 0.000134818 0)
(-0.0170626 4.98488e-05 0)
(-0.0170548 -3.69553e-05 0)
(-0.0170247 -0.00012547 0)
(-0.0169721 -0.000215557 0)
(-0.0168966 -0.000307063 0)
(-0.0167979 -0.00039982 0)
(-0.0166759 -0.000493649 0)
(-0.0165301 -0.000588354 0)
(-0.0163606 -0.000683728 0)
(-0.0161673 -0.000779552 0)
(-0.01595 -0.000875595 0)
(-0.0157087 -0.000971618 0)
(-0.0154437 -0.00106737 0)
(-0.0151549 -0.0011626 0)
(-0.0148426 -0.00125703 0)
(-0.014507 -0.00135041 0)
(-0.0141485 -0.00144246 0)
(-0.0137674 -0.0015329 0)
(-0.0133642 -0.00162145 0)
(-0.0129394 -0.00170784 0)
(-0.0124936 -0.00179175 0)
(-0.0120275 -0.00187289 0)
(-0.0115418 -0.00195093 0)
(-0.0110374 -0.00202551 0)
(-0.0105153 -0.0020962 0)
(-0.00997632 -0.00216253 0)
(-0.00942183 -0.0022239 0)
(-0.00885311 -0.0022796 0)
(-0.00827171 -0.00232873 0)
(-0.00767942 -0.00237016 0)
(-0.00707829 -0.00240252 0)
(-0.00647076 -0.00242411 0)
(-0.00585968 -0.00243286 0)
(-0.0052484 -0.00242634 0)
(-0.00464083 -0.00240173 0)
(-0.00404151 -0.00235583 0)
(-0.00345569 -0.00228515 0)
(-0.00288934 -0.00218604 0)
(-0.00234914 -0.00205487 0)
(-0.0018425 -0.00188833 0)
(-0.00137749 -0.0016839 0)
(-0.000962856 -0.00144045 0)
(-0.00060768 -0.00115919 0)
(-0.000320733 -0.000844726 0)
(-0.000114563 -0.000506529 0)
(-1.68798e-05 -0.00016155 0)
(-1.59668e-05 0.000183967 0)
(-0.000104756 0.000536219 0)
(-0.000288158 0.000860677 0)
(-0.000538614 0.00115081 0)
(-0.000843478 0.00140356 0)
(-0.00119441 0.00161816 0)
(-0.00158342 0.00179573 0)
(-0.00200329 0.00193877 0)
(-0.00244769 0.00205069 0)
(-0.00291112 0.00213539 0)
(-0.00338881 0.00219693 0)
(-0.00387672 0.00223923 0)
(-0.00437146 0.00226591 0)
(-0.00487027 0.00228015 0)
(-0.0053709 0.00228464 0)
(-0.00587155 0.00228159 0)
(-0.00637077 0.00227271 0)
(-0.00686741 0.00225933 0)
(-0.00736055 0.00224239 0)
(-0.00784941 0.00222258 0)
(-0.00833335 0.00220034 0)
(-0.0088118 0.00217596 0)
(-0.00928425 0.0021496 0)
(-0.00975023 0.00212134 0)
(-0.0102093 0.00209119 0)
(-0.0106609 0.00205913 0)
(-0.0111047 0.00202514 0)
(-0.0115403 0.00198913 0)
(-0.011967 0.00195106 0)
(-0.0123846 0.00191085 0)
(-0.0127925 0.00186842 0)
(-0.0131902 0.00182372 0)
(-0.0135772 0.00177666 0)
(-0.013953 0.00172717 0)
(-0.0143171 0.0016752 0)
(-0.014669 0.00162066 0)
(-0.0150081 0.00156351 0)
(-0.0153339 0.00150367 0)
(-0.0156458 0.0014411 0)
(-0.0159432 0.00137575 0)
(-0.0162257 0.00130756 0)
(-0.0164925 0.00123651 0)
(-0.0167432 0.00116256 0)
(-0.016977 0.00108569 0)
(-0.0171936 0.00100589 0)
(-0.0173921 0.000923142 0)
(-0.0175722 0.000837463 0)
(-0.0177331 0.000748869 0)
(-0.0178744 0.00065739 0)
(-0.0179954 0.000563069 0)
(-0.0180956 0.000465965 0)
(-0.0181745 0.00036615 0)
(-0.0182316 0.000263713 0)
(-0.0182663 0.000158759 0)
(-0.0182782 5.14096e-05 0)
(-0.0182668 -5.81966e-05 0)
(-0.0182317 -0.000169903 0)
(-0.0181726 -0.000283535 0)
(-0.0180892 -0.0003989 0)
(-0.017981 -0.000515789 0)
(-0.0178479 -0.000633976 0)
(-0.0176896 -0.000753217 0)
(-0.0175061 -0.000873253 0)
(-0.0172972 -0.00099381 0)
(-0.0170628 -0.0011146 0)
(-0.016803 -0.00123532 0)
(-0.0165179 -0.00135567 0)
(-0.0162076 -0.00147532 0)
(-0.0158724 -0.00159394 0)
(-0.0155124 -0.0017112 0)
(-0.0151282 -0.00182675 0)
(-0.01472 -0.00194026 0)
(-0.0142884 -0.00205138 0)
(-0.0138339 -0.00215973 0)
(-0.0133573 -0.00226496 0)
(-0.0128591 -0.00236668 0)
(-0.0123403 -0.00246447 0)
(-0.0118016 -0.00255787 0)
(-0.0112443 -0.00264636 0)
(-0.0106692 -0.00272932 0)
(-0.0100778 -0.00280603 0)
(-0.00947136 -0.00287556 0)
(-0.00885162 -0.00293681 0)
(-0.00822045 -0.00298839 0)
(-0.00758001 -0.00302857 0)
(-0.00693286 -0.00305526 0)
(-0.00628197 -0.00306595 0)
(-0.00563083 -0.00305765 0)
(-0.00498349 -0.00302694 0)
(-0.00434466 -0.00296996 0)
(-0.00371974 -0.0028825 0)
(-0.00311491 -0.00276016 0)
(-0.00253709 -0.00259855 0)
(-0.00199401 -0.00239364 0)
(-0.00149417 -0.0021422 0)
(-0.00104695 -0.00184241 0)
(-0.000662345 -0.00149469 0)
(-0.000350286 -0.00110264 0)
(-0.000125205 -0.000674281 0)
(-1.84011e-05 -0.000224032 0)
(-1.72254e-05 0.000240935 0)
(-0.000113233 0.00068566 0)
(-0.000311397 0.00108623 0)
(-0.000581333 0.00143944 0)
(-0.000908892 0.00174444 0)
(-0.00128478 0.00200211 0)
(-0.00170024 0.00221476 0)
(-0.00214753 0.00238594 0)
(-0.00261997 0.00251993 0)
(-0.0031118 0.00262146 0)
(-0.00361811 0.00269535 0)
(-0.00413474 0.00274624 0)
(-0.00465822 0.00277838 0)
(-0.00518571 0.00279554 0)
(-0.00571492 0.00280089 0)
(-0.00624399 0.00279705 0)
(-0.00677144 0.00278606 0)
(-0.00729606 0.00276949 0)
(-0.00781688 0.0027485 0)
(-0.0083331 0.00272391 0)
(-0.00884402 0.00269625 0)
(-0.00934904 0.0026659 0)
(-0.00984762 0.00263304 0)
(-0.0103392 0.0025978 0)
(-0.0108234 0.0025602 0)
(-0.0112996 0.00252023 0)
(-0.0117675 0.00247784 0)
(-0.0122264 0.00243298 0)
(-0.012676 0.00238557 0)
(-0.0131156 0.00233554 0)
(-0.0135449 0.0022828 0)
(-0.0139634 0.00222727 0)
(-0.0143704 0.00216886 0)
(-0.0147654 0.00210751 0)
(-0.015148 0.00204313 0)
(-0.0155176 0.00197564 0)
(-0.0158735 0.00190497 0)
(-0.0162153 0.00183105 0)
(-0.0165423 0.00175383 0)
(-0.0168539 0.00167324 0)
(-0.0171497 0.00158924 0)
(-0.0174289 0.00150177 0)
(-0.0176909 0.00141081 0)
(-0.0179352 0.00131632 0)
(-0.0181611 0.00121831 0)
(-0.0183681 0.00111676 0)
(-0.0185555 0.00101168 0)
(-0.0187227 0.000903094 0)
(-0.0188692 0.000791049 0)
(-0.0189943 0.000675595 0)
(-0.0190975 0.000556804 0)
(-0.0191782 0.000434766 0)
(-0.0192359 0.000309591 0)
(-0.0192701 0.000181407 0)
(-0.0192803 5.03617e-05 0)
(-0.019266 -8.33747e-05 0)
(-0.0192268 -0.000219612 0)
(-0.0191624 -0.000358138 0)
(-0.0190723 -0.00049872 0)
(-0.0189563 -0.000641103 0)
(-0.0188141 -0.000785013 0)
(-0.0186456 -0.000930156 0)
(-0.0184504 -0.00107622 0)
(-0.0182287 -0.00122287 0)
(-0.0179802 -0.00136975 0)
(-0.0177051 -0.00151652 0)
(-0.0174034 -0.00166278 0)
(-0.0170754 -0.00180815 0)
(-0.0167212 -0.00195224 0)
(-0.0163411 -0.00209464 0)
(-0.0159356 -0.00223494 0)
(-0.015505 -0.00237272 0)
(-0.0150499 -0.00250755 0)
(-0.0145709 -0.00263899 0)
(-0.0140687 -0.00276661 0)
(-0.013544 -0.00288992 0)
(-0.0129978 -0.00300842 0)
(-0.0124309 -0.00312156 0)
(-0.0118444 -0.00322869 0)
(-0.0112395 -0.00332906 0)
(-0.0106175 -0.00342179 0)
(-0.00998001 -0.00350578 0)
(-0.00932864 -0.00357969 0)
(-0.00866538 -0.00364183 0)
(-0.0079925 -0.00369017 0)
(-0.00731264 -0.0037222 0)
(-0.00662887 -0.00373495 0)
(-0.00594477 -0.00372488 0)
(-0.00526451 -0.00368796 0)
(-0.00459291 -0.00361963 0)
(-0.00393553 -0.00351496 0)
(-0.0032987 -0.00336874 0)
(-0.00268958 -0.0031758 0)
(-0.00211621 -0.00293125 0)
(-0.00158752 -0.00263101 0)
(-0.0011135 -0.00227233 0)
(-0.000704959 -0.00185456 0)
(-0.000372849 -0.00138 0)
(-0.000133051 -0.000854907 0)
(-1.94254e-05 -0.00029116 0)
(-1.81824e-05 0.000301779 0)
(-0.000119926 0.000845462 0)
(-0.000330053 0.00132719 0)
(-0.000616002 0.00174718 0)
(-0.000962417 0.00210706 0)
(-0.00135917 0.00240955 0)
(-0.00179685 0.00265845 0)
(-0.00226719 0.00285847 0)
(-0.00276318 0.00301495 0)
(-0.00327882 0.00313353 0)
(-0.00380904 0.00321986 0)
(-0.00434959 0.00327933 0)
(-0.00489692 0.00331688 0)
(-0.00544817 0.00333685 0)
(-0.00600098 0.00334292 0)
(-0.00655348 0.00333809 0)
(-0.00710414 0.00332477 0)
(-0.00765175 0.00330476 0)
(-0.0081953 0.00327942 0)
(-0.00873395 0.00324971 0)
(-0.009267 0.00321628 0)
(-0.0097938 0.00317956 0)
(-0.0103138 0.00313979 0)
(-0.0108264 0.00309712 0)
(-0.0113312 0.00305159 0)
(-0.0118276 0.00300319 0)
(-0.0123151 0.00295189 0)
(-0.0127932 0.00289761 0)
(-0.0132615 0.00284029 0)
(-0.0137193 0.00277983 0)
(-0.0141662 0.00271615 0)
(-0.0146017 0.00264914 0)
(-0.0150251 0.00257873 0)
(-0.015436 0.00250482 0)
(-0.0158338 0.00242732 0)
(-0.0162179 0.00234614 0)
(-0.0165878 0.00226121 0)
(-0.0169427 0.00217245 0)
(-0.0172823 0.00207978 0)
(-0.0176058 0.00198315 0)
(-0.0179126 0.00188249 0)
(-0.0182021 0.00177776 0)
(-0.0184737 0.00166891 0)
(-0.0187267 0.00155593 0)
(-0.0189606 0.0014388 0)
(-0.0191747 0.00131751 0)
(-0.0193684 0.00119209 0)
(-0.019541 0.00106255 0)
(-0.019692 0.000928959 0)
(-0.0198208 0.000791372 0)
(-0.0199267 0.000649877 0)
(-0.0200092 0.000504584 0)
(-0.0200678 0.00035562 0)
(-0.0201019 0.00020314 0)
(-0.020111 4.732e-05 0)
(-0.0200946 -0.000111639 0)
(-0.0200523 -0.000273512 0)
(-0.0199838 -0.000438048 0)
(-0.0198886 -0.000604971 0)
(-0.0197664 -0.00077398 0)
(-0.019617 -0.00094475 0)
(-0.0194401 -0.00111693 0)
(-0.0192356 -0.00129016 0)
(-0.0190034 -0.00146404 0)
(-0.0187435 -0.00163816 0)
(-0.0184558 -0.00181209 0)
(-0.0181406 -0.00198538 0)
(-0.0177979 -0.00215759 0)
(-0.0174281 -0.00232823 0)
(-0.0170313 -0.00249683 0)
(-0.0166082 -0.00266291 0)
(-0.016159 -0.00282596 0)
(-0.0156843 -0.00298548 0)
(-0.0151849 -0.00314096 0)
(-0.0146613 -0.00329187 0)
(-0.0141145 -0.00343763 0)
(-0.0135453 -0.00357766 0)
(-0.0129547 -0.00371129 0)
(-0.0123439 -0.00383776 0)
(-0.011714 -0.00395619 0)
(-0.0110665 -0.00406553 0)
(-0.0104029 -0.00416449 0)
(-0.00972494 -0.00425148 0)
(-0.00903475 -0.00432457 0)
(-0.00833464 -0.00438135 0)
(-0.0076273 -0.00441894 0)
(-0.00691589 -0.00443386 0)
(-0.00620407 -0.00442206 0)
(-0.00549611 -0.00437885 0)
(-0.00479693 -0.00429898 0)
(-0.00411222 -0.00417675 0)
(-0.00344848 -0.00400613 0)
(-0.0028131 -0.00378105 0)
(-0.00221442 -0.00349569 0)
(-0.00166179 -0.00314497 0)
(-0.00116576 -0.00272504 0)
(-0.000737871 -0.00223398 0)
(-0.000389886 -0.0016726 0)
(-0.000138759 -0.00104532 0)
(-2.00956e-05 -0.000361634 0)
(-1.89035e-05 0.000365646 0)
(-0.000125158 0.00101354 0)
(-0.000344867 0.00158065 0)
(-0.000643824 0.00207062 0)
(-0.00100573 0.00248768 0)
(-0.00141977 0.00283657 0)
(-0.00187594 0.00312274 0)
(-0.00236553 0.00335223 0)
(-0.0028812 0.00353154 0)
(-0.00341673 0.00366731 0)
(-0.0039669 0.00376611 0)
(-0.00452736 0.00383411 0)
(-0.0050945 0.00387696 0)
(-0.00566542 0.00389959 0)
(-0.00623774 0.0039062 0)
(-0.00680957 0.0039002 0)
(-0.00737936 0.00388432 0)
(-0.00794588 0.00386064 0)
(-0.00850812 0.0038307 0)
(-0.00906522 0.0037956 0)
(-0.00961646 0.0037561 0)
(-0.0101612 0.00371268 0)
(-0.0106988 0.00366566 0)
(-0.0112287 0.0036152 0)
(-0.0117504 0.00356135 0)
(-0.0122634 0.00350412 0)
(-0.0127672 0.00344348 0)
(-0.0132612 0.00337935 0)
(-0.0137449 0.00331165 0)
(-0.0142178 0.00324028 0)
(-0.0146793 0.00316516 0)
(-0.015129 0.00308617 0)
(-0.0155661 0.00300322 0)
(-0.0159903 0.00291621 0)
(-0.0164008 0.00282503 0)
(-0.0167972 0.00272959 0)
(-0.0171788 0.0026298 0)
(-0.017545 0.00252558 0)
(-0.0178951 0.00241684 0)
(-0.0182287 0.00230352 0)
(-0.018545 0.00218555 0)
(-0.0188435 0.00206288 0)
(-0.0191234 0.00193547 0)
(-0.0193842 0.00180328 0)
(-0.0196251 0.0016663 0)
(-0.0198456 0.00152454 0)
(-0.020045 0.00137801 0)
(-0.0202227 0.00122675 0)
(-0.0203781 0.00107082 0)
(-0.0205104 0.000910284 0)
(-0.0206192 0.000745257 0)
(-0.0207038 0.000575861 0)
(-0.0207637 0.000402247 0)
(-0.0207983 0.000224592 0)
(-0.0208072 4.31018e-05 0)
(-0.0207897 -0.000141991 0)
(-0.0207454 -0.000330425 0)
(-0.020674 -0.000521908 0)
(-0.0205751 -0.000716122 0)
(-0.0204483 -0.000912717 0)
(-0.0202933 -0.00111132 0)
(-0.02011 -0.00131152 0)
(-0.0198982 -0.00151289 0)
(-0.0196577 -0.00171498 0)
(-0.0193885 -0.00191732 0)