/*--------------------------------*- C++ -*----------------------------------*\
  =========                 |
  \\      /  F ield         | OpenFOAM: The Open Source CFD Toolbox
   \\    /   O peration     | Website:  https://openfoam.org
    \\  /    A nd           | Version:  9
     \\/     M anipulation  |
\*---------------------------------------------------------------------------*/
FoamFile
{
    format      ascii;
    class       volScalarField;
    location    "1.25";
    object      p;
}
// * * * * * * * * * * * * * * * * * * * * * * * * * * * * * * * * * * * * * //

dimensions      [0 2 -2 0 0 0 0];

internalField   nonuniform List<scalar> 
1250
(
-0.00706606
-0.00715881
-0.00761298
-0.00769906
-0.00776755
-0.00783794
-0.00792208
-0.00802553
-0.00815356
-0.00831126
-0.00850352
-0.00873549
-0.00901298
-0.00934287
-0.00973333
-0.010194
-0.010736
-0.0113719
-0.0121157
-0.0129818
-0.0139851
-0.0151399
-0.016459
-0.0179526
-0.0196275
-0.021486
-0.0235252
-0.0257367
-0.0281061
-0.0306138
-0.0332355
-0.0359441
-0.0387101
-0.0415039
-0.0442966
-0.0470616
-0.008168
-0.00824685
-0.00831241
-0.00838283
-0.0084694
-0.00857771
-0.00871306
-0.00888053
-0.00908504
-0.00933182
-0.00962684
-0.00997719
-0.0103913
-0.0108791
-0.0114522
-0.0121235
-0.0129071
-0.0138179
-0.0148708
-0.0160801
-0.0174582
-0.0190147
-0.0207556
-0.022682
-0.0247896
-0.0270684
-0.0295026
-0.0320712
-0.0347484
-0.0375063
-0.0403149
-0.043144
-0.0459654
-0.0487536
-0.0514855
-0.0541427
-0.0567111
-0.0591804
-0.0615435
-0.0637959
-0.0659353
-0.0679608
-0.069872
-0.00872846
-0.00879944
-0.00886167
-0.00893175
-0.00902039
-0.00913323
-0.00927556
-0.00945242
-0.00966876
-0.00992986
-0.0102418
-0.0106119
-0.0110487
-0.0115625
-0.0121652
-0.01287
-0.0136912
-0.014644
-0.0157434
-0.0170032
-0.0184357
-0.0200499
-0.0218508
-0.0238384
-0.0260072
-0.0283457
-0.0308368
-0.033458
-0.036183
-0.0389827
-0.0418269
-0.0446855
-0.0475305
-0.050337
-0.0530838
-0.0557533
-0.0583322
-0.0608114
-0.0631847
-0.0654485
-0.067601
-0.0696416
-0.0715703
-0.0733864
-0.0750892
-0.0766776
-0.0781499
-0.0795039
-0.0807362
-0.00929164
-0.0093543
-0.00941279
-0.00948214
-0.00957245
-0.0096894
-0.00983825
-0.010024
-0.0102516
-0.0105263
-0.0108544
-0.0112431
-0.0117014
-0.0122398
-0.0128702
-0.0136061
-0.0144623
-0.0154539
-0.0165957
-0.0179016
-0.0193834
-0.0210495
-0.022904
-0.0249459
-0.0271686
-0.0295591
-0.0320993
-0.0347658
-0.0375312
-0.040366
-0.0432398
-0.0461227
-0.0489873
-0.0518093
-0.0545685
-0.0572485
-0.0598373
-0.0623264
-0.0647107
-0.066987
-0.069154
-0.0712112
-0.0731584
-0.0749956
-0.0767212
-0.0783339
-0.0798312
-0.0812105
-0.082468
-0.00985477
-0.00990874
-0.00996315
-0.0100314
-0.010123
-0.0102437
-0.0103986
-0.0105927
-0.0108308
-0.0111184
-0.0114617
-0.011868
-0.0123464
-0.0129075
-0.0135636
-0.0143284
-0.0152165
-0.0162432
-0.0174233
-0.0187706
-0.0202962
-0.022008
-0.0239094
-0.0259985
-0.0282673
-0.0307023
-0.033284
-0.0359882
-0.038787
-0.0416505
-0.0445483
-0.047451
-0.0503315
-0.0531664
-0.0559363
-0.058626
-0.0612243
-0.0637237
-0.0661194
-0.0684092
-0.0705917
-0.0726667
-0.0746338
-0.0764926
-0.0782417
-0.0798791
-0.0814017
-0.0828064
-0.0840889
-0.0104151
-0.01046
-0.01051
-0.0105769
-0.0106694
-0.0107932
-0.0109535
-0.0111553
-0.0114033
-0.0117028
-0.0120602
-0.0124828
-0.0129797
-0.0135618
-0.0142413
-0.0150321
-0.0159489
-0.0170069
-0.0182209
-0.0196044
-0.0211681
-0.0229193
-0.0248608
-0.0269896
-0.0292973
-0.031769
-0.0343847
-0.0371195
-0.039945
-0.0428314
-0.0457481
-0.0486662
-0.0515594
-0.054405
-0.0571842
-0.0598828
-0.0624905
-0.0650003
-0.0674081
-0.0697119
-0.0719106
-0.0740041
-0.0759917
-0.0778728
-0.0796456
-0.0813076
-0.0828553
-0.0842851
-0.0855921
-0.0109698
-0.0110054
-0.0110508
-0.0111158
-0.0112087
-0.0113351
-0.0115003
-0.0117089
-0.0119658
-0.0122762
-0.0126463
-0.0130837
-0.0135974
-0.0141983
-0.0148987
-0.0157124
-0.0166544
-0.0177397
-0.0189829
-0.0203972
-0.021993
-0.0237772
-0.0257517
-0.0279131
-0.030252
-0.0327531
-0.0353956
-0.0381542
-0.0410003
-0.043904
-0.0468351
-0.049765
-0.052668
-0.0555221
-0.0583095
-0.0610164
-0.0636332
-0.0661536
-0.0685738
-0.070892
-0.0731074
-0.0752195
-0.0772277
-0.0791309
-0.0809271
-0.0826132
-0.0841854
-0.0856394
-0.08697
-0.0115161
-0.0115424
-0.0115827
-0.0116456
-0.0117383
-0.0118667
-0.0120359
-0.0122505
-0.0125152
-0.0128353
-0.0132168
-0.0136673
-0.0141957
-0.014813
-0.0155315
-0.0163651
-0.0173284
-0.0184366
-0.019704
-0.0211436
-0.0227655
-0.024576
-0.0265766
-0.0287633
-0.0311262
-0.0336494
-0.0363117
-0.0390876
-0.0419486
-0.0448645
-0.0478058
-0.0507442
-0.0536545
-0.0565155
-0.0593098
-0.0620244
-0.0646501
-0.0671811
-0.0696138
-0.0719465
-0.0741784
-0.076309
-0.0783374
-0.0802621
-0.0820808
-0.08379
-0.0853855
-0.0868625
-0.0882154
-0.0120515
-0.0120683
-0.0121034
-0.0121637
-0.0122558
-0.0123855
-0.0125578
-0.0127774
-0.0130488
-0.0133771
-0.0137684
-0.0142301
-0.0147712
-0.0154024
-0.0161361
-0.0169859
-0.0179667
-0.0190932
-0.0203798
-0.021839
-0.0234807
-0.0253108
-0.0273305
-0.0295353
-0.031915
-0.0344532
-0.0371287
-0.0399158
-0.0427861
-0.0457097
-0.0486571
-0.0516009
-0.0545163
-0.0573825
-0.0601827
-0.0629044
-0.0655387
-0.06808
-0.070525
-0.072872
-0.0751201
-0.0772685
-0.0793162
-0.0812615
-0.0831015
-0.0848325
-0.0864497
-0.087948
-0.0893214
-0.0125737
-0.0125809
-0.0126104
-0.0126678
-0.0127587
-0.0128889
-0.0130635
-0.0132869
-0.0135638
-0.0138989
-0.0142982
-0.0147692
-0.0153205
-0.0159629
-0.0167087
-0.0175713
-0.0185653
-0.0197056
-0.021006
-0.0224791
-0.0241343
-0.0259774
-0.0280092
-0.0302251
-0.0326144
-0.0351609
-0.0378431
-0.0406355
-0.0435098
-0.0464365
-0.0493866
-0.0523328
-0.0552511
-0.0581209
-0.0609259
-0.063654
-0.0662964
-0.0688477
-0.0713045
-0.0736652
-0.0759287
-0.0780941
-0.08016
-0.0821244
-0.0839842
-0.0857352
-0.0873723
-0.08889
-0.090282
-0.0130801
-0.0130777
-0.0131019
-0.0131558
-0.0132448
-0.0133748
-0.0135507
-0.0137768
-0.0140576
-0.014398
-0.0148036
-0.0152816
-0.0158408
-0.0164916
-0.0172461
-0.0181178
-0.0191209
-0.0202701
-0.0215791
-0.0230602
-0.0247227
-0.0265722
-0.0286093
-0.0308291
-0.0332212
-0.0357692
-0.0384518
-0.0412438
-0.0441171
-0.0470426
-0.0499918
-0.0529377
-0.0558566
-0.0587285
-0.0615373
-0.0642708
-0.0669207
-0.0694813
-0.0719494
-0.074323
-0.0766009
-0.078782
-0.0808647
-0.0828466
-0.0847243
-0.0864933
-0.0881482
-0.0896831
-0.0910916
-0.0135688
-0.013557
-0.0135755
-0.0136257
-0.0137123
-0.0138412
-0.0140173
-0.0142449
-0.0145283
-0.0148721
-0.015282
-0.0157649
-0.0163293
-0.0169856
-0.0177456
-0.0186225
-0.0196304
-0.0207837
-0.022096
-0.0235793
-0.0252429
-0.0270921
-0.0291276
-0.0313446
-0.0337326
-0.0362756
-0.0389526
-0.0417386
-0.044606
-0.0475261
-0.0504708
-0.0534137
-0.0563312
-0.0592035
-0.0620147
-0.0647528
-0.0674093
-0.0699784
-0.0724568
-0.0748423
-0.0771334
-0.0793287
-0.0814264
-0.083424
-0.0140378
-0.0140169
-0.0140296
-0.0140757
-0.0141593
-0.0142863
-0.0144617
-0.0146893
-0.0149737
-0.0153192
-0.0157314
-0.0162168
-0.0167839
-0.0174426
-0.0182047
-0.019083
-0.0200913
-0.0212439
-0.0225541
-0.0240339
-0.0256924
-0.0275348
-0.0295621
-0.0317694
-0.0341468
-0.0366784
-0.0393437
-0.0421182
-0.0449748
-0.0478855
-0.0508223
-0.0537592
-0.056673
-0.059544
-0.0623563
-0.0650978
-0.0677599
-0.0703367
-0.0728243
-0.0752205
-0.0775234
-0.0797314
-0.0818423
-0.0838534
-0.0144855
-0.0144558
-0.0144627
-0.0145044
-0.0145844
-0.0147087
-0.014882
-0.0151086
-0.0153924
-0.0157377
-0.01615
-0.0166356
-0.0172025
-0.0178606
-0.0186213
-0.019497
-0.0205015
-0.0216486
-0.0229515
-0.024422
-0.0260692
-0.0278986
-0.029911
-0.0321021
-0.0344621
-0.0369761
-0.0396238
-0.0423814
-0.0452226
-0.0481195
-0.0510449
-0.053973
-0.0568808
-0.0597486
-0.0625605
-0.0653042
-0.0679707
-0.070554
-0.0730497
-0.0754553
-0.0777686
-0.0799876
-0.0821099
-0.0841326
-0.0149105
-0.0148724
-0.0148735
-0.0149106
-0.0149864
-0.0151071
-0.0152774
-0.0155013
-0.0157828
-0.0161262
-0.0165364
-0.0170198
-0.0175834
-0.018238
-0.0189938
-0.0198631
-0.0208594
-0.0219962
-0.0232866
-0.0247422
-0.0263722
-0.0281822
-0.0301733
-0.0323418
-0.0346781
-0.0371682
-0.0397924
-0.0425278
-0.0453486
-0.0482276
-0.0511379
-0.0540542
-0.0569535
-0.0598161
-0.0626259
-0.0653704
-0.0680401
-0.0706286
-0.0731312
-0.0755448
-0.077867
-0.0800954
-0.0822274
-0.0842597
-0.0153116
-0.0152657
-0.0152611
-0.0152932
-0.0153644
-0.0154807
-0.0156468
-0.0158667
-0.0161442
-0.0164835
-0.0168893
-0.0173677
-0.0179261
-0.0185737
-0.019321
-0.02018
-0.0211638
-0.0222856
-0.0235584
-0.0249937
-0.0266006
-0.0283851
-0.0303487
-0.0324882
-0.0347947
-0.0372545
-0.0398494
-0.0425573
-0.0453528
-0.0482095
-0.0511011
-0.0540024
-0.0568905
-0.0597457
-0.0625516
-0.0652952
-0.0679668
-0.0705591
-0.0730673
-0.0754876
-0.0778172
-0.0800534
-0.0821932
-0.0842333
-0.0156881
-0.0156348
-0.0156246
-0.0156516
-0.0157177
-0.0158287
-0.0159895
-0.016204
-0.0164758
-0.016809
-0.0172083
-0.0176792
-0.0182291
-0.0188667
-0.0196021
-0.020447
-0.0214141
-0.0225163
-0.0237665
-0.0251761
-0.0267543
-0.0285074
-0.0304373
-0.0325414
-0.0348118
-0.0372357
-0.0397957
-0.0424705
-0.0452358
-0.0480658
-0.0509347
-0.0538176
-0.0566917
-0.059537
-0.062337
-0.065078
-0.0677498
-0.0703447
-0.0728571
-0.0752827
-0.0776183
-0.0798607
-0.0820067
-0.0840528
-0.0160392
-0.0159792
-0.0159636
-0.0159853
-0.0160458
-0.0161509
-0.0163053
-0.0165129
-0.0167773
-0.0171025
-0.0174928
-0.0179538
-0.0184923
-0.0191166
-0.0198367
-0.0206637
-0.0216099
-0.0226882
-0.0239109
-0.0252896
-0.0268336
-0.0285495
-0.0304398
-0.0325025
-0.0347308
-0.0371128
-0.0396322
-0.0422685
-0.0449985
-0.0477972
-0.0506393
-0.0535002
-0.0563572
-0.0591901
-0.0619819
-0.0647185
-0.0673889
-0.0699849
-0.0725001
-0.0749297
-0.0772699
-0.0795172
-0.081668
-0.0837184
-0.0163647
-0.0162986
-0.0162778
-0.0162943
-0.0163487
-0.0164471
-0.016594
-0.0167933
-0.0170487
-0.0173637
-0.0177428
-0.0181912
-0.0187154
-0.0193234
-0.0200247
-0.0208301
-0.0217515
-0.0228014
-0.023992
-0.0253348
-0.0268394
-0.0285126
-0.0303576
-0.0323732
-0.0345534
-0.0368877
-0.0393606
-0.041953
-0.0446426
-0.0474053
-0.0502164
-0.0530515
-0.055888
-0.0587056
-0.0614867
-0.0642168
-0.0668841
-0.0694796
-0.0719962
-0.0744286
-0.0767723
-0.0790232
-0.0811774
-0.0832309
-0.0166644
-0.016593
-0.0165673
-0.0165784
-0.0166265
-0.0167175
-0.0168559
-0.0170456
-0.0172901
-0.017593
-0.0179586
-0.0183918
-0.0188988
-0.0194874
-0.0201666
-0.0209467
-0.0218394
-0.0228567
-0.0240107
-0.025313
-0.0267731
-0.0283984
-0.0301925
-0.0321553
-0.0342818
-0.0365625
-0.0389834
-0.0415264
-0.0441704
-0.0468922
-0.0496677
-0.052473
-0.0552855
-0.0580847
-0.0608525
-0.0635738
-0.066236
-0.0688294
-0.0713462
-0.0737801
-0.076126
-0.0783796
-0.0805363
-0.0825918
-0.0169386
-0.0168626
-0.0168324
-0.0168381
-0.0168796
-0.0169626
-0.0170915
-0.0172702
-0.0175022
-0.017791
-0.0181406
-0.018556
-0.0190431
-0.0196092
-0.0202629
-0.0210142
-0.0218743
-0.0228551
-0.0239683
-0.0252254
-0.0266364
-0.0282087
-0.0299468
-0.0318514
-0.0339186
-0.0361402
-0.0385035
-0.0409917
-0.0435848
-0.0462607
-0.048996
-0.0517672
-0.0545519
-0.0573292
-0.0600808
-0.0627908
-0.065446
-0.0680356
-0.070551
-0.0729853
-0.0753326
-0.0775878
-0.0797462
-0.0818031
-0.0171875
-0.0171077
-0.0170734
-0.0170739
-0.0171086
-0.0171829
-0.0173015
-0.0174679
-0.0176857
-0.0179583
-0.0182898
-0.0186848
-0.0191491
-0.0196896
-0.0203146
-0.0210337
-0.0218576
-0.022798
-0.0238664
-0.0250741
-0.0264313
-0.027946
-0.0296232
-0.0314645
-0.0334672
-0.0356244
-0.0379246
-0.0403525
-0.0428895
-0.0455144
-0.0482046
-0.0509373
-0.05369
-0.0564419
-0.0591741
-0.0618701
-0.064516
-0.0671
-0.0696126
-0.0720461
-0.0743938
-0.07665
-0.0788095
-0.0808671
-0.0174118
-0.0173291
-0.017291
-0.0172864
-0.0173141
-0.0173795
-0.0174868
-0.0176396
-0.0178415
-0.0180961
-0.0184071
-0.0187792
-0.0192179
-0.0197298
-0.0203229
-0.0210064
-0.0217907
-0.022687
-0.0237068
-0.0248612
-0.0261606
-0.0276132
-0.0292249
-0.0309981
-0.0329313
-0.0350189
-0.0372508
-0.0396132
-0.0420888
-0.0446575
-0.0472977
-0.0499871
-0.0527036
-0.0554261
-0.0581355
-0.0608146
-0.0634487
-0.066025
-0.0685333
-0.0709648
-0.0733121
-0.0755688
-0.077729
-0.0797871
-0.0176123
-0.0175275
-0.0174862
-0.0174766
-0.0174973
-0.0175532
-0.0176484
-0.0177865
-0.0179711
-0.0182055
-0.0184938
-0.0188404
-0.0192507
-0.0197311
-0.0202892
-0.020934
-0.0216753
-0.0225241
-0.0234917
-0.0245891
-0.0258268
-0.0272134
-0.0287554
-0.0304562
-0.0323153
-0.0343284
-0.036487
-0.0387788
-0.0411877
-0.0436951
-0.0462803
-0.0489216
-0.0515972
-0.0542863
-0.0569692
-0.0596282
-0.0622477
-0.0648143
-0.0673165
-0.0697448
-0.0720908
-0.0743473
-0.076508
-0.0785666
-0.0177898
-0.0177038
-0.0176598
-0.0176456
-0.0176592
-0.0177053
-0.0177877
-0.01791
-0.0180755
-0.018288
-0.0185514
-0.01887
-0.0192492
-0.0196951
-0.0202153
-0.0208181
-0.0215133
-0.0223114
-0.0232234
-0.0242605
-0.025433
-0.02675
-0.0282186
-0.0298429
-0.0316236
-0.0335579
-0.0356385
-0.0378548
-0.0401921
-0.0426331
-0.0451582
-0.0477464
-0.0503766
-0.0530278
-0.0556802
-0.0583156
-0.0609177
-0.063472
-0.0659663
-0.0683899
-0.0707337
-0.0729896
-0.0751505
-0.0772097
-0.0179456
-0.0178593
-0.0178131
-0.0177946
-0.0178011
-0.0178371
-0.017906
-0.0180113
-0.0181565
-0.0183451
-0.0185813
-0.0188695
-0.0192148
-0.0196235
-0.0201027
-0.0206606
-0.0213067
-0.022051
-0.0229046
-0.0238782
-0.0249825
-0.0262267
-0.0276185
-0.0291628
-0.0308615
-0.0327128
-0.0347113
-0.0368475
-0.0391084
-0.0414781
-0.0439381
-0.0464684
-0.0490483
-0.0516571
-0.0542748
-0.0568829
-0.0594642
-0.0620036
-0.0644878
-0.0669052
-0.0692457
-0.0715004
-0.0736613
-0.0757212
-0.0180808
-0.0179951
-0.0179474
-0.0179248
-0.0179245
-0.01795
-0.0180048
-0.0180922
-0.0182154
-0.0183784
-0.0185853
-0.0188405
-0.0191494
-0.019518
-0.0199534
-0.0204636
-0.0210576
-0.0217455
-0.0225378
-0.0234453
-0.0244787
-0.0256474
-0.0269596
-0.0284209
-0.0300343
-0.0317992
-0.0337116
-0.0357635
-0.0379438
-0.0402376
-0.0426277
-0.0450952
-0.04762
-0.0501817
-0.0527604
-0.0553371
-0.0578942
-0.0604157
-0.0628875
-0.0652968
-0.0676327
-0.0698854
-0.0720461
-0.0741068
-0.0181968
-0.0181127
-0.0180641
-0.0180379
-0.0180307
-0.0180457
-0.0180858
-0.0181542
-0.0182541
-0.0183897
-0.018565
-0.0187849
-0.0190547
-0.0193805
-0.0197693
-0.0202289
-0.0207682
-0.021397
-0.0221256
-0.0229647
-0.0239248
-0.0250157
-0.026246
-0.0276219
-0.0291473
-0.030823
)
;

boundaryField
{
    movingWall
    {
        type            zeroGradient;
    }
    fixedWalls
    {
        type            zeroGradient;
    }
    frontAndBack
    {
        type            empty;
    }
    procBoundary3to0
    {
        type            processor;
        value           nonuniform List<scalar> 
29
(
-0.00652998
-0.00662885
-0.00722989
-0.00722989
-0.00730003
-0.00738158
-0.00748002
-0.0076006
-0.00774841
-0.00792828
-0.00814525
-0.00840497
-0.00871406
-0.0090804
-0.00951322
-0.0100233
-0.0106227
-0.011325
-0.0121444
-0.0130955
-0.0141925
-0.0154486
-0.0168744
-0.0184776
-0.0202618
-0.0222253
-0.0243614
-0.0266575
-0.0290955
)
;
    }
    procBoundary3to1
    {
        type            processor;
        value           nonuniform List<scalar> 
23
(
-0.031653
-0.034304
-0.0370198
-0.0397709
-0.0425285
-0.0452652
-0.0497752
-0.0497752
-0.0524183
-0.0549753
-0.0574346
-0.059788
-0.0620301
-0.0641579
-0.0661698
-0.0680652
-0.0716682
-0.0716682
-0.0733494
-0.0749148
-0.076363
-0.0776924
-0.0789003
)
;
    }
    procBoundary3to2
    {
        type            processor;
        value           nonuniform List<scalar> 
45
(
-0.032646
-0.0346106
-0.0367063
-0.0389198
-0.0412355
-0.0436354
-0.0461003
-0.0486102
-0.0511453
-0.0536865
-0.0562155
-0.0587159
-0.0611724
-0.0635716
-0.0659014
-0.0681511
-0.0703111
-0.0723726
-0.0182952
-0.0182136
-0.0181647
-0.0181353
-0.0181215
-0.0181259
-0.0181508
-0.0181992
-0.0182746
-0.0183808
-0.0185226
-0.0187047
-0.0189329
-0.0192133
-0.0195528
-0.0199593
-0.0204415
-0.0210088
-0.0216715
-0.0224402
-0.0233252
-0.0243366
-0.0254832
-0.0267719
-0.0282075
-0.032646
-0.0297917
)
;
    }
    procBoundary3to5
    {
        type            processor;
        value           nonuniform List<scalar> 
21
(
-0.0853176
-0.0871024
-0.0887729
-0.0903227
-0.0917453
-0.0853176
-0.0857607
-0.0860515
-0.0861881
-0.0861691
-0.0859942
-0.0856637
-0.0851788
-0.0845412
-0.0837532
-0.0828176
-0.0817377
-0.0805174
-0.0791609
-0.0776733
-0.0760603
)
;
    }
    procBoundary3to6
    {
        type            processor;
        value           nonuniform List<scalar> 9(-0.0818427 -0.0835988 -0.0852439 -0.0867707 -0.0881711 -0.0894376 -0.0905632 -0.0915414 -0.0923665);
    }
}


// ************************************************************************* //
