/*--------------------------------*- C++ -*----------------------------------*\
  =========                 |
  \\      /  F ield         | OpenFOAM: The Open Source CFD Toolbox
   \\    /   O peration     | Website:  https://openfoam.org
    \\  /    A nd           | Version:  9
     \\/     M anipulation  |
\*---------------------------------------------------------------------------*/
FoamFile
{
    format      ascii;
    class       surfaceScalarField;
    location    "1.25";
    object      phi;
}
// * * * * * * * * * * * * * * * * * * * * * * * * * * * * * * * * * * * * * //

dimensions      [0 3 -1 0 0 0 0];

internalField   nonuniform List<scalar> 
2422
(
-4.13951e-09
1.53646e-07
4.08427e-07
-3.76282e-09
1.57408e-07
-1.42844e-08
4.18949e-07
-3.08441e-08
6.33416e-07
-5.27248e-08
8.0738e-07
-7.92304e-08
9.47652e-07
-1.09722e-07
1.06104e-06
-1.4365e-07
1.15408e-06
-1.80577e-07
1.23282e-06
-2.20184e-07
1.30263e-06
-2.62264e-07
1.36816e-06
-3.06703e-07
1.43323e-06
-3.53455e-07
1.50083e-06
-4.02508e-07
1.57312e-06
-4.53855e-07
1.65144e-06
-5.07458e-07
1.73633e-06
-5.63225e-07
1.82763e-06
-6.2098e-07
1.92449e-06
-6.80455e-07
2.02548e-06
-7.41274e-07
2.12868e-06
-8.0296e-07
2.23179e-06
-8.64937e-07
2.33225e-06
-9.26554e-07
2.42734e-06
-9.87108e-07
2.51434e-06
-1.04587e-06
2.59065e-06
-1.10214e-06
2.65391e-06
-1.15527e-06
2.70214e-06
-1.20469e-06
2.73381e-06
-1.24997e-06
2.74799e-06
-1.29083e-06
2.74429e-06
-1.32717e-06
2.72293e-06
-1.35905e-06
2.68473e-06
-1.38671e-06
2.63099e-06
-1.41053e-06
2.56342e-06
2.48396e-06
-3.35739e-09
1.60766e-07
-1.2922e-08
4.28513e-07
-2.81762e-08
6.4867e-07
-4.85551e-08
8.27759e-07
-7.34649e-08
9.72561e-07
-1.02327e-07
1.0899e-06
-1.34617e-07
1.18637e-06
-1.69898e-07
1.2681e-06
-2.07832e-07
1.34057e-06
-2.48182e-07
1.40851e-06
-2.90794e-07
1.47584e-06
-3.3558e-07
1.54562e-06
-3.82487e-07
1.62003e-06
-4.31467e-07
1.70042e-06
-4.82449e-07
1.78731e-06
-5.35311e-07
1.88049e-06
-5.89859e-07
1.97904e-06
-6.45813e-07
2.08143e-06
-7.02799e-07
2.18566e-06
-7.60352e-07
2.28934e-06
-8.17923e-07
2.38982e-06
-8.749e-07
2.48432e-06
-9.30632e-07
2.57007e-06
-9.8446e-07
2.64448e-06
-1.03575e-06
2.7052e-06
-1.08394e-06
2.75032e-06
-1.12856e-06
2.77843e-06
-1.16925e-06
2.78868e-06
-1.20583e-06
2.78087e-06
-1.23826e-06
2.75536e-06
-1.26668e-06
2.71314e-06
-1.29137e-06
2.65568e-06
-1.31273e-06
2.58478e-06
-1.33127e-06
2.50249e-06
-1.34755e-06
2.41095e-06
-1.36217e-06
2.31226e-06
-1.37571e-06
2.20831e-06
-1.38869e-06
2.10076e-06
-1.40155e-06
1.99095e-06
-1.41467e-06
1.87987e-06
-1.4283e-06
1.76821e-06
-1.44259e-06
1.65631e-06
1.54431e-06
-2.92968e-09
1.63695e-07
-1.14714e-08
4.37055e-07
-2.53216e-08
6.6252e-07
-4.4074e-08
8.46511e-07
-6.72447e-08
9.95732e-07
-9.43201e-08
1.11698e-06
-1.24807e-07
1.21686e-06
-1.58269e-07
1.30156e-06
-1.94351e-07
1.37665e-06
-2.32783e-07
1.44694e-06
-2.73373e-07
1.51643e-06
-3.1599e-07
1.58824e-06
-3.60539e-07
1.66458e-06
-4.06933e-07
1.74681e-06
-4.55069e-07
1.83545e-06
-5.04799e-07
1.93022e-06
-5.55916e-07
2.03015e-06
-6.08135e-07
2.13365e-06
-6.61092e-07
2.23862e-06
-7.1434e-07
2.34259e-06
-7.67368e-07
2.44285e-06
-8.19609e-07
2.53656e-06
-8.70474e-07
2.62094e-06
-9.19373e-07
2.69338e-06
-9.65755e-07
2.75158e-06
-1.00914e-06
2.7937e-06
-1.04913e-06
2.81842e-06
-1.08548e-06
2.82503e-06
-1.11805e-06
2.81344e-06
-1.14689e-06
2.7842e-06
-1.17218e-06
2.73843e-06
-1.19423e-06
2.67772e-06
-1.21345e-06
2.604e-06
-1.23035e-06
2.51939e-06
-1.24547e-06
2.42608e-06
-1.25935e-06
2.32614e-06
-1.27252e-06
2.22147e-06
-1.28543e-06
2.11367e-06
-1.29848e-06
2.004e-06
-1.31196e-06
1.89336e-06
-1.32608e-06
1.78233e-06
-1.34094e-06
1.67117e-06
-1.35655e-06
1.55992e-06
-1.37285e-06
1.44841e-06
-1.38971e-06
1.33639e-06
-1.40697e-06
1.22353e-06
-1.42443e-06
1.10948e-06
-1.44186e-06
9.93975e-07
8.76749e-07
-2.48268e-09
1.66178e-07
-9.94642e-09
4.44519e-07
-2.23038e-08
6.74877e-07
-3.9315e-08
8.63522e-07
-6.06119e-08
1.01703e-06
-8.57525e-08
1.14212e-06
-1.14277e-07
1.24538e-06
-1.45755e-07
1.33304e-06
-1.79813e-07
1.41071e-06
-2.1615e-07
1.48328e-06
-2.54536e-07
1.55482e-06
-2.94794e-07
1.6285e-06
-3.36789e-07
1.70657e-06
-3.80397e-07
1.79042e-06
-4.25484e-07
1.88054e-06
-4.71882e-07
1.97662e-06
-5.19372e-07
2.07764e-06
-5.67672e-07
2.18195e-06
-6.16434e-07
2.28738e-06
-6.65241e-07
2.3914e-06
-7.13621e-07
2.49123e-06
-7.61065e-07
2.584e-06
-8.07048e-07
2.66692e-06
-8.51055e-07
2.73739e-06
-8.92616e-07
2.79315e-06
-9.31331e-07
2.83242e-06
-9.66896e-07
2.85399e-06
-9.99125e-07
2.85726e-06
-1.02797e-06
2.84228e-06
-1.0535e-06
2.80974e-06
-1.07596e-06
2.76089e-06
-1.09565e-06
2.69742e-06
-1.11301e-06
2.62135e-06
-1.12849e-06
2.53488e-06
-1.14262e-06
2.4402e-06
-1.15588e-06
2.3394e-06
-1.16874e-06
2.23433e-06
-1.1816e-06
2.12653e-06
-1.19478e-06
2.01718e-06
-1.20852e-06
1.9071e-06
-1.22297e-06
1.79677e-06
-1.23819e-06
1.68639e-06
-1.25415e-06
1.57588e-06
-1.27077e-06
1.46503e-06
-1.2879e-06
1.35353e-06
-1.30538e-06
1.241e-06
-1.323e-06
1.1271e-06
-1.34056e-06
1.01154e-06
8.94056e-07
-2.01948e-09
1.68198e-07
-8.3577e-09
4.50857e-07
-1.91452e-08
6.85665e-07
-3.4312e-08
8.78689e-07
-5.3612e-08
1.03633e-06
-7.66797e-08
1.16519e-06
-1.03094e-07
1.2718e-06
-1.32432e-07
1.36238e-06
-1.64305e-07
1.44258e-06
-1.98383e-07
1.51736e-06
-2.34394e-07
1.59083e-06
-2.72122e-07
1.66622e-06
-3.11388e-07
1.74584e-06
-3.52032e-07
1.83106e-06
-3.93893e-07
1.9224e-06
-4.36784e-07
2.01951e-06
-4.80483e-07
2.12134e-06
-5.24714e-07
2.22618e-06
-5.6915e-07
2.33182e-06
-6.1341e-07
2.43566e-06
-6.57071e-07
2.53489e-06
-6.99684e-07
2.62662e-06
-7.40793e-07
2.70803e-06
-7.79964e-07
2.77656e-06
-8.16805e-07
2.82999e-06
-8.50999e-07
2.86661e-06
-8.82319e-07
2.88531e-06
-9.10649e-07
2.88559e-06
-9.35994e-07
2.86763e-06
-9.5848e-07
2.83223e-06
-9.78345e-07
2.78075e-06
-9.95921e-07
2.71499e-06
-1.01161e-06
2.63704e-06
-1.02585e-06
2.54912e-06
-1.03911e-06
2.45346e-06
-1.05181e-06
2.35211e-06
-1.06438e-06
2.2469e-06
-1.07713e-06
2.13928e-06
-1.09034e-06
2.03039e-06
-1.10419e-06
1.92095e-06
-1.11877e-06
1.81136e-06
-1.13412e-06
1.70173e-06
-1.15017e-06
1.59193e-06
-1.16683e-06
1.48169e-06
-1.18396e-06
1.37065e-06
-1.20138e-06
1.25842e-06
-1.2189e-06
1.14463e-06
-1.23635e-06
1.02898e-06
9.11237e-07
-1.54418e-09
1.69742e-07
-6.71836e-09
4.56031e-07
-1.58704e-08
6.94817e-07
-2.91028e-08
8.91922e-07
-4.62951e-08
1.05352e-06
-6.71638e-08
1.18605e-06
-9.13308e-08
1.29597e-06
-1.18384e-07
1.38943e-06
-1.47924e-07
1.47212e-06
-1.79591e-07
1.54902e-06
-2.13074e-07
1.62431e-06
-2.48116e-07
1.70126e-06
-2.84497e-07
1.78222e-06
-3.22024e-07
1.86859e-06
-3.60507e-07
1.96088e-06
-3.99748e-07
2.05875e-06
-4.39519e-07
2.16111e-06
-4.79561e-07
2.26622e-06
-5.1957e-07
2.37183e-06
-5.59208e-07
2.4753e-06
-5.98105e-07
2.57379e-06
-6.35876e-07
2.66439e-06
-6.7214e-07
2.74429e-06
-7.0654e-07
2.81096e-06
-7.38767e-07
2.86221e-06
-7.68581e-07
2.89643e-06
-7.95827e-07
2.91255e-06
-8.20451e-07
2.91021e-06
-8.42506e-07
2.88968e-06
-8.62147e-07
2.85187e-06
-8.79624e-07
2.79823e-06
-8.95258e-07
2.73063e-06
-9.09426e-07
2.65121e-06
-9.2253e-07
2.56223e-06
-9.34976e-07
2.46591e-06
-9.47143e-07
2.36428e-06
-9.59368e-07
2.25912e-06
-9.71929e-07
2.15184e-06
-9.85032e-07
2.04349e-06
-9.98808e-07
1.93472e-06
-1.01332e-06
1.82587e-06
-1.02855e-06
1.71696e-06
-1.04445e-06
1.60783e-06
-1.0609e-06
1.49814e-06
-1.07775e-06
1.38751e-06
-1.09486e-06
1.27552e-06
-1.11204e-06
1.16181e-06
-1.12913e-06
1.04607e-06
9.28077e-07
-1.06134e-09
1.70803e-07
-5.0431e-09
4.60013e-07
-1.25071e-08
7.02281e-07
-2.37286e-08
9.03143e-07
-3.87164e-08
1.06851e-06
-5.7273e-08
1.20461e-06
-7.90683e-08
1.31776e-06
-1.03706e-07
1.41407e-06
-1.30777e-07
1.49919e-06
-1.59895e-07
1.57814e-06
-1.90713e-07
1.65513e-06
-2.22932e-07
1.73348e-06
-2.56294e-07
1.81558e-06
-2.90572e-07
1.90287e-06
-3.25552e-07
1.99586e-06
-3.61024e-07
2.09422e-06
-3.96761e-07
2.19685e-06
-4.32521e-07
2.30198e-06
-4.68031e-07
2.40734e-06
-5.02998e-07
2.51026e-06
-5.37108e-07
2.6079e-06
-5.70046e-07
2.69733e-06
-6.01505e-07
2.77575e-06
-6.31206e-07
2.84066e-06
-6.58922e-07
2.88993e-06
-6.84484e-07
2.92199e-06
-7.07808e-07
2.93588e-06
-7.28892e-07
2.9313e-06
-7.47827e-07
2.90862e-06
-7.64788e-07
2.86883e-06
-7.80026e-07
2.81347e-06
-7.93846e-07
2.74445e-06
-8.06589e-07
2.66395e-06
-8.18611e-07
2.57425e-06
-8.30259e-07
2.47755e-06
-8.41852e-07
2.37587e-06
-8.53664e-07
2.27093e-06
-8.65912e-07
2.16409e-06
-8.7875e-07
2.05633e-06
-8.92265e-07
1.94824e-06
-9.06485e-07
1.84009e-06
-9.2138e-07
1.73186e-06
-9.36877e-07
1.62333e-06
-9.52867e-07
1.51413e-06
-9.69215e-07
1.40386e-06
-9.85777e-07
1.29209e-06
-1.0024e-06
1.17843e-06
-1.01894e-06
1.06261e-06
9.44392e-07
-5.75522e-10
1.71379e-07
-3.3474e-09
4.62785e-07
-9.08414e-09
7.08018e-07
-1.82334e-08
9.12293e-07
-3.09347e-08
1.08121e-06
-4.70807e-08
1.22076e-06
-6.63939e-08
1.33707e-06
-8.84981e-08
1.43617e-06
-1.12979e-07
1.52367e-06
-1.39426e-07
1.60459e-06
-1.67458e-07
1.68316e-06
-1.96737e-07
1.76276e-06
-2.26966e-07
1.84581e-06
-2.57887e-07
1.93379e-06
-2.89263e-07
2.02724e-06
-3.20873e-07
2.12583e-06
-3.52498e-07
2.22847e-06
-3.8391e-07
2.33339e-06
-4.14874e-07
2.4383e-06
-4.45142e-07
2.54053e-06
-4.74462e-07
2.63722e-06
-5.02588e-07
2.72545e-06
-5.29289e-07
2.80245e-06
-5.54365e-07
2.86573e-06
-5.77663e-07
2.91323e-06
-5.9909e-07
2.94342e-06
-6.18618e-07
2.95541e-06
-6.36295e-07
2.94897e-06
-6.52242e-07
2.92457e-06
-6.66647e-07
2.88324e-06
-6.79751e-07
2.82657e-06
-6.91835e-07
2.75653e-06
-7.03201e-07
2.67532e-06
-7.14152e-07
2.5852e-06
-7.24977e-07
2.48838e-06
-7.35931e-07
2.38683e-06
-7.47227e-07
2.28223e-06
-7.59025e-07
2.17589e-06
-7.7143e-07
2.06873e-06
-7.84494e-07
1.9613e-06
-7.98216e-07
1.85381e-06
-8.12553e-07
1.7462e-06
-8.27429e-07
1.6382e-06
-8.4274e-07
1.52944e-06
-8.58366e-07
1.41949e-06
-8.7418e-07
1.3079e-06
-8.90053e-07
1.19431e-06
-9.05862e-07
1.07842e-06
9.60023e-07
-9.46074e-11
1.71473e-07
-1.64794e-09
4.64338e-07
-5.63107e-09
7.12001e-07
-1.2663e-08
9.19324e-07
-2.3012e-08
1.09156e-06
-3.66645e-08
1.23441e-06
-5.34001e-08
1.35381e-06
-7.28678e-08
1.45564e-06
-9.46518e-08
1.54545e-06
-1.18321e-07
1.62826e-06
-1.43464e-07
1.70831e-06
-1.69704e-07
1.789e-06
-1.96708e-07
1.87282e-06
-2.24186e-07
1.96127e-06
-2.51882e-07
2.05493e-06
-2.79564e-07
2.15352e-06
-3.0702e-07
2.25593e-06
-3.34045e-07
2.36042e-06
-3.60437e-07
2.46469e-06
-3.85999e-07
2.5661e-06
-4.10542e-07
2.66176e-06
-4.33887e-07
2.7488e-06
-4.5588e-07
2.82445e-06
-4.76399e-07
2.88625e-06
-4.95365e-07
2.93219e-06
-5.1275e-07
2.9608e-06
-5.28585e-07
2.97124e-06
-5.42957e-07
2.96335e-06
-5.56011e-07
2.93762e-06
-5.67939e-07
2.89517e-06
-5.78971e-07
2.8376e-06
-5.89356e-07
2.76692e-06
-5.99353e-07
2.68531e-06
-6.0921e-07
2.59506e-06
-6.19154e-07
2.49832e-06
-6.29379e-07
2.39705e-06
-6.40039e-07
2.29289e-06
-6.51241e-07
2.18709e-06
-6.63047e-07
2.08054e-06
-6.75476e-07
1.97373e-06
-6.88506e-07
1.86684e-06
-7.02086e-07
1.75978e-06
-7.16142e-07
1.65226e-06
-7.3058e-07
1.54388e-06
-7.45299e-07
1.4342e-06
-7.60191e-07
1.32279e-06
-7.75153e-07
1.20927e-06
-7.90087e-07
1.09335e-06
9.74841e-07
3.86864e-10
1.71086e-07
5.52457e-11
4.6467e-07
-2.17658e-09
7.14232e-07
-7.06446e-09
9.24212e-07
-1.50125e-08
1.09951e-06
-2.61053e-08
1.2455e-06
-4.01841e-08
1.36789e-06
-5.69278e-08
1.47238e-06
-7.59243e-08
1.56445e-06
-9.67266e-08
1.64906e-06
-1.18893e-07
1.73047e-06
-1.42014e-07
1.81212e-06
-1.65721e-07
1.89652e-06
-1.89693e-07
1.98524e-06
-2.13654e-07
2.07889e-06
-2.37367e-07
2.17723e-06
-2.60624e-07
2.27919e-06
-2.83242e-07
2.38304e-06
-3.05058e-07
2.48651e-06
-3.25924e-07
2.58696e-06
-3.45712e-07
2.68155e-06
-3.64315e-07
2.7674e-06
-3.81652e-07
2.84178e-06
-3.97676e-07
2.90228e-06
-4.1238e-07
2.9469e-06
-4.25799e-07
2.97422e-06
-4.38014e-07
2.98346e-06
-4.4915e-07
2.97448e-06
-4.59369e-07
2.94784e-06
-4.68864e-07
2.90466e-06
-4.77845e-07
2.84658e-06
-4.8653e-07
2.7756e-06
-4.9513e-07
2.69391e-06
-5.03838e-07
2.60377e-06
-5.12821e-07
2.50731e-06
-5.22212e-07
2.40644e-06
-5.32108e-07
2.30278e-06
-5.42568e-07
2.19755e-06
-5.53614e-07
2.09158e-06
-5.65237e-07
1.98535e-06
-5.774e-07
1.879e-06
-5.90047e-07
1.77242e-06
-6.0311e-07
1.66532e-06
-6.16511e-07
1.55728e-06
-6.30167e-07
1.44786e-06
-6.43994e-07
1.33662e-06
-6.57914e-07
1.22319e-06
-6.71852e-07
1.10729e-06
9.88737e-07
8.50692e-10
1.70236e-07
1.70718e-09
4.63813e-07
1.24193e-09
7.14698e-07
-1.48522e-09
9.26939e-07
-7.00255e-09
1.10502e-06
-1.54868e-08
1.25399e-06
-2.68465e-08
1.37925e-06
-4.07953e-08
1.48633e-06
-5.69298e-08
1.58059e-06
-7.47913e-08
1.66692e-06
-9.39136e-08
1.74959e-06
-1.13853e-07
1.83206e-06
-1.3421e-07
1.91688e-06
-1.54634e-07
2.00566e-06
-1.74831e-07
2.09909e-06
-1.94554e-07
2.19695e-06
-2.13603e-07
2.29824e-06
-2.31818e-07
2.40125e-06
-2.49071e-07
2.50376e-06
-2.65265e-07
2.60316e-06
-2.80333e-07
2.69662e-06
-2.94236e-07
2.7813e-06
-3.06966e-07
2.85451e-06
-3.1855e-07
2.91386e-06
-3.29047e-07
2.95739e-06
-3.38553e-07
2.98373e-06
-3.47196e-07
2.9921e-06
-3.55132e-07
2.98242e-06
-3.6254e-07
2.95525e-06
-3.69607e-07
2.91173e-06
-3.76525e-07
2.8535e-06
-3.83475e-07
2.78255e-06
-3.9062e-07
2.70106e-06
-3.98101e-07
2.61125e-06
-4.06024e-07
2.51523e-06
-4.14464e-07
2.41489e-06
-4.23466e-07
2.31179e-06
-4.33042e-07
2.20713e-06
-4.43179e-07
2.10172e-06
-4.53843e-07
1.99602e-06
-4.64986e-07
1.89015e-06
-4.7655e-07
1.78399e-06
-4.88477e-07
1.67725e-06
-5.00708e-07
1.56951e-06
-5.13177e-07
-5.25824e-07
-5.38594e-07
-5.5144e-07
1.30065e-09
1.68935e-07
3.33198e-09
4.61782e-07
4.59775e-09
7.13432e-07
4.02296e-09
9.27514e-07
9.53425e-10
1.10809e-06
-4.89372e-09
1.25983e-06
-1.34907e-08
1.38785e-06
-2.45902e-08
1.49743e-06
-3.78054e-08
1.5938e-06
-5.26692e-08
1.68178e-06
-6.86952e-08
1.76562e-06
-8.5411e-08
1.84878e-06
-1.02384e-07
1.93385e-06
-1.19239e-07
2.02252e-06
-1.3566e-07
2.11551e-06
-1.51395e-07
2.21269e-06
-1.66248e-07
2.31309e-06
-1.80081e-07
2.41508e-06
-1.92802e-07
2.51648e-06
-2.04362e-07
2.61472e-06
-2.14752e-07
2.70701e-06
-2.24001e-07
2.79055e-06
-2.32172e-07
2.86268e-06
-2.39359e-07
2.92105e-06
-2.45689e-07
2.96372e-06
-2.51315e-07
2.98935e-06
-2.56407e-07
2.99719e-06
-2.61152e-07
2.98716e-06
-2.65738e-07
2.95983e-06
-2.70351e-07
2.91634e-06
-2.75159e-07
2.85831e-06
-2.8031e-07
2.7877e-06
-2.8592e-07
2.70667e-06
-2.92074e-07
2.6174e-06
-2.98825e-07
2.52198e-06
-3.06193e-07
2.42225e-06
-3.14171e-07
2.31976e-06
-3.22729e-07
2.21569e-06
-3.31822e-07
2.11081e-06
-3.41394e-07
2.00559e-06
-3.51389e-07
1.90014e-06
-3.61751e-07
1.79435e-06
-3.72432e-07
1.68793e-06
1.58047e-06
1.73129e-09
1.67204e-07
4.89932e-09
4.58614e-07
7.8636e-09
7.10468e-07
9.41547e-09
9.25962e-07
8.78146e-09
1.10873e-06
5.5866e-09
1.26303e-06
-2.17302e-10
1.39365e-06
-8.43428e-09
1.50565e-06
-1.8692e-08
1.60406e-06
-3.05164e-08
1.69361e-06
-4.34121e-08
1.77852e-06
-5.68785e-08
1.86225e-06
-7.04538e-08
1.94743e-06
-8.37362e-08
2.0358e-06
-9.63916e-08
2.12817e-06
-1.08159e-07
2.22445e-06
-1.18848e-07
2.32378e-06
-1.28339e-07
2.42458e-06
-1.36573e-07
2.52472e-06
-1.43547e-07
2.62169e-06
-1.4931e-07
2.71277e-06
-1.53954e-07
2.7952e-06
-1.57609e-07
2.86634e-06
-1.60436e-07
2.92387e-06
-1.62623e-07
2.96591e-06
-1.64381e-07
2.99111e-06
-1.65921e-07
2.99873e-06
-1.67453e-07
2.9887e-06
-1.6918e-07
2.96156e-06
-1.71281e-07
2.91844e-06
-1.73905e-07
2.86093e-06
-1.77166e-07
2.79096e-06
-1.81136e-07
2.71064e-06
-1.8585e-07
2.62212e-06
-1.91308e-07
2.52744e-06
-1.97477e-07
2.42842e-06
-2.04303e-07
2.32659e-06
-2.11719e-07
2.2231e-06
-2.19647e-07
2.11874e-06
-2.28016e-07
2.01396e-06
-2.36758e-07
1.90888e-06
-2.45819e-07
1.80341e-06
-2.5516e-07
1.69727e-06
1.59006e-06
2.13847e-09
1.65065e-07
6.39638e-09
4.54356e-07
1.10085e-08
7.05856e-07
1.46457e-08
9.22325e-07
1.6423e-08
1.10695e-06
1.58677e-08
1.26358e-06
1.28579e-08
1.39666e-06
7.54834e-09
1.51096e-06
2.85213e-10
1.61132e-06
-8.48927e-09
1.70238e-06
-1.8239e-08
1.78827e-06
-2.84487e-08
1.87245e-06
-3.86275e-08
1.95761e-06
-4.83532e-08
2.04553e-06
-5.72711e-08
2.13708e-06
-6.51104e-08
2.23229e-06
-7.16846e-08
2.33035e-06
-7.68894e-08
2.42978e-06
-8.06963e-08
2.52852e-06
-8.3146e-08
2.62414e-06
-8.43395e-08
2.71396e-06
-8.4429e-08
2.79528e-06
-8.36091e-08
2.86552e-06
-8.2105e-08
2.92237e-06
-8.01561e-08
2.96396e-06
-7.80468e-08
2.989e-06
-7.60064e-08
2.99669e-06
-7.42801e-08
2.98697e-06
-7.3082e-08
2.96036e-06
-7.25876e-08
2.91795e-06
-7.29279e-08
2.86127e-06
-7.4185e-08
2.79222e-06
-7.63922e-08
2.71285e-06
-7.95378e-08
2.62526e-06
-8.35712e-08
2.53147e-06
-8.8413e-08
2.43326e-06
-9.39653e-08
2.33214e-06
-1.00122e-07
2.22926e-06
-1.06781e-07
2.1254e-06
-1.13849e-07
2.02103e-06
-1.21252e-07
1.91629e-06
-1.28935e-07
1.81109e-06
-1.36865e-07
1.7052e-06
1.59822e-06
2.51863e-09
1.62547e-07
7.81019e-09
4.49064e-07
1.40049e-08
6.99661e-07
1.96677e-08
9.16662e-07
2.38099e-08
1.10281e-06
2.5866e-08
1.26153e-06
2.56392e-08
1.39689e-06
2.32276e-08
1.51337e-06
1.89427e-08
1.61561e-06
1.32445e-08
1.70808e-06
6.64896e-09
1.79486e-06
-3.02378e-10
1.87941e-06
-7.11178e-09
1.96442e-06
-1.33148e-08
2.05173e-06
-1.85408e-08
2.14231e-06
-2.25092e-08
2.23626e-06
-2.50342e-08
2.33288e-06
-2.60246e-08
2.43077e-06
-2.54783e-08
2.52798e-06
-2.34746e-08
2.62214e-06
-2.01632e-08
2.71065e-06
-1.57529e-08
2.79087e-06
-1.04991e-08
2.86027e-06
-4.69365e-09
2.91656e-06
1.34816e-09
2.95792e-06
7.3816e-09
2.98297e-06
1.30559e-08
2.99102e-06
1.81109e-08
2.98191e-06
2.23248e-08
2.95615e-06
2.55236e-08
2.91475e-06
2.75914e-08
2.85921e-06
2.84722e-08
2.79134e-06
2.81684e-08
2.71315e-06
2.67337e-08
2.6267e-06
2.42629e-08
2.53394e-06
2.08797e-08
2.43665e-06
1.67226e-08
2.3363e-06
1.19318e-08
2.23405e-06
6.63719e-09
2.1307e-06
9.48909e-10
2.02671e-06
-5.04649e-09
1.92228e-06
-1.12954e-08
1.81734e-06
-1.7769e-08
1.71167e-06
1.60491e-06
2.86865e-09
1.59678e-07
9.12873e-09
4.42804e-07
1.68271e-08
6.91962e-07
2.44381e-08
9.09051e-07
3.08793e-08
1.09637e-06
3.54971e-08
1.25691e-06
3.80195e-08
1.39436e-06
3.8488e-08
1.5129e-06
3.71804e-08
1.61691e-06
3.45335e-08
1.71073e-06
3.10697e-08
1.79833e-06
2.73389e-08
1.88314e-06
2.3877e-08
1.96788e-06
2.11528e-08
2.05445e-06
1.95589e-08
2.1439e-06
1.93895e-08
2.23643e-06
2.08328e-08
2.33144e-06
2.39709e-08
2.42763e-06
2.8784e-08
2.52316e-06
3.51597e-08
2.61576e-06
4.29044e-08
2.70291e-06
5.1758e-08
2.78202e-06
6.14103e-08
2.85061e-06
7.15197e-08
2.90646e-06
8.17319e-08
2.94771e-06
9.16688e-08
2.97303e-06
1.01018e-07
2.98167e-06
1.09481e-07
2.97345e-06
1.16816e-07
2.94881e-06
1.22846e-07
2.90872e-06
1.27463e-07
2.85459e-06
1.30633e-07
2.78817e-06
1.32388e-07
2.7114e-06
1.32817e-07
2.62627e-06
1.32055e-07
2.5347e-06
1.30265e-07
2.43844e-06
1.27623e-07
2.33894e-06
1.24301e-07
2.23737e-06
1.20457e-07
2.13454e-06
1.16217e-07
2.03095e-06
1.11679e-07
1.92682e-06
1.06901e-07
1.82212e-06
1.01909e-07
1.71666e-06
1.61013e-06
3.1858e-09
1.56492e-07
1.03412e-08
4.35649e-07
1.9451e-08
6.82853e-07
2.89158e-08
8.99587e-07
3.75709e-08
1.08771e-06
4.46801e-08
1.2498e-06
4.98974e-08
1.38915e-06
5.32054e-08
1.50959e-06
5.48411e-08
1.61528e-06
5.52193e-08
1.71035e-06
5.48582e-08
1.79869e-06
5.43173e-08
1.88368e-06
5.41448e-08
1.96805e-06
5.4834e-08
2.05376e-06
5.67957e-08
2.14194e-06
6.03378e-08
2.23289e-06
6.5654e-08
2.32612e-06
7.28212e-08
2.42047e-06
8.18029e-08
2.51418e-06
9.24583e-08
2.6051e-06
1.04556e-07
2.69081e-06
1.1779e-07
2.76879e-06
1.31798e-07
2.83661e-06
1.46184e-07
2.89207e-06
1.60538e-07
2.93336e-06
1.74455e-07
2.95911e-06
1.87564e-07
2.96856e-06
1.9954e-07
2.96147e-06
2.10124e-07
2.93823e-06
2.19132e-07
2.89971e-06
2.2646e-07
2.84726e-06
2.3209e-07
2.78254e-06
2.36075e-07
2.70741e-06
2.38536e-07
2.62381e-06
2.3964e-07
2.5336e-06
2.39585e-07
2.43849e-06
2.3858e-07
2.33995e-06
2.3683e-07
2.23912e-06
2.34514e-07
2.13686e-06
2.31782e-07
2.03369e-06
2.28741e-07
1.92986e-06
2.25458e-07
1.8254e-06
2.21955e-07
1.72017e-06
1.61387e-06
3.46777e-09
1.53024e-07
1.14378e-08
4.27679e-07
2.18549e-08
6.72435e-07
3.30628e-08
8.88379e-07
4.38273e-08
1.07695e-06
5.33368e-08
1.24029e-06
6.11736e-08
1.38131e-06
6.726e-08
1.50351e-06
7.17881e-08
1.61075e-06
7.51454e-08
1.70699e-06
7.784e-08
1.79599e-06
8.04344e-08
1.88108e-06
8.34891e-08
1.965e-06
8.75161e-08
2.04974e-06
9.29449e-08
2.13651e-06
1.00098e-07
2.22573e-06
1.09179e-07
2.31704e-06
1.20262e-07
2.40938e-06
1.33301e-07
2.50114e-06
1.48132e-07
2.59027e-06
1.64493e-07
2.67445e-06
1.82035e-07
2.75124e-06
2.00353e-07
2.81829e-06
2.19e-07
2.87342e-06
2.37518e-07
2.91484e-06
2.55457e-07
2.94118e-06
2.72406e-07
2.95161e-06
2.88008e-07
2.94587e-06
3.0198e-07
2.92426e-06
3.14127e-07
2.88756e-06
3.24344e-07
2.83704e-06
3.32618e-07
2.77427e-06
3.39021e-07
2.70101e-06
3.43694e-07
2.61913e-06
3.46831e-07
2.53046e-06
3.48662e-07
2.43666e-06
3.49423e-07
2.33918e-06
3.49348e-07
2.2392e-06
3.48641e-07
2.13756e-06
3.47472e-07
2.03486e-06
3.45962e-07
1.93137e-06
3.44186e-07
1.82718e-06
3.42171e-07
1.72218e-06
1.61614e-06
3.71265e-09
1.49312e-07
1.24103e-08
4.18981e-07
2.4019e-08
6.60827e-07
3.68439e-08
8.75554e-07
4.95945e-08
1.0642e-06
6.13925e-08
1.22849e-06
7.17525e-08
1.37095e-06
8.05355e-08
1.49472e-06
8.7886e-08
1.6034e-06
9.41588e-08
1.70072e-06
9.9846e-08
1.79031e-06
1.05508e-07
1.87542e-06
1.11714e-07
1.95879e-06
1.1899e-07
2.04246e-06
1.27785e-07
2.12772e-06
1.38438e-07
2.21508e-06
1.51162e-07
2.30431e-06
1.66037e-07
2.39451e-06
1.8301e-07
2.48417e-06
2.01902e-07
2.57138e-06
2.22425e-07
2.65393e-06
2.44198e-07
2.72947e-06
2.66773e-07
2.79571e-06
2.8966e-07
2.85053e-06
3.12355e-07
2.89214e-06
3.34366e-07
2.91916e-06
3.55239e-07
2.93074e-06
3.74585e-07
2.92653e-06
3.92095e-07
2.90675e-06
4.07554e-07
2.87211e-06
4.20849e-07
2.82375e-06
4.31966e-07
2.76315e-06
4.40986e-07
2.69199e-06
4.48065e-07
2.61206e-06
4.53418e-07
2.52511e-06
4.57295e-07
2.43278e-06
4.59962e-07
2.33652e-06
4.61674e-07
2.23748e-06
4.6266e-07
2.13658e-06
4.63111e-07
2.0344e-06
4.63165e-07
1.93132e-06
4.62908e-07
1.82744e-06
4.62372e-07
1.72272e-06
1.61698e-06
3.91893e-09
1.45393e-07
1.32516e-08
4.09649e-07
2.5926e-08
6.48152e-07
4.02272e-08
8.61253e-07
5.48226e-08
1.0496e-06
6.87771e-08
1.21454e-06
8.15424e-08
1.35818e-06
9.29196e-08
1.48335e-06
1.03003e-07
1.59332e-06
1.1211e-07
1.69161e-06
1.20711e-07
1.7817e-06
1.29359e-07
1.86677e-06
1.38626e-07
1.94952e-06
1.49053e-07
2.03203e-06
1.61103e-07
2.11567e-06
1.75133e-07
2.20105e-06
1.91369e-07
2.28808e-06
2.09901e-07
2.37598e-06
2.30673e-07
2.4634e-06
2.535e-07
2.54855e-06
2.78074e-07
2.62935e-06
3.03987e-07
2.70356e-06
3.30757e-07
2.76894e-06
3.57856e-07
2.82344e-06
3.84736e-07
2.86526e-06
4.10865e-07
2.89304e-06
4.35747e-07
2.90585e-06
4.58958e-07
2.90331e-06
4.80158e-07
2.88555e-06
4.99108e-07
2.85316e-06
5.1568e-07
2.80718e-06
5.29852e-07
2.74898e-06
5.41703e-07
2.68014e-06
5.51396e-07
2.60236e-06
5.59159e-07
2.51735e-06
5.6526e-07
2.42668e-06
5.69984e-07
2.33179e-06
5.73607e-07
2.23386e-06
5.76383e-07
2.1338e-06
5.7852e-07
2.03227e-06
5.80176e-07
1.92966e-06
5.81451e-07
1.82616e-06
5.82387e-07
1.72178e-06
1.61639e-06
4.08547e-09
1.41307e-07
1.39557e-08
3.99778e-07
2.7561e-08
6.34547e-07
4.31841e-08
8.45629e-07
5.94656e-08
1.03332e-06
7.54247e-08
1.19858e-06
9.04565e-08
1.34315e-06
1.04304e-07
1.4695e-06
1.17011e-07
1.58061e-06
1.28852e-07
1.67977e-06
1.40273e-07
1.77028e-06
1.51812e-07
1.85523e-06
1.64041e-07
1.9373e-06
1.77508e-07
2.01857e-06
1.92692e-07
2.10048e-06
2.09967e-07
2.18378e-06
2.29575e-07
2.26847e-06
2.51617e-07
2.35393e-06
2.76045e-07
2.43897e-06
3.02669e-07
2.52193e-06
3.3117e-07
2.60085e-06
3.61121e-07
2.67361e-06
3.92013e-07
2.73805e-06
4.23284e-07
2.79217e-06
4.54348e-07
2.8342e-06
4.84632e-07
2.86275e-06
5.13603e-07
2.87688e-06
5.40797e-07
2.87612e-06
5.65839e-07
2.8605e-06
5.88463e-07
2.83053e-06
6.08516e-07
2.78712e-06
6.25962e-07
2.73153e-06
6.40869e-07
2.66523e-06
6.53399e-07
2.58983e-06
6.63784e-07
2.50696e-06
6.72302e-07
2.41817e-06
6.79251e-07
2.32485e-06
6.84928e-07
2.22818e-06
6.89604e-07
2.12913e-06
6.93508e-07
2.02836e-06
6.96817e-07
1.92635e-06
6.99649e-07
1.82333e-06
7.02059e-07
1.71937e-06
1.61441e-06
4.21146e-09
1.37096e-07
1.45178e-08
3.89472e-07
2.89108e-08
6.20154e-07
4.56891e-08
8.28851e-07
6.34817e-08
1.01553e-06
8.12741e-08
1.18079e-06
9.84127e-08
1.32601e-06
1.14587e-07
1.45332e-06
1.29786e-07
1.56541e-06
1.44245e-07
1.66531e-06
1.58375e-07
1.75615e-06
1.72696e-07
1.84091e-06
1.87775e-07
1.92222e-06
2.04164e-07
2.00218e-06
2.22353e-07
2.08229e-06
2.42733e-07
2.1634e-06
2.65565e-07
2.24564e-06
2.90963e-07
2.32853e-06
3.18892e-07
2.41104e-06
3.49163e-07
2.49166e-06
3.81456e-07
2.56856e-06
4.15331e-07
2.63973e-06
4.50257e-07
2.70312e-06
4.85645e-07
2.75678e-06
5.20878e-07
2.79896e-06
5.55344e-07
2.82829e-06
5.88472e-07
2.84375e-06
6.19757e-07
2.84484e-06
6.4879e-07
2.83147e-06
6.75268e-07
2.80405e-06
6.99009e-07
2.76338e-06
7.19953e-07
2.71059e-06
7.38151e-07
2.64703e-06
7.53753e-07
2.57423e-06
7.66986e-07
2.49373e-06
7.78132e-07
2.40702e-06
7.87497e-07
2.31548e-06
7.9539e-07
2.22029e-06
8.02099e-07
2.12242e-06
8.07871e-07
2.02259e-06
8.12904e-07
1.92132e-06
8.17332e-07
1.8189e-06
8.21231e-07
1.71547e-06
1.61103e-06
4.29641e-09
1.328e-07
1.49342e-08
3.78834e-07
2.99648e-08
6.05124e-07
4.77198e-08
8.11096e-07
6.68331e-08
9.96414e-07
8.62688e-08
1.16135e-06
1.05334e-07
1.30695e-06
1.23669e-07
1.43499e-06
1.41212e-07
1.54787e-06
1.58152e-07
1.64837e-06
1.74865e-07
1.73944e-06
1.91847e-07
1.82393e-06
2.09653e-07
1.90441e-06
2.28836e-07
1.98299e-06
2.49894e-07
2.06124e-06
2.73234e-07
2.14006e-06
2.99133e-07
2.21974e-06
3.27727e-07
2.29994e-06
3.58992e-07
2.37978e-06
3.92753e-07
2.4579e-06
4.28689e-07
2.53262e-06
4.66358e-07
2.60206e-06
5.05215e-07
2.66427e-06
5.4465e-07
2.71734e-06
5.84019e-07
2.7596e-06
6.22676e-07
2.78963e-06
6.60013e-07
2.80642e-06
6.95486e-07
2.80936e-06
7.28646e-07
2.79831e-06
7.5915e-07
2.77355e-06
7.86783e-07
2.73575e-06
8.11451e-07
2.68592e-06
8.33178e-07
2.6253e-06
8.52097e-07
2.55531e-06
8.6842e-07
2.4774e-06
8.82424e-07
2.39302e-06
8.94415e-07
2.30349e-06
9.04711e-07
2.21e-06
9.1361e-07
2.11352e-06
9.21378e-07
2.01482e-06
9.28229e-07
1.91447e-06
9.3432e-07
1.81281e-06
9.39745e-07
1.71005e-06
1.60624e-06
4.33999e-09
1.2846e-07
1.52019e-08
3.67972e-07
3.07135e-08
5.89612e-07
4.92567e-08
7.92553e-07
6.94855e-08
9.76186e-07
9.03568e-08
1.14048e-06
1.11148e-07
1.28616e-06
1.31457e-07
1.41468e-06
1.51174e-07
1.52815e-06
1.70441e-07
1.62911e-06
1.89594e-07
1.72029e-06
2.09103e-07
1.80442e-06
2.29503e-07
1.88401e-06
2.51344e-07
1.96115e-06
2.7513e-07
2.03745e-06
3.01278e-07
2.11391e-06
3.30086e-07
2.19093e-06
3.61707e-07
2.26832e-06
3.96138e-07
2.34535e-06
4.33219e-07
2.42082e-06
4.72639e-07
2.4932e-06
5.13958e-07
2.56075e-06
5.56626e-07
2.6216e-06
6.00019e-07
2.67395e-06
6.4347e-07
2.71615e-06
6.86306e-07
2.74679e-06
7.27885e-07
2.76484e-06
7.67623e-07
2.76962e-06
8.05029e-07
2.76091e-06
8.3972e-07
2.73886e-06
8.71438e-07
2.70403e-06
9.0005e-07
2.65731e-06
9.25548e-07
2.59981e-06
9.48034e-07
2.53283e-06
9.67701e-07
2.45774e-06
9.84808e-07
2.37591e-06
9.99658e-07
2.28864e-06
1.01257e-06
2.19709e-06
1.02384e-06
2.10224e-06
1.03376e-06
2.0049e-06
1.04256e-06
1.90567e-06
1.05041e-06
1.80496e-06
1.05742e-06
1.70303e-06
1.60001e-06
4.34202e-09
1.24118e-07
1.53184e-08
3.56996e-07
3.11489e-08
5.73781e-07
5.0282e-08
7.7342e-07
7.14078e-08
9.5506e-07
9.34899e-08
1.1184e-06
1.15788e-07
1.26386e-06
1.37865e-07
1.3926e-06
1.59565e-07
1.50645e-06
1.80986e-07
1.60768e-06
2.02421e-07
1.69885e-06
2.24307e-07
1.78254e-06
2.4716e-07
1.86116e-06
2.71516e-07
1.9368e-06
2.97882e-07
2.01109e-06
3.26684e-07
2.08511e-06
3.58237e-07
2.15938e-06
3.92714e-07
2.23384e-06
4.30136e-07
2.30792e-06
4.7036e-07
2.38059e-06
5.13093e-07
2.45047e-06
5.57904e-07
2.51594e-06
6.04245e-07
2.57526e-06
6.51485e-07
2.62671e-06
6.98943e-07
2.66869e-06
7.45923e-07
2.69981e-06
7.9175e-07
2.71901e-06
8.35806e-07
2.72557e-06
8.77556e-07
2.71916e-06
9.16573e-07
2.69984e-06
9.52553e-07
2.66805e-06
9.8532e-07
2.62454e-06
1.01482e-06
2.5703e-06
1.04113e-06
2.50652e-06
1.0644e-06
2.43447e-06
1.08487e-06
2.35544e-06
1.10283e-06
2.27068e-06
1.11859e-06
2.18133e-06
1.13246e-06
2.08837e-06
1.14472e-06
1.99264e-06
1.15562e-06
1.89477e-06
1.16535e-06
1.79523e-06
1.17405e-06
1.69433e-06
1.59226e-06
4.30234e-09
1.19815e-07
1.52815e-08
3.46017e-07
3.12637e-08
5.57799e-07
5.07795e-08
7.53904e-07
7.25709e-08
9.33268e-07
9.56228e-08
1.09535e-06
1.1919e-07
1.24029e-06
1.42807e-07
1.36899e-06
1.66281e-07
1.48298e-06
1.89663e-07
1.5843e-06
2.13207e-07
1.67531e-06
2.3731e-07
1.75843e-06
2.62462e-07
1.836e-06
2.89184e-07
1.91007e-06
3.17979e-07
1.98229e-06
3.49278e-07
2.05381e-06
3.83411e-07
2.12524e-06
4.20572e-07
2.19668e-06
4.60804e-07
2.26769e-06
5.03989e-07
2.33741e-06
5.49855e-07
2.4046e-06
5.97986e-07
2.4678e-06
6.47845e-07
2.5254e-06
6.98801e-07
2.57575e-06
7.50166e-07
2.61732e-06
8.01225e-07
2.64875e-06
8.51278e-07
2.66896e-06
8.99674e-07
2.67717e-06
9.45836e-07
2.67299e-06
9.89291e-07
2.65639e-06
1.02969e-06
2.62766e-06
1.0668e-06
2.58743e-06
1.10054e-06
2.53657e-06
1.13091e-06
2.47615e-06
1.15804e-06
2.40733e-06
1.18215e-06
2.33133e-06
1.20349e-06
2.24934e-06
1.22235e-06
2.16246e-06
1.23905e-06
2.07168e-06
1.25387e-06
1.97782e-06
1.26707e-06
1.88157e-06
1.27886e-06
1.78344e-06
1.28939e-06
1.6838e-06
1.58289e-06
4.22073e-09
1.15594e-07
1.50888e-08
3.35149e-07
3.10506e-08
5.41837e-07
5.07331e-08
7.34222e-07
7.29463e-08
9.11055e-07
9.67116e-08
1.07158e-06
1.21291e-07
1.21571e-06
1.46202e-07
1.34408e-06
1.7122e-07
1.45796e-06
1.96356e-07
1.55917e-06
2.21817e-07
1.64985e-06
2.47963e-07
1.73229e-06
2.75253e-07
1.80872e-06
3.04187e-07
1.88114e-06
3.35256e-07
1.95122e-06
3.68895e-07
2.02017e-06
4.05444e-07
2.0887e-06
4.45115e-07
2.15701e-06
4.87976e-07
2.22483e-06
5.33936e-07
2.29145e-06
5.82746e-07
2.35579e-06
6.34015e-07
2.41654e-06
6.87219e-07
2.47219e-06
7.41739e-07
2.52123e-06
7.96886e-07
2.56218e-06
8.51938e-07
2.5937e-06
9.0617e-07
9.58902e-07
1.00951e-06
1.05748e-06
1.10242e-06
1.14405e-06
1.18221e-06
1.21688e-06
1.24813e-06
1.27614e-06
1.30113e-06
1.32338e-06
1.34317e-06
1.3608e-06
1.37653e-06
1.39057e-06
1.40309e-06
4.09721e-09
1.47385e-08
3.05022e-08
5.01268e-08
7.25056e-08
9.67117e-08
1.22028e-07
1.47969e-07
1.74283e-07
2.00943e-07
2.28116e-07
2.5612e-07
2.85378e-07
3.16363e-07
3.49551e-07
3.85374e-07