/*--------------------------------*- C++ -*----------------------------------*\
  =========                 |
  \\      /  F ield         | OpenFOAM: The Open Source CFD Toolbox
   \\    /   O peration     | Website:  https://openfoam.org
    \\  /    A nd           | Version:  9
     \\/     M anipulation  |
\*---------------------------------------------------------------------------*/
FoamFile
{
    format      ascii;
    class       surfaceScalarField;
    location    "1.25";
    object      phi;
}
// * * * * * * * * * * * * * * * * * * * * * * * * * * * * * * * * * * * * * //

dimensions      [0 3 -1 0 0 0 0];

internalField   nonuniform List<scalar> 
2402
(
-3.16194e-06
1.3363e-07
-3.17108e-06
1.89037e-08
-3.17959e-06
-9.63786e-08
-3.18766e-06
-2.12164e-07
-3.28415e-07
-3.06418e-06
1.41278e-07
-3.07136e-06
2.60866e-08
-3.07828e-06
-8.9461e-08
-3.08513e-06
-2.05318e-07
-3.09206e-06
-3.21482e-07
-4.37977e-07
-3.08517e-06
-2.22014e-06
-3.03494e-06
-2.32022e-06
-2.96844e-06
-2.40861e-06
-2.88358e-06
-2.4818e-06
-2.77867e-06
-2.53594e-06
-2.65266e-06
-2.56704e-06
-2.50533e-06
-2.57124e-06
-2.33753e-06
-2.54515e-06
-2.1513e-06
-2.48622e-06
-1.94991e-06
-2.39316e-06
-1.73782e-06
-2.26633e-06
-1.52041e-06
-2.10791e-06
-1.3036e-06
-1.92203e-06
-1.0934e-06
-1.71459e-06
-8.95362e-07
-1.49285e-06
-7.1416e-07
-1.2648e-06
-5.53216e-07
-1.03852e-06
-4.14568e-07
-8.21533e-07
-2.98887e-07
-6.2026e-07
-2.05647e-07
-4.39818e-07
-1.3338e-07
-2.83972e-07
-7.99487e-08
-1.55314e-07
-4.27993e-08
-5.5567e-08
-1.91497e-08
1.40639e-08
-6.10998e-09
5.25548e-08
-7.33531e-10
5.88024e-08
3.14172e-08
-2.95807e-06
1.47047e-07
-2.9636e-06
3.16198e-08
-2.96908e-06
-8.39791e-08
-2.97469e-06
-1.99712e-07
-2.98058e-06
-3.15592e-07
-2.9869e-06
-4.31656e-07
-2.99376e-06
-5.47971e-07
-3.00129e-06
-6.64627e-07
-3.00956e-06
-7.81747e-07
-3.0186e-06
-8.99469e-07
-3.02839e-06
-1.01795e-06
-3.03881e-06
-1.13734e-06
-3.04964e-06
-1.25778e-06
-3.06048e-06
-1.37936e-06
-3.07079e-06
-1.50211e-06
-3.07975e-06
-1.6259e-06
-3.08632e-06
-1.75046e-06
-3.08916e-06
-1.87521e-06
-3.08658e-06
-1.99929e-06
-3.07665e-06
-2.1214e-06
-3.05706e-06
-2.23973e-06
-3.02534e-06
-2.35194e-06
-2.97887e-06
-2.45508e-06
-2.91507e-06
-2.5456e-06
-2.83157e-06
-2.61944e-06
-2.72646e-06
-2.67214e-06
-2.59858e-06
-2.69912e-06
-2.44776e-06
-2.69597e-06
-2.27506e-06
-2.65892e-06
-2.08294e-06
-2.58529e-06
-1.87527e-06
-2.47399e-06
-1.65724e-06
-2.32594e-06
-1.43497e-06
-2.1443e-06
-1.2151e-06
-1.93447e-06
-1.00414e-06
-1.7038e-06
-8.07938e-07
-1.461e-06
-6.31123e-07
-1.21534e-06
-4.76839e-07
-9.75817e-07
-3.46641e-07
-7.50458e-07
-2.40615e-07
-5.45844e-07
-1.57629e-07
-3.66958e-07
-9.56517e-08
-2.17291e-07
-5.20587e-08
-9.916e-08
-2.38821e-08
-1.41128e-08
-7.9803e-09
3.6653e-08
-1.12458e-09
5.19466e-08
3.02927e-08
-2.84814e-06
1.51453e-07
-2.85243e-06
3.59114e-08
-2.85676e-06
-7.96507e-08
-2.86127e-06
-1.95201e-07
-2.86611e-06
-3.10755e-07
-2.87142e-06
-4.26348e-07
-2.87735e-06
-5.42045e-07
-2.88403e-06
-6.57939e-07
-2.89162e-06
-7.74159e-07
-2.90023e-06
-8.90861e-07
-2.90994e-06
-1.00823e-06
-2.92079e-06
-1.12649e-06
-2.9327e-06
-1.24586e-06
-2.9455e-06
-1.36656e-06
-2.95886e-06
-1.48875e-06
-2.97221e-06
-1.61255e-06
-2.98476e-06
-1.7379e-06
-2.99541e-06
-1.86457e-06
-3.00271e-06
-1.99199e-06
-3.00486e-06
-2.11925e-06
-2.99967e-06
-2.24491e-06
-2.98464e-06
-2.36697e-06
-2.95697e-06
-2.48275e-06
-2.91372e-06
-2.58886e-06
-2.85197e-06
-2.68119e-06
-2.76908e-06
-2.75504e-06
-2.66294e-06
-2.80526e-06
-2.53232e-06
-2.82659e-06
-2.37716e-06
-2.81407e-06
-2.19887e-06
-2.76358e-06
-2.00043e-06
-2.67243e-06
-1.78646e-06
-2.53991e-06
-1.56295e-06
-2.3678e-06
-1.33687e-06
-2.16054e-06
-1.11554e-06
-1.92513e-06
-9.05909e-07
-1.67063e-06
-7.13922e-07
-1.40733e-06
-5.43999e-07
-1.14574e-06
-3.98798e-07
-8.95659e-07
-2.79227e-07
-6.65416e-07
-1.84669e-07
-4.61516e-07
-1.13324e-07
-2.88636e-07
-6.25777e-08
-1.49906e-07
-2.93154e-08
-4.73751e-08
-1.01575e-08
1.74952e-08
-1.59116e-09
4.33803e-08
2.87015e-08
-2.73804e-06
1.55051e-07
-2.74155e-06
3.94204e-08
-2.74508e-06
-7.61244e-08
-2.74873e-06
-1.91548e-07
-2.75263e-06
-3.06857e-07
-2.75691e-06
-4.22071e-07
-2.76171e-06
-5.37238e-07
-2.76722e-06
-6.52435e-07
-2.7736e-06
-7.67777e-07
-2.78104e-06
-8.83418e-07
-2.78972e-06
-9.99554e-07
-2.79979e-06
-1.11643e-06
-2.81133e-06
-1.23432e-06
-2.82436e-06
-1.35353e-06
-2.83876e-06
-1.47436e-06
-2.85423e-06
-1.59708e-06
-2.87024e-06
-1.72189e-06
-2.88599e-06
-1.84882e-06
-2.90032e-06
-1.97766e-06
-2.91169e-06
-2.10788e-06
-2.91813e-06
-2.23848e-06
-2.91723e-06
-2.36787e-06
-2.9062e-06
-2.49378e-06
-2.88193e-06
-2.61313e-06
-2.84112e-06
-2.722e-06
-2.78054e-06
-2.81562e-06
-2.69724e-06
-2.88855e-06
-2.58898e-06
-2.93485e-06
-2.45451e-06
-2.94854e-06
-2.29401e-06
-2.92409e-06
-2.10933e-06
-2.85711e-06
-1.90416e-06
-2.74508e-06
-1.68399e-06
-2.58798e-06
-1.45575e-06
-2.38878e-06
-1.22726e-06
-2.15362e-06
-1.00646e-06
-1.89143e-06
-8.00591e-07
-1.61319e-06
-6.15488e-07
-1.33084e-06
-4.55114e-07
-1.05603e-06
-3.21429e-07
-7.99101e-07
-2.14539e-07
-5.68406e-07
-1.33037e-07
-3.70138e-07
-7.44224e-08
-2.08521e-07
-3.54958e-08
-8.63017e-08
-1.26652e-08
-5.33538e-09
-2.13993e-09
3.2855e-08
2.65616e-08
-2.63038e-06
1.58386e-07
-2.63357e-06
4.26076e-08
-2.63667e-06
-7.30241e-08
-2.63975e-06
-1.88467e-07
-2.6429e-06
-3.03705e-07
-2.64624e-06
-4.18735e-07
-2.6499e-06
-5.33574e-07
-2.65407e-06
-6.4827e-07
-2.65894e-06
-7.62906e-07
-2.66474e-06
-8.77611e-07
-2.67173e-06
-9.92569e-07
-2.68014e-06
-1.10802e-06
-2.69019e-06
-1.22427e-06
-2.70205e-06
-1.34166e-06
-2.71581e-06
-1.4606e-06
-2.73141e-06
-1.58148e-06
-2.74861e-06
-1.70469e-06
-2.7669e-06
-1.83053e-06
-2.78546e-06
-1.9591e-06
-2.80307e-06
-2.09027e-06
-2.81807e-06
-2.22347e-06
-2.82831e-06
-2.35763e-06
-2.83114e-06
-2.49095e-06
-2.82344e-06
-2.62082e-06
-2.80176e-06
-2.74368e-06
-2.76244e-06
-2.85495e-06
-2.70189e-06
-2.9491e-06
-2.61693e-06
-3.01981e-06
-2.50521e-06
-3.06026e-06
-2.36559e-06
-3.06371e-06
-2.19859e-06
-3.02411e-06
-2.00672e-06
-2.93695e-06
-1.79453e-06
-2.80016e-06
-1.56853e-06
-2.61479e-06
-1.33667e-06
-2.38548e-06
-1.10761e-06
-2.12049e-06
-8.89787e-07
-1.83102e-06
-6.90487e-07
-1.53014e-06
-5.15158e-07
-1.23136e-06
-3.67045e-07
-9.47214e-07
-2.47206e-07
-6.88245e-07
-1.5482e-07
-4.62524e-07
-8.76382e-08
-2.75702e-07
-4.24602e-08
-1.3148e-07
-1.55237e-08
-3.22718e-08
-2.77702e-09
2.01083e-08
2.37846e-08
-2.5232e-06
2.78116e-07
-2.52675e-06
1.61937e-07
-2.53004e-06
4.58951e-08
-2.53308e-06
-6.99863e-08
-2.53589e-06
-1.85652e-07
-2.53854e-06
-3.01057e-07
-2.54111e-06
-4.16165e-07
-2.54373e-06
-5.30956e-07
-2.54657e-06
-6.45434e-07
-2.54983e-06
-7.59641e-07
-2.55378e-06
-8.73665e-07
-2.55869e-06
-9.87656e-07
-2.56488e-06
-1.10183e-06
-2.57267e-06
-1.21648e-06
-2.58235e-06
-1.33198e-06
-2.59419e-06
-1.44876e-06
-2.60834e-06
-1.56733e-06
-2.62481e-06
-1.68822e-06
-2.6434e-06
-1.81193e-06
-2.66364e-06
-1.93887e-06
-2.68466e-06
-2.06924e-06
-2.70519e-06
-2.20295e-06
-2.7234e-06
-2.33942e-06
-2.73693e-06
-2.47742e-06
-2.74286e-06
-2.6149e-06
-2.73772e-06
-2.74882e-06
-2.71766e-06
-2.875e-06
-2.67866e-06
-2.9881e-06
-2.6168e-06
-3.08167e-06
-2.5287e-06
-3.14837e-06
-2.41197e-06
-3.18044e-06
-2.26573e-06
-3.17034e-06
-2.09106e-06
-3.11163e-06
-1.89128e-06
-2.99994e-06
-1.67203e-06
-2.83403e-06
-1.44097e-06
-2.61654e-06
-1.20712e-06
-2.35434e-06
-9.79866e-07
-2.05827e-06
-7.67916e-07
-1.74209e-06
-5.78301e-07
-1.42098e-06
-4.1576e-07
-1.10976e-06
-2.82549e-07
-8.21456e-07
-1.78652e-07
-5.6642e-07
-1.02245e-07
-3.5211e-07
-5.0234e-08
-1.83491e-07
-1.875e-08
-6.37558e-08
-3.50807e-09
4.86636e-09
2.02765e-08
-2.42369e-06
2.82643e-07
-2.42786e-06
1.66104e-07
-2.4316e-06
4.96419e-08
-2.4349e-06
-6.66881e-08
-2.43774e-06
-1.82812e-07
-2.44014e-06
-2.98654e-07
-2.44217e-06
-4.14138e-07
-2.44393e-06
-5.29198e-07
-2.44557e-06
-6.43792e-07
-2.4473e-06
-7.5791e-07
-2.44938e-06
-8.7159e-07
-2.4521e-06
-9.8493e-07
-2.45583e-06
-1.0981e-06
-2.46094e-06
-1.21137e-06
-2.46782e-06
-1.32509e-06
-2.47687e-06
-1.43971e-06
-2.48842e-06
-1.55579e-06
-2.5027e-06
-1.67394e-06
-2.5198e-06
-1.79483e-06
-2.53956e-06
-1.91911e-06
-2.56149e-06
-2.0473e-06
-2.58472e-06
-2.17972e-06
-2.60784e-06
-2.3163e-06
-2.62886e-06
-2.45639e-06
-2.64517e-06
-2.59859e-06
-2.6535e-06
-2.74048e-06
-2.65003e-06
-2.87848e-06
-2.63048e-06
-3.00765e-06
-2.59044e-06
-3.12171e-06
-2.5257e-06
-3.21311e-06
-2.43274e-06
-3.2734e-06
-2.3093e-06
-3.29378e-06
-2.15492e-06
-3.26601e-06
-1.97144e-06
-3.18342e-06
-1.76328e-06
-3.0422e-06
-1.53734e-06
-2.84248e-06
-1.30256e-06
-2.58913e-06
-1.06895e-06
-2.29188e-06
-8.46456e-07
-1.96459e-06
-6.43712e-07
-1.62372e-06
-4.67113e-07
-1.28635e-06
-3.2035e-07
-9.68219e-07
-2.04458e-07
-6.82313e-07
-1.18232e-07
-4.38335e-07
-5.88289e-08
-2.42894e-07
-2.23558e-08
-1.00229e-07
-4.33777e-09
-1.31517e-08
1.59387e-08
-2.31078e-06
6.38873e-07
-2.31702e-06
5.22096e-07
-2.32298e-06
4.05198e-07
-2.32855e-06
2.88211e-07
-2.33362e-06
1.71176e-07
-2.33811e-06
5.41231e-08
-2.34193e-06
-6.28663e-08
-2.34505e-06
-1.79693e-07
-2.34746e-06
-2.96244e-07
-2.34919e-06
-4.12404e-07
-2.35033e-06
-5.28061e-07
-2.351e-06
-6.4312e-07
-2.3514e-06
-7.57515e-07
-2.35176e-06
-8.71226e-07
-2.3524e-06
-9.84293e-07
-2.35367e-06
-1.09683e-06
-2.35599e-06
-1.20905e-06
-2.35981e-06
-1.32127e-06
-2.36561e-06
-1.43391e-06
-2.37386e-06
-1.54754e-06
-2.38497e-06
-1.66283e-06
-2.39926e-06
-1.78054e-06
-2.41687e-06
-1.9015e-06
-2.43768e-06
-2.0265e-06
-2.46118e-06
-2.15622e-06
-2.48643e-06
-2.29105e-06
-2.51188e-06
-2.43094e-06
-2.53534e-06
-2.57513e-06
-2.55388e-06
-2.72194e-06
-2.56387e-06
-2.86849e-06
-2.56104e-06
-3.01048e-06
-2.5407e-06
-3.14205e-06
-2.49805e-06
-3.25576e-06
-2.42864e-06
-3.34281e-06
-2.32893e-06
-3.39349e-06
-2.19695e-06
-3.39799e-06
-2.03292e-06
-3.34745e-06
-1.83973e-06
-3.23539e-06
-1.62313e-06
-3.05908e-06
-1.39148e-06
-2.82078e-06
-1.155e-06
-2.52835e-06
-9.24585e-07
-2.195e-06
-7.10369e-07
-1.83794e-06
-5.20491e-07
-1.47623e-06
-3.60288e-07
-1.12842e-06
-2.32095e-07
-8.10507e-07
-1.35554e-07
-5.34876e-07
-6.82407e-08
-3.10207e-07
-2.63472e-08
-1.42122e-07
-5.26999e-09
-3.42288e-08
1.06687e-08
-2.21548e-06
6.46761e-07
-2.22314e-06
5.29759e-07
-2.23045e-06
4.12508e-07
-2.23727e-06
2.95023e-07
-2.24343e-06
1.77344e-07
-2.24884e-06
5.95258e-08
-2.25338e-06
-5.83271e-08
-2.25698e-06
-1.76086e-07
-2.25962e-06
-2.93604e-07
-2.2613e-06
-4.10722e-07
-2.26208e-06
-5.27282e-07
-2.26207e-06
-6.43138e-07
-2.26141e-06
-7.58168e-07
-2.26035e-06
-8.72292e-07
-2.25915e-06
-9.85484e-07
-2.25819e-06
-1.0978e-06
-2.25787e-06
-1.20937e-06
-2.25868e-06
-1.32046e-06
-2.26113e-06
-1.43146e-06
-2.26579e-06
-1.54288e-06
-2.2732e-06
-1.65542e-06
-2.28387e-06
-1.76988e-06
-2.29817e-06
-1.88719e-06
-2.3163e-06
-2.00837e-06
-2.33815e-06
-2.13437e-06
-2.3632e-06
-2.26601e-06
-2.39037e-06
-2.40377e-06
-2.41796e-06
-2.54754e-06
-2.44349e-06
-2.69641e-06
-2.46368e-06
-2.8483e-06
-2.47446e-06
-2.9997e-06
-2.47111e-06
-3.1454e-06
-2.44847e-06
-3.27839e-06
-2.40141e-06
-3.38987e-06
-2.32532e-06
-3.46958e-06
-2.21682e-06
-3.50649e-06
-2.07447e-06
-3.4898e-06
-1.89946e-06
-3.4104e-06
-1.69603e-06
-3.26251e-06
-1.47155e-06
-3.04526e-06
-1.23594e-06
-2.76396e-06
-1.00065e-06
-2.4303e-06
-7.77088e-07
-2.0615e-06
-5.75138e-07
-1.67818e-06
-4.01936e-07
-1.30162e-06
-2.61354e-07
-9.51089e-07
-1.54127e-07
-6.42103e-07
-7.84466e-08
-3.85887e-07
-3.07236e-08
-1.89845e-07
-6.30717e-09
-5.86453e-08
4.36156e-09
-2.12284e-06
6.56221e-07
-2.13203e-06
5.38952e-07
-2.14078e-06
4.21262e-07
-2.14892e-06
3.03163e-07
-2.15628e-06
1.84699e-07
-2.16271e-06
6.5953e-08
-2.16809e-06
-5.29465e-08
-2.17233e-06
-1.71841e-07
-2.17539e-06
-2.90548e-07
-2.17724e-06
-4.08869e-07
-2.17792e-06
-5.26601e-07
-2.17751e-06
-6.43549e-07
-2.17614e-06
-7.59539e-07
-2.174e-06
-8.74429e-07
-2.17135e-06
-9.88133e-07
-2.16852e-06
-1.10063e-06
-2.1659e-06
-1.21199e-06
-2.16397e-06
-1.32239e-06
-2.16327e-06
-1.43216e-06
-2.16439e-06
-1.54176e-06
-2.16798e-06
-1.65183e-06
-2.17465e-06
-1.7632e-06
-2.18499e-06
-1.87686e-06
-2.19944e-06
-1.99391e-06
-2.21824e-06
-2.11558e-06
-2.24126e-06
-2.24299e-06
-2.26791e-06
-2.37711e-06
-2.29699e-06
-2.51847e-06
-2.32654e-06
-2.66686e-06
-2.35375e-06
-2.82109e-06
-2.37492e-06
-2.97853e-06
-2.38549e-06
-3.13483e-06
-2.38024e-06
-3.28365e-06
-2.35357e-06
-3.41654e-06
-2.30006e-06
-3.52309e-06
-2.2151e-06
-3.59145e-06
-2.09568e-06
-3.60921e-06
-1.94123e-06
-3.56485e-06
-1.75426e-06
-3.44948e-06
-1.54071e-06
-3.25881e-06
-1.30976e-06
-2.99491e-06
-1.07292e-06
-2.66714e-06
-8.42565e-07
-2.29185e-06
-6.30173e-07
-1.89057e-06
-4.44762e-07
-1.48703e-06
-2.91954e-07
-1.1039e-06
-1.73826e-07
-7.60231e-07
-8.9403e-08
-4.70311e-07
-3.54766e-08
-2.43772e-07
-7.45014e-09
-8.66717e-08
-3.08858e-09
-2.03205e-06
6.67272e-07
-2.04276e-06
5.49669e-07
-2.05295e-06
4.31447e-07
-2.0624e-06
3.12619e-07
-2.07095e-06
1.93245e-07
-2.07843e-06
7.34327e-08
-2.08471e-06
-4.66652e-08
-2.08969e-06
-1.6686e-07
-2.09331e-06
-2.86934e-07
-2.09552e-06
-4.06653e-07
-2.09635e-06
-5.25775e-07
-2.09584e-06
-6.44059e-07
-2.0941e-06
-7.61282e-07
-2.09128e-06
-8.77248e-07
-2.0876e-06
-9.91807e-07
-2.08336e-06
-1.10487e-06
-2.07891e-06
-1.21644e-06
-2.0747e-06
-1.3266e-06
-2.07125e-06
-1.43561e-06
-2.06917e-06
-1.54384e-06
-2.06912e-06
-1.65188e-06
-2.07182e-06
-1.76051e-06
-2.07797e-06
-1.8707e-06
-2.08823e-06
-1.98365e-06
-2.1031e-06
-2.10071e-06
-2.12281e-06
-2.22328e-06
-2.14722e-06
-2.3527e-06
-2.17563e-06
-2.49006e-06
-2.20663e-06
-2.63587e-06
-2.23796e-06
-2.78976e-06
-2.2664e-06
-2.95009e-06
-2.28774e-06
-3.11348e-06
-2.2969e-06
-3.27449e-06
-2.28812e-06
-3.42532e-06
-2.2554e-06
-3.55581e-06
-2.19316e-06
-3.65369e-06
-2.09699e-06
-3.70538e-06
-1.9646e-06
-3.69725e-06
-1.79663e-06
-3.61744e-06
-1.59733e-06
-3.4581e-06
-1.37467e-06
-3.21757e-06
-1.13974e-06
-2.90207e-06
-9.05436e-07
-2.52615e-06
-6.84613e-07
-2.1114e-06
-4.88142e-07
-1.6835e-06
-3.23546e-07
-1.26849e-06
-1.94481e-07
-8.89296e-07
-1.01043e-07
-5.63749e-07
-4.05883e-08
-3.04227e-07
-8.69774e-09
-1.18562e-07
-1.17863e-08
-1.94217e-06
6.7982e-07
-1.95431e-06
5.61807e-07
-1.96583e-06
4.42963e-07
-1.97652e-06
3.23308e-07
-1.98619e-06
2.02921e-07
-1.99469e-06
8.19323e-08
-2.00188e-06
-3.94782e-08
-2.00764e-06
-1.61093e-07
-2.01191e-06
-2.82663e-07
-2.01465e-06
-4.03923e-07
-2.01583e-06
-5.24593e-07
-2.01549e-06
-6.44396e-07
-2.01371e-06
-7.63064e-07
-2.0106e-06
-8.80353e-07
-2.00635e-06
-9.96058e-07
-2.0012e-06
-1.11003e-06
-1.99545e-06
-1.22218e-06
-1.98952e-06
-1.33254e-06
-1.98388e-06
-1.44125e-06
-1.97911e-06
-1.54861e-06
-1.97587e-06
-1.65511e-06
-1.97492e-06
-1.76146e-06
-1.97704e-06
-1.86858e-06
-1.98301e-06
-1.97768e-06
-1.99355e-06
-2.09017e-06
-2.00919e-06
-2.20763e-06
-2.03018e-06
-2.33171e-06
-2.05629e-06
-2.46395e-06
-2.08665e-06
-2.60551e-06
-2.11958e-06
-2.75683e-06
-2.15244e-06
-2.91723e-06
-2.18151e-06
-3.0844e-06
-2.20204e-06
-3.25397e-06
-2.20831e-06
-3.41905e-06
-2.19407e-06
-3.57005e-06
-2.153e-06
-3.69476e-06
-2.07955e-06
-3.77884e-06
-1.96981e-06
-3.80698e-06
-1.82259e-06
-3.76466e-06
-1.64025e-06
-3.64045e-06
-1.42916e-06
-3.42866e-06
-1.19954e-06
-3.13169e-06
-9.64344e-07
-2.76135e-06
-7.37421e-07
-2.33832e-06
-5.31375e-07
-1.88955e-06
-3.55714e-07
-1.44415e-06
-2.1588e-07
-1.02913e-06
-1.13277e-07
-6.66352e-07
-4.60309e-08
-3.71473e-07
-1.00465e-08
-1.54547e-07
-2.18328e-08
-1.85224e-06
6.93696e-07
-1.86564e-06
5.75199e-07
-1.87833e-06
4.55654e-07
-1.89011e-06
3.35093e-07
-1.9008e-06
2.13614e-07
-1.91025e-06
9.13739e-08
-1.9183e-06
-3.14232e-08
-1.92486e-06
-1.54532e-07
-1.92985e-06
-2.77677e-07
-1.93321e-06
-4.00564e-07
-1.93492e-06
-5.22882e-07
-1.93499e-06
-6.44323e-07
-1.93347e-06
-7.64583e-07
-1.93045e-06
-8.83377e-07
-1.92606e-06
-1.00045e-06
-1.92049e-06
-1.11559e-06
-1.91401e-06
-1.22866e-06
-1.90695e-06
-1.3396e-06
-1.89975e-06
-1.44845e-06
-1.89293e-06
-1.55543e-06
-1.88712e-06
-1.66092e-06
-1.88307e-06
-1.76552e-06
-1.88157e-06
-1.87008e-06
-1.8835e-06
-1.97575e-06
-1.88972e-06
-2.08395e-06
-1.901e-06
-2.19635e-06
-1.91789e-06
-2.31482e-06
-1.94058e-06
-2.44126e-06
-1.96872e-06
-2.57737e-06
-2.00122e-06
-2.72433e-06
-2.03605e-06
-2.8824e-06
-2.07007e-06
-3.05038e-06
-2.099e-06
-3.22504e-06
-2.11741e-06
-3.40063e-06
-2.119e-06
-3.56846e-06
-2.09704e-06
-3.71672e-06
-2.04505e-06
-3.83083e-06
-1.95777e-06
-3.89426e-06
-1.83223e-06
-3.8902e-06
-1.66884e-06
-3.80384e-06
-1.47214e-06
-3.62535e-06
-1.25103e-06
-3.3528e-06
-1.01802e-06
-2.99437e-06
-7.87546e-07
-2.56879e-06
-5.73712e-07
-2.10338e-06
-3.8799e-07
-1.62988e-06
-2.37767e-07
-1.17935e-06
-1.25989e-07
-7.7813e-07
-5.17659e-08
-4.45696e-07
-1.14902e-08
-1.94822e-07
-3.3323e-08
-1.76136e-06
7.08675e-07
-1.77579e-06
5.8963e-07
-1.78946e-06
4.69322e-07
-1.80217e-06
3.47799e-07
-1.81373e-06
2.25182e-07
-1.82401e-06
1.0165e-07
-1.83287e-06
-2.25676e-08
-1.8402e-06
-1.472e-07
-1.84593e-06
-2.71949e-07
-1.84999e-06
-3.96495e-07
-1.85237e-06
-5.20506e-07
-1.85305e-06
-6.43644e-07
-1.85206e-06
-7.65578e-07
-1.84944e-06
-8.8599e-07
-1.84531e-06
-1.00459e-06
-1.8398e-06
-1.12111e-06
-1.83311e-06
-1.23535e-06
-1.82553e-06
-1.34718e-06
-1.81742e-06
-1.45656e-06
-1.80924e-06
-1.56361e-06
-1.80157e-06
-1.66859e-06
-1.79509e-06
-1.772e-06
-1.7906e-06
-1.87457e-06
-1.789e-06
-1.97735e-06
-1.79123e-06
-2.08172e-06
-1.79822e-06
-2.18937e-06
-1.81077e-06
-2.30227e-06
-1.82943e-06
-2.4226e-06
-1.8543e-06
-2.5525e-06
-1.88484e-06
-2.69379e-06
-1.91963e-06
-2.84761e-06
-1.95619e-06
-3.01382e-06
-1.9908e-06
-3.19043e-06
-2.0185e-06
-3.37294e-06
-2.03316e-06
-3.55379e-06
-2.02789e-06
-3.72199e-06
-1.99559e-06
-3.86313e-06
-1.92988e-06
-3.95998e-06
-1.8262e-06
-3.99388e-06
-1.68302e-06
-3.94701e-06
-1.50294e-06
-3.80544e-06
-1.29317e-06
-3.56257e-06
-1.06533e-06
-3.22221e-06
-8.33985e-07
-2.80014e-06
-6.14383e-07
-2.32299e-06
-4.19865e-07
-1.82439e-06
-2.59855e-07
-1.33936e-06
-1.39043e-07
-8.98943e-07
-5.7744e-08
-5.26995e-07
-1.30199e-08
-2.39547e-07
-4.63429e-08
-1.66873e-06
7.24507e-07
-1.68397e-06
6.04863e-07
-1.69839e-06
4.83751e-07
-1.71183e-06
3.61238e-07
-1.72412e-06
2.37466e-07
-1.73511e-06
1.12637e-07
-1.74467e-06
-1.29985e-08
-1.75273e-06
-1.3914e-07
-1.75921e-06
-2.65478e-07
-1.76403e-06
-3.91669e-07
-1.76717e-06
-5.17362e-07
-1.76862e-06
-6.42202e-07
-1.76836e-06
-7.65833e-07
-1.76644e-06
-8.87914e-07
-1.76291e-06
-1.00812e-06
-1.75787e-06
-1.12614e-06
-1.75147e-06
-1.24174e-06
-1.74393e-06
-1.35471e-06
-1.73554e-06
-1.46495e-06
-1.72669e-06
-1.57246e-06
-1.71788e-06
-1.6774e-06
-1.70973e-06
-1.78015e-06
-1.70299e-06
-1.88131e-06
-1.69854e-06
-1.98181e-06
-1.69734e-06
-2.08291e-06
-1.70042e-06
-2.18628e-06
-1.70877e-06
-2.29393e-06
-1.72319e-06
-2.40817e-06
-1.74419e-06
-2.53149e-06
-1.77172e-06
-2.66626e-06
-1.80496e-06
-2.81437e-06
-1.84208e-06
-2.97671e-06
-1.88001e-06
-3.1525e-06
-1.91435e-06
-3.3386e-06
-1.93936e-06
-3.52878e-06
-1.94821e-06
-3.71315e-06
-1.93346e-06
-3.87788e-06
-1.88789e-06
-4.00554e-06
-1.80558e-06
-4.07619e-06
-1.68321e-06
-4.06939e-06
-1.52133e-06
-3.96732e-06
-1.32529e-06
-3.75861e-06
-1.10538e-06
-3.44212e-06
-8.75825e-07
-3.02969e-06
-6.52639e-07
-2.54617e-06
-4.50814e-07
-2.02622e-06
-2.8183e-07
-1.50835e-06
-1.52281e-07
-1.02849e-06
-6.39058e-08
-6.1537e-07
-1.46239e-08
-2.88828e-07
-6.09668e-08
-1.57371e-06
7.40928e-07
-1.58951e-06
6.20655e-07
-1.60448e-06
4.98723e-07
-1.61846e-06
3.75218e-07
-1.6313e-06
2.50305e-07
-1.64287e-06
1.24209e-07
-1.65305e-06
-2.81204e-09
-1.66179e-06
-1.30408e-07
-1.66898e-06
-2.58281e-07
-1.67459e-06
-3.86061e-07
-1.67857e-06
-5.13383e-07
-1.68089e-06
-6.39879e-07
-1.68155e-06
-7.65179e-07
-1.68054e-06
-8.88921e-07
-1.6779e-06
-1.01076e-06
-1.67369e-06
-1.13036e-06
-1.66801e-06
-1.24742e-06
-1.66101e-06
-1.36171e-06
-1.65292e-06
-1.47304e-06
-1.64404e-06
-1.58133e-06
-1.63481e-06
-1.68664e-06
-1.62574e-06
-1.78921e-06
-1.61753e-06
-1.88952e-06
-1.61099e-06
-1.98834e-06
-1.60709e-06
-2.08682e-06
-1.60686e-06
-2.18651e-06
-1.61142e-06
-2.28938e-06
-1.62176e-06
-2.39783e-06
-1.63871e-06
-2.51455e-06
-1.66264e-06
-2.64234e-06
-1.69328e-06
-2.78374e-06
-1.72942e-06
-2.94056e-06
-1.7687e-06
-3.11322e-06
-1.80734e-06
-3.29995e-06
-1.84015e-06
-3.49598e-06
-1.86055e-06
-3.69274e-06
-1.86104e-06
-3.87739e-06
-1.83381e-06
-4.03277e-06
-1.77184e-06
-4.13816e-06
-1.67021e-06
-4.17102e-06
-1.52749e-06
-4.11004e-06
-1.34704e-06
-3.93906e-06
-1.1375e-06
-3.65166e-06
-9.123e-07
-3.25488e-06
-6.87785e-07
-2.77069e-06
-4.80317e-07
-2.23369e-06
-3.0336e-07
-1.6853e-06
-1.65532e-07
-1.16632e-06
-7.01833e-08
-7.10719e-07
-1.62876e-08
-3.42724e-07
-7.72544e-08
-1.47582e-06
7.57686e-07
-1.49194e-06
6.36774e-07
-1.50724e-06
5.14029e-07
-1.52158e-06
3.89557e-07
-1.53482e-06
2.63543e-07
-1.54684e-06
1.36233e-07
-1.55757e-06
7.91581e-09
-1.56691e-06
-1.21071e-07
-1.5748e-06
-2.50387e-07
-1.5812e-06
-3.79664e-07
-1.58606e-06
-5.08525e-07
-1.58934e-06
-6.36592e-07
-1.59104e-06
-7.63486e-07
-1.59112e-06
-8.88835e-07
-1.58961e-06
-1.01227e-06
-1.58651e-06
-1.13345e-06
-1.5819e-06
-1.25204e-06
-1.57587e-06
-1.36774e-06
-1.56858e-06
-1.48034e-06
-1.56026e-06
-1.58965e-06
-1.55125e-06
-1.69566e-06
-1.542e-06
-1.79847e-06
-1.53309e-06
-1.89842e-06
-1.52527e-06
-1.99616e-06
-1.51945e-06
-2.09265e-06
-1.51665e-06
-2.1893e-06
-1.51802e-06
-2.28801e-06
-1.52471e-06
-2.39114e-06
-1.53775e-06
-2.50151e-06
-1.55787e-06
-2.62221e-06
-1.58529e-06
-2.75632e-06
-1.61939e-06
-2.90646e-06
-1.65846e-06
-3.07415e-06
-1.69945e-06
-3.25897e-06
-1.73776e-06
-3.45767e-06
-1.76727e-06
-3.66322e-06
-1.78061e-06
-3.86405e-06
-1.76968e-06
-4.0437e-06
-1.72663e-06
-4.1812e-06
-1.64515e-06
-4.2525e-06
-1.52199e-06
-4.2332e-06
-1.35844e-06
-4.10261e-06
-1.1613e-06
-3.8488e-06
-9.42816e-07
-3.47337e-06
-7.19212e-07
-2.99429e-06
-5.07878e-07
-2.44502e-06
-3.24117e-07
-1.86906e-06
-1.78614e-07
-1.31182e-06
-7.65011e-08
-8.12832e-07
-1.79941e-08
-4.01231e-07
-9.52484e-08
-1.37473e-06
7.74543e-07
-1.39096e-06
6.53004e-07
-1.40641e-06
5.29476e-07
-1.42094e-06
4.04087e-07
-1.43443e-06
2.77041e-07
-1.4468e-06
1.48602e-07
-1.45797e-06
1.90794e-08
-1.46785e-06
-1.11184e-07
-1.47641e-06
-2.4183e-07
-1.48359e-06
-3.72484e-07
-1.48935e-06
-5.02763e-07
-1.49366e-06
-6.32284e-07
-1.49648e-06
-7.60664e-07
-1.49779e-06
-8.87524e-07
-1.49757e-06
-1.01249e-06
-1.49583e-06
-1.1352e-06
-1.49257e-06
-1.25529e-06
-1.48786e-06
-1.37246e-06
-1.48178e-06
-1.48641e-06
-1.47452e-06
-1.59692e-06
-1.46631e-06
-1.70386e-06
-1.45753e-06
-1.80725e-06
-1.44865e-06
-1.9073e-06
-1.44034e-06
-2.00447e-06
-1.43341e-06
-2.09958e-06
-1.42884e-06
-2.19387e-06
-1.42777e-06
-2.28908e-06
-1.4314e-06
-2.38751e-06
-1.44093e-06
-2.49198e-06
-1.45737e-06
-2.60577e-06
-1.48132e-06
-2.73237e-06
-1.5127e-06
-2.87508e-06
-1.55045e-06
-3.0364e-06
-1.59219e-06
-3.21722e-06
-1.63404e-06
-3.41583e-06
-1.67044e-06
-3.62682e-06
-1.69433e-06
-3.84016e-06
-1.69756e-06
-4.04047e-06
-1.67173e-06
-4.20703e-06
-1.6094e-06
-4.31483e-06
-1.50567e-06
-4.33693e-06
-1.35982e-06
-4.24846e-06
-1.17667e-06
-4.03195e-06
-9.66979e-07
-3.68306e-06
-7.46429e-07
-3.21484e-06
-5.33057e-07
-2.65839e-06
-3.43782e-07
-2.05834e-06
-1.91344e-07
-1.46426e-06
-8.27794e-08
-9.21397e-07
-1.97244e-08
-4.64286e-07
-1.14973e-07
-1.27027e-06
7.91287e-07
-1.28642e-06
6.69152e-07
-1.30184e-06
5.44894e-07
-1.31641e-06
4.18661e-07
-1.33004e-06
2.90673e-07
-1.34265e-06
1.61213e-07
-1.35418e-06
3.06019e-08
-1.36455e-06
-1.00807e-07
-1.37374e-06
-2.32646e-07
-1.38169e-06
-3.64535e-07
-1.38836e-06
-4.96089e-07
-1.39372e-06
-6.26922e-07
-1.39774e-06
-7.56651e-07
-1.40036e-06
-8.84896e-07
-1.40158e-06
-1.01128e-06
-1.40134e-06
-1.13543e-06
-1.39966e-06
-1.25698e-06
-1.39654e-06
-1.37558e-06
-1.39203e-06
-1.49092e-06
-1.38623e-06
-1.60272e-06
-1.37932e-06
-1.71077e-06
-1.37157e-06
-1.815e-06
-1.36338e-06
-1.91549e-06
-1.3553e-06
-2.01255e-06
-1.34804e-06
-2.10684e-06
-1.34251e-06
-2.1994e-06
-1.33978e-06
-2.2918e-06
-1.34109e-06
-2.3862e-06
-1.3477e-06
-2.48536e-06
-1.36082e-06
-2.59265e-06
-1.38137e-06
-2.71182e-06
-1.40972e-06
-2.84673e-06
-1.4454e-06
-3.00073e-06
-1.48671e-06
-3.17591e-06
-1.53047e-06
-3.37206e-06
-1.5718e-06
-3.5855e-06
-1.60409e-06
-3.80787e-06
-1.61937e-06
-4.0252e-06
-1.60891e-06
-4.21749e-06
-1.56442e-06
-4.35932e-06
-1.47957e-06
-4.42178e-06
-1.35175e-06
-4.37627e-06
-1.18375e-06
-4.19995e-06
-9.84603e-07
-3.88221e-06
-7.69082e-07
-3.43036e-06
-5.5548e-07
-2.87199e-06
-3.62064e-07
-2.25176e-06
-2.03542e-07
-1.62278e-06
-8.89368e-08
-1.036e-06
-2.14581e-08
-5.31765e-07
-1.36431e-07
-1.16241e-06
8.07723e-07
-1.1783e-06
6.85046e-07
-1.19354e-06
5.60135e-07
-1.20804e-06
4.33152e-07
-1.2217e-06
3.04335e-07
-1.23446e-06
1.73978e-07
-1.24628e-06
4.24156e-08
-1.25709e-06
-8.99922e-08
-1.26687e-06
-2.2287e-07
-1.27557e-06
-3.55836e-07
-1.28315e-06
-4.88503e-07
-1.28959e-06
-6.20488e-07
-1.29483e-06
-7.5141e-07
-1.29883e-06
-8.8089e-07
-1.30156e-06
-1.00855e-06
-1.30297e-06
-1.13402e-06
-1.30302e-06
-1.25692e-06
-1.3017e-06
-1.3769e-06
-1.29901e-06
-1.49361e-06
-1.295e-06
-1.60672e-06
-1.28979e-06
-1.71599e-06
-1.28356e-06
-1.82123e-06
-1.27661e-06
-1.92243e-06
-1.2694e-06
-2.01976e-06
-1.26254e-06
-2.1137e-06
-1.25682e-06
-2.20512e-06
-1.25325e-06
-2.29537e-06
-1.25301e-06
-2.38644e-06
-1.25741e-06
-2.48097e-06
-1.26775e-06
-2.5823e-06
-1.2852e-06
-2.69437e-06
-1.31052e-06
-2.82141e-06
-1.34372e-06
-2.96752e-06
-1.38377e-06
-3.13586e-06
-1.42819e-06
-3.32765e-06
-1.47279e-06
-3.5409e-06
-1.51158e-06
-3.76908e-06
-1.53687e-06
-3.9999e-06
-1.53989e-06
-4.21447e-06
-1.51174e-06
-4.38747e-06
-1.44489e-06
-4.48864e-06
-1.33502e-06
-4.48614e-06
-1.1829e-06
-4.35207e-06
-9.95694e-07
-4.06942e-06
-7.86959e-07
-3.6391e-06
-5.74863e-07
-3.08409e-06
-3.78711e-07
-2.44791e-06
-2.15042e-07
-1.78645e-06
-9.48931e-08
-1.15615e-06
-2.31742e-08
-6.03484e-07
-1.59605e-07
-1.05121e-06
8.23686e-07
-1.06671e-06
7.00543e-07
-1.08165e-06
5.75072e-07
-1.09595e-06
4.47453e-07
-1.10955e-06
3.17935e-07
-1.12239e-06
1.86824e-07
-1.13444e-06
5.44614e-08
-1.14565e-06
-7.87845e-08
-1.15598e-06
-2.12535e-07
-1.16541e-06
-3.46407e-07
-1.1739e-06
-4.80015e-07
-1.18141e-06
-6.12979e-07
-1.1879e-06
-7.44921e-07
-1.19332e-06
-8.75469e-07
-1.19762e-06
-1.00425e-06
-1.20075e-06
-1.13089e-06
-1.20265e-06
-1.25503e-06
-1.20327e-06
-1.37628e-06
-1.2026e-06
-1.49428e-06
-1.20064e-06
-1.60869e-06
-1.19743e-06
-1.71919e-06
-1.19311e-06
-1.82556e-06
-1.18788e-06
-1.92766e-06
-1.1821e-06
-2.02554e-06
-1.17627e-06
-2.11953e-06
-1.17108e-06
-2.21031e-06
-1.16744e-06
-2.29902e-06
-1.16644e-06
-2.38744e-06
-1.16936e-06
-2.47805e-06
-1.17759e-06
-2.57408e-06
-1.19243e-06
-2.67952e-06
-1.21494e-06
-2.79891e-06
-1.24557e-06
-2.93689e-06
-1.28386e-06
-3.09757e-06
-1.32801e-06
-3.2835e-06
-1.37456e-06
-3.49435e-06
-1.41816e-06
-3.72548e-06
-1.45162e-06
-3.96644e-06
-1.46627e-06
-4.19982e-06
-1.45285e-06
-4.40089e-06
-1.40289e-06
-4.5386e-06
-1.31054e-06
-4.57849e-06
-1.17466e-06
-4.48795e-06
-1.00044e-06
-4.24364e-06
-7.99997e-07
-3.83954e-06
-5.91016e-07
-3.29307e-06
-3.93521e-07
-2.6454e-06
-2.25697e-07
-1.95428e-06
-1.00573e-07
-1.28127e-06
-2.48517e-08
-6.79205e-07
-1.84457e-07
-9.36843e-07
8.39036e-07
-9.5182e-07
7.1552e-07
-9.6635e-07
5.89603e-07
-9.80373e-07
4.61476e-07
-9.93838e-07
3.314e-07
-1.0067e-06
1.99688e-07
-1.01893e-06
6.66898e-08
-1.03049e-06
-6.72238e-08
-1.04135e-06
-2.01672e-07
-1.05149e-06
-3.3627e-07
-1.06087e-06
-4.70637e-07
-1.06945e-06
-6.04397e-07
-1.07719e-06
-7.37178e-07
-1.08405e-06
-8.68616e-07
-1.08995e-06
-9.98345e-07
-1.09485e-06
-1.126e-06
-1.09867e-06
-1.25121e-06
-1.10134e-06
-1.3736e-06
-1.10283e-06
-1.49279e-06
-1.10309e-06
-1.60843e-06
-1.10213e-06
-1.72015e-06
-1.10001e-06
-1.82767e-06
-1.09688e-06
-1.93079e-06
-1.093e-06
-2.02943e-06
-1.08875e-06
-2.12378e-06
-1.08472e-06
-2.21433e-06
-1.0817e-06
-2.30204e-06
-1.0807e-06
-2.38845e-06
-1.08292e-06
-2.47582e-06
-1.08975e-06
-2.56725e-06
-1.10259e-06
-2.66668e-06
-1.12269e-06
-2.7788e-06
-1.15089e-06
-2.9087e-06
-1.18719e-06
-3.06126e-06
-1.23046e-06
-3.24023e-06
-1.27793e-06
-3.44687e-06
-1.32497e-06
-3.67844e-06
-1.36494e-06
-3.92647e-06
-1.38948e-06
-4.17528e-06
-1.38917e-06
-4.4012e-06
-1.35483e-06
-4.57294e-06
-1.27932e-06
-4.65399e-06
-1.1597e-06
-4.60758e-06
-9.99189e-07
-4.40415e-06
-8.08267e-07
-4.03047e-06
-6.03847e-07
-3.49749e-06
-4.06349e-07
-2.8429e-06
-2.35384e-07
-2.12524e-06
-1.05907e-07
-1.41075e-06
-2.64701e-08
-7.58642e-07
-2.10927e-07
-8.19527e-07
8.53658e-07
-8.33884e-07
7.29877e-07
-8.47921e-07
6.0364e-07
-8.61593e-07
4.75148e-07
-8.74861e-07
3.44668e-07
-8.87693e-07
2.1252e-07
-9.00062e-07
7.90582e-08
-9.11941e-07
-5.53448e-08
-9.23306e-07
-1.90307e-07
-9.34129e-07
-3.25446e-07
-9.44381e-07
-4.60385e-07
-9.54024e-07
-5.94753e-07
-9.63016e-07
-7.28186e-07
-9.71304e-07
-8.60328e-07
-9.78827e-07
-9.90822e-07
-9.85515e-07
-1.11931e-06
-9.91294e-07
-1.24543e-06
-9.96086e-07
-1.36881e-06
-9.99816e-07
-1.48906e-06
-1.00243e-06
-1.60581e-06
-1.00389e-06
-1.71869e-06
-1.00421e-06
-1.82735e-06
-1.00347e-06
-1.93153e-06
-1.00184e-06
-2.03106e-06
-9.99636e-07
-2.12599e-06
-9.97317e-07
-2.21665e-06
-9.95554e-07
-2.3038e-06
-9.95242e-07
-2.38876e-06
-9.97505e-07
-2.47356e-06
-1.00367e-06
-2.56109e-06
-1.01517e-06
-2.65518e-06
-1.03341e-06
-2.76057e-06
-1.05947e-06
-2.88264e-06
-1.09382e-06
-3.02692e-06
-1.13586e-06
-3.19819e-06
-1.18352e-06
-3.39921e-06
-1.23288e-06
-3.62909e-06
-1.27794e-06
-3.88141e-06
-1.31076e-06
-4.14246e-06
-1.32198e-06
-4.38998e-06
-1.30194e-06
-4.59298e-06
-1.2424e-06
-4.71353e-06
-1.13878e-06
-4.7112e-06
-9.92399e-07
-4.55053e-06
-8.11962e-07
-4.2109e-06
-6.13361e-07
-3.69609e-06
-4.1711e-07
-3.03915e-06
-2.4401e-07
-2.29834e-06
-1.10837e-07
-1.54392e-06
-2.80098e-08
-8.41469e-07
-2.38937e-07
-6.99549e-07
8.67459e-07
-7.13206e-07
7.43534e-07
-7.26681e-07
6.17115e-07
-7.39942e-07
4.88408e-07
-7.52962e-07
3.57688e-07
-7.65718e-07
2.25276e-07
-7.78189e-07
9.15294e-08
-7.90355e-07
-4.31792e-08
-8.02193e-07
-1.78469e-07
-8.1368e-07
-3.1396e-07
-8.24786e-07
-4.49279e-07
-8.35475e-07
-5.84063e-07
-8.45705e-07
-7.17957e-07
-8.5542e-07
-8.50612e-07
-8.64559e-07
-9.81683e-07
-8.73048e-07
-1.11082e-06
-8.80804e-07
-1.23767e-06
-8.87742e-07
-1.36187e-06
-8.93773e-07