/*--------------------------------*- C++ -*----------------------------------*\
  =========                 |
  \\      /  F ield         | OpenFOAM: The Open Source CFD Toolbox
   \\    /   O peration     | Website:  https://openfoam.org
    \\  /    A nd           | Version:  9
     \\/     M anipulation  |
\*---------------------------------------------------------------------------*/
FoamFile
{
    format      ascii;
    class       volVectorField;
    location    "1.25";
    object      U;
}
// * * * * * * * * * * * * * * * * * * * * * * * * * * * * * * * * * * * * * //

dimensions      [0 1 -1 0 0 0 0];

internalField   nonuniform List<vector> 
1240
(
(-0.315721 0.012907 0)
(-0.31667 0.00146605 0)
(-0.317546 -0.0100414 0)
(-0.318372 -0.0216091 0)
(-0.319162 -0.0332337 0)
(-0.30605 0.0137853 0)
(-0.306787 0.00228261 0)
(-0.307486 -0.00926562 0)
(-0.30817 -0.0208542 0)
(-0.308858 -0.0324804 0)
(-0.309556 -0.0441495 0)
(-0.310637 -0.220688 0)
(-0.306369 -0.230035 0)
(-0.300584 -0.238089 0)
(-0.293061 -0.244502 0)
(-0.283606 -0.248906 0)
(-0.272077 -0.25093 0)
(-0.258404 -0.250229 0)
(-0.242614 -0.246515 0)
(-0.224851 -0.239598 0)
(-0.205379 -0.229416 0)
(-0.184588 -0.21607 0)
(-0.162977 -0.199835 0)
(-0.141121 -0.181162 0)
(-0.119628 -0.160654 0)
(-0.0990895 -0.13902 0)
(-0.0800261 -0.117018 0)
(-0.0628491 -0.0953947 0)
(-0.0478338 -0.0748262 0)
(-0.0351136 -0.0558822 0)
(-0.0246908 -0.0390072 0)
(-0.0164591 -0.0245244 0)
(-0.0102316 -0.0126545 0)
(-0.0057685 -0.0035451 0)
(-0.00279877 0.00269696 0)
(-0.00103511 0.00597598 0)
(-0.000186565 0.00618505 0)
(2.25766e-05 0.00318879 0)
(-0.295525 0.014451 0)
(-0.296087 0.00291631 0)
(-0.296633 -0.00864429 0)
(-0.297183 -0.0202267 0)
(-0.297754 -0.0318319 0)
(-0.298362 -0.043462 0)
(-0.299018 -0.055125 0)
(-0.299735 -0.0668291 0)
(-0.300524 -0.0785857 0)
(-0.301389 -0.0904068 0)
(-0.302333 -0.102305 0)
(-0.303347 -0.114294 0)
(-0.304417 -0.12638 0)
(-0.305512 -0.138567 0)
(-0.306586 -0.150848 0)
(-0.307572 -0.163201 0)
(-0.308378 -0.175583 0)
(-0.308884 -0.187923 0)
(-0.308941 -0.200117 0)
(-0.308366 -0.212016 0)
(-0.306947 -0.223425 0)
(-0.304442 -0.234094 0)
(-0.300595 -0.243718 0)
(-0.29514 -0.251938 0)
(-0.287826 -0.258354 0)
(-0.278433 -0.262539 0)
(-0.266801 -0.264067 0)
(-0.252857 -0.262546 0)
(-0.236641 -0.257661 0)
(-0.218326 -0.249217 0)
(-0.19823 -0.237184 0)
(-0.176811 -0.221725 0)
(-0.154642 -0.203217 0)
(-0.132375 -0.182237 0)
(-0.110682 -0.159523 0)
(-0.0901935 -0.135919 0)
(-0.0714442 -0.112292 0)
(-0.0548286 -0.0894667 0)
(-0.0405818 -0.0681598 0)
(-0.0287814 -0.0489492 0)
(-0.0193684 -0.0322646 0)
(-0.0121769 -0.018404 0)
(-0.00696723 -0.00756458 0)
(-0.00345424 0.000119321 0)
(-0.00132686 0.00453847 0)
(-0.000267875 0.00557902 0)
(1.69518e-05 0.0030977 0)
(-0.284597 0.0149513 0)
(-0.28503 0.00340196 0)
(-0.285457 -0.00815617 0)
(-0.285895 -0.0197198 0)
(-0.286359 -0.0312908 0)
(-0.286863 -0.042873 0)
(-0.287421 -0.0544729 0)
(-0.288048 -0.066101 0)
(-0.288759 -0.0777701 0)
(-0.289566 -0.0894956 0)
(-0.290481 -0.101295 0)
(-0.29151 -0.113189 0)
(-0.29265 -0.125194 0)
(-0.293893 -0.137329 0)
(-0.295211 -0.149603 0)
(-0.296563 -0.162016 0)
(-0.297881 -0.174552 0)
(-0.299072 -0.187171 0)
(-0.300008 -0.199801 0)
(-0.300528 -0.212329 0)
(-0.300433 -0.224593 0)
(-0.299485 -0.236371 0)
(-0.297418 -0.247379 0)
(-0.293941 -0.257263 0)
(-0.288758 -0.265612 0)
(-0.281582 -0.271961 0)
(-0.272171 -0.275817 0)
(-0.26035 -0.276695 0)
(-0.246047 -0.274154 0)
(-0.229325 -0.267856 0)
(-0.2104 -0.257615 0)
(-0.189655 -0.243451 0)
(-0.167627 -0.225622 0)
(-0.144976 -0.204631 0)
(-0.122431 -0.181211 0)
(-0.100724 -0.156258 0)
(-0.0805135 -0.130756 0)
(-0.0623277 -0.105681 0)
(-0.0465245 -0.0819202 0)
(-0.0332795 -0.0602114 0)
(-0.0226007 -0.0411209 0)
(-0.0143587 -0.0250495 0)
(-0.00832434 -0.0122635 0)
(-0.00420392 -0.00293824 0)
(-0.00166487 0.00279572 0)
(-0.000364177 0.00481397 0)
(9.54181e-06 0.0029639 0)
(-0.273626 0.0153414 0)
(-0.273981 0.00378405 0)
(-0.274329 -0.00776895 0)
(-0.274686 -0.0193144 0)
(-0.27506 -0.0308538 0)
(-0.275465 -0.0423902 0)
(-0.275916 -0.0539295 0)
(-0.276427 -0.0654808 0)
(-0.277017 -0.0770564 0)
(-0.277704 -0.0886728 0)
(-0.278506 -0.10035 0)
(-0.279441 -0.112111 0)
(-0.28052 -0.123982 0)
(-0.28175 -0.135991 0)
(-0.283127 -0.148161 0)
(-0.28463 -0.160513 0)
(-0.28622 -0.173055 0)
(-0.287832 -0.185775 0)
(-0.289369 -0.198639 0)
(-0.290696 -0.21157 0)
(-0.291638 -0.224448 0)
(-0.291977 -0.237089 0)
(-0.291451 -0.249244 0)
(-0.289762 -0.260585 0)
(-0.286585 -0.270704 0)
(-0.281589 -0.279123 0)
(-0.274457 -0.285304 0)
(-0.264921 -0.288683 0)
(-0.252799 -0.288708 0)
(-0.238029 -0.284893 0)
(-0.220707 -0.276887 0)
(-0.201108 -0.264532 0)
(-0.179696 -0.247928 0)
(-0.1571 -0.227458 0)
(-0.134073 -0.203792 0)
(-0.111423 -0.177845 0)
(-0.0899274 -0.150688 0)
(-0.0702553 -0.12345 0)
(-0.0529048 -0.0971984 0)
(-0.0381728 -0.0728621 0)
(-0.0261572 -0.0511753 0)
(-0.0167838 -0.0326723 0)
(-0.00984736 -0.0177135 0)
(-0.00505371 -0.00653293 0)
(-0.00205259 0.000706986 0)
(-0.00047677 0.0038658 0)
(1.50039e-07 0.00277947 0)
(-0.262874 0.0156774 0)
(-0.2632 0.00410991 0)
(-0.263512 -0.00744484 0)
(-0.26382 -0.0189831 0)
(-0.264129 -0.0305047 0)
(-0.26445 -0.0420107 0)
(-0.264796 -0.0535046 0)
(-0.265183 -0.0649929 0)
(-0.26563 -0.076486 0)
(-0.266158 -0.0879985 0)
(-0.266792 -0.0995501 0)
(-0.267556 -0.111165 0)
(-0.268474 -0.122874 0)
(-0.269567 -0.134711 0)
(-0.270848 -0.14671 0)
(-0.27232 -0.158908 0)
(-0.273969 -0.171334 0)
(-0.275759 -0.184005 0)
(-0.277626 -0.196918 0)
(-0.279469 -0.210039 0)
(-0.281146 -0.22329 0)
(-0.282465 -0.236536 0)
(-0.283187 -0.249571 0)
(-0.283022 -0.262108 0)
(-0.281637 -0.273767 0)
(-0.278672 -0.284077 0)
(-0.273758 -0.292479 0)
(-0.266549 -0.298356 0)
(-0.256758 -0.301059 0)
(-0.244199 -0.29997 0)
(-0.228836 -0.294566 0)
(-0.210813 -0.284498 0)
(-0.190482 -0.269667 0)
(-0.168403 -0.250288 0)
(-0.145312 -0.226914 0)
(-0.122059 -0.20042 0)
(-0.0995214 -0.171929 0)
(-0.078506 -0.142701 0)
(-0.0596637 -0.113994 0)
(-0.0434343 -0.0869472 0)
(-0.03003 -0.062498 0)
(-0.0194537 -0.0413493 0)
(-0.011541 -0.023986 0)
(-0.00600815 -0.0107234 0)
(-0.00249298 -0.00177037 0)
(-0.000606838 0.0027089 0)
(-1.14219e-05 0.00253588 0)
(-0.252136 0.0276142 0)
(-0.252503 0.0160118 0)
(-0.252846 0.00442474 0)
(-0.253161 -0.00714575 0)
(-0.253453 -0.018695 0)
(-0.253724 -0.0302203 0)
(-0.253983 -0.0417197 0)
(-0.254238 -0.0531933 0)
(-0.254506 -0.0646438 0)
(-0.254806 -0.0760779 0)
(-0.25516 -0.0875067 0)
(-0.255596 -0.0989474 0)
(-0.256143 -0.110423 0)
(-0.256835 -0.121965 0)
(-0.257702 -0.13361 0)
(-0.258773 -0.1454 0)
(-0.26007 -0.157382 0)
(-0.261604 -0.169603 0)
(-0.263365 -0.182104 0)
(-0.265323 -0.194912 0)
(-0.267412 -0.208032 0)
(-0.269527 -0.221431 0)
(-0.271513 -0.235026 0)
(-0.273164 -0.248664 0)
(-0.274213 -0.26211 0)
(-0.274338 -0.27503 0)
(-0.273171 -0.286981 0)
(-0.270312 -0.297412 0)
(-0.265355 -0.305676 0)
(-0.257925 -0.31106 0)
(-0.247724 -0.312828 0)
(-0.234576 -0.310298 0)
(-0.218482 -0.302921 0)
(-0.199658 -0.290378 0)
(-0.178553 -0.272668 0)
(-0.155841 -0.250172 0)
(-0.132376 -0.223661 0)
(-0.1091 -0.194255 0)
(-0.0869454 -0.16331 0)
(-0.0667186 -0.132263 0)
(-0.0490198 -0.102484 0)
(-0.0341999 -0.0751423 0)
(-0.0223633 -0.0511491 0)
(-0.0134066 -0.0311495 0)
(-0.00707016 -0.0155684 0)
(-0.00298836 -0.00468029 0)
(-0.000755453 0.00131635 0)
(-2.53807e-05 0.00222397 0)
(-0.24215 0.0280212 0)
(-0.242587 0.0163891 0)
(-0.242983 0.00476841 0)
(-0.243336 -0.00683654 0)
(-0.243643 -0.0184195 0)
(-0.243904 -0.0299746 0)
(-0.244123 -0.0414963 0)
(-0.244309 -0.0529803 0)
(-0.244475 -0.0644249 0)
(-0.244638 -0.0758318 0)
(-0.244821 -0.0872077 0)
(-0.245053 -0.0985652 0)
(-0.245367 -0.109924 0)
(-0.245799 -0.121313 0)
(-0.24639 -0.132769 0)
(-0.247178 -0.144337 0)
(-0.248201 -0.156072 0)
(-0.249489 -0.168032 0)
(-0.251059 -0.180276 0)
(-0.25291 -0.19286 0)
(-0.255011 -0.205821 0)
(-0.257297 -0.219171 0)
(-0.259655 -0.232878 0)
(-0.261917 -0.246849 0)
(-0.263853 -0.260909 0)
(-0.265169 -0.274783 0)
(-0.265508 -0.288077 0)
(-0.264459 -0.300273 0)
(-0.26158 -0.310725 0)
(-0.256432 -0.318681 0)
(-0.248616 -0.323322 0)
(-0.23783 -0.323823 0)
(-0.223926 -0.319445 0)
(-0.206964 -0.309636 0)
(-0.187254 -0.294149 0)
(-0.165365 -0.273134 0)
(-0.142106 -0.247197 0)
(-0.118446 -0.217383 0)
(-0.0954137 -0.185092 0)
(-0.0739641 -0.151917 0)
(-0.0548678 -0.119455 0)
(-0.0386359 -0.0891397 0)
(-0.0255002 -0.0621282 0)
(-0.0154411 -0.0392673 0)
(-0.00824068 -0.0211255 0)
(-0.00354032 -0.00806722 0)
(-0.000923497 -0.000339667 0)
(-4.19239e-05 0.00183409 0)
(-0.230758 0.0635358 0)
(-0.231396 0.051869 0)
(-0.232009 0.0401956 0)
(-0.232587 0.028519 0)
(-0.233122 0.0168442 0)
(-0.233602 0.00517316 0)
(-0.234018 -0.00648725 0)
(-0.234366 -0.0181285 0)
(-0.234642 -0.0297411 0)
(-0.234848 -0.0413156 0)
(-0.234988 -0.0528431 0)
(-0.235075 -0.0643168 0)
(-0.235123 -0.0757329 0)
(-0.235154 -0.0870925 0)
(-0.235196 -0.0984026 0)
(-0.235282 -0.109678 0)
(-0.235451 -0.120943 0)
(-0.235747 -0.132231 0)
(-0.236217 -0.143588 0)
(-0.236909 -0.155069 0)
(-0.237868 -0.166742 0)
(-0.239133 -0.178678 0)
(-0.240729 -0.190953 0)
(-0.242657 -0.203635 0)
(-0.24489 -0.216775 0)
(-0.247357 -0.23039 0)
(-0.249937 -0.244446 0)
(-0.252444 -0.258835 0)
(-0.254622 -0.273349 0)
(-0.256142 -0.287664 0)
(-0.256605 -0.301311 0)
(-0.255558 -0.313677 0)
(-0.252517 -0.324005 0)
(-0.247007 -0.331421 0)
(-0.238617 -0.334993 0)
(-0.227056 -0.333806 0)
(-0.212223 -0.327084 0)
(-0.194266 -0.314312 0)
(-0.173616 -0.295369 0)
(-0.150987 -0.270625 0)
(-0.12733 -0.240982 0)
(-0.103732 -0.207811 0)
(-0.0812741 -0.172813 0)
(-0.0608988 -0.137804 0)
(-0.0432941 -0.104495 0)
(-0.0288438 -0.0743273 0)
(-0.0176372 -0.0483946 0)
(-0.00951836 -0.0274491 0)
(-0.0041495 -0.0119751 0)
(-0.00111164 -0.0022875 0)
(-6.12567e-05 0.00135615 0)
(-0.221157 0.0642472 0)
(-0.221939 0.0525593 0)
(-0.222691 0.040854 0)
(-0.2234 0.0291335 0)
(-0.224053 0.0174015 0)
(-0.224634 0.00566239 0)
(-0.225133 -0.00607465 0)
(-0.225541 -0.0177983 0)
(-0.225854 -0.0294955 0)
(-0.226069 -0.0411525 0)
(-0.22619 -0.0527557 0)
(-0.226224 -0.0642931 0)
(-0.226186 -0.0757554 0)
(-0.226094 -0.0871374 0)
(-0.225973 -0.0984401 0)
(-0.225856 -0.109672 0)
(-0.225781 -0.12085 0)
(-0.225793 -0.132005 0)
(-0.225943 -0.143177 0)
(-0.226285 -0.154422 0)
(-0.226876 -0.165807 0)
(-0.22777 -0.177415 0)
(-0.229012 -0.189333 0)
(-0.230633 -0.201655 0)
(-0.23264 -0.214463 0)
(-0.235004 -0.227819 0)
(-0.237648 -0.241747 0)
(-0.240437 -0.256205 0)
(-0.243161 -0.271061 0)
(-0.245534 -0.286067 0)
(-0.247186 -0.300827 0)
(-0.247673 -0.314783 0)
(-0.246494 -0.327204 0)
(-0.243123 -0.337202 0)
(-0.237059 -0.343767 0)
(-0.227887 -0.345846 0)
(-0.215351 -0.342451 0)
(-0.199425 -0.332798 0)
(-0.180374 -0.316466 0)
(-0.158781 -0.293536 0)
(-0.135526 -0.264684 0)
(-0.111708 -0.231179 0)
(-0.0885058 -0.194762 0)
(-0.0670176 -0.157431 0)
(-0.0481179 -0.12118 0)
(-0.0323647 -0.0877669 0)
(-0.0199821 -0.0585755 0)
(-0.0108992 -0.0345884 0)
(-0.00481552 -0.0164462 0)
(-0.00132029 -0.00455548 0)
(-8.35633e-05 0.000779727 0)
(-0.211815 0.0651116 0)
(-0.212752 0.0533996 0)
(-0.213654 0.0416549 0)
(-0.214503 0.0298788 0)
(-0.215282 0.018075 0)
(-0.215974 0.00625064 0)
(-0.216567 -0.00558269 0)
(-0.217049 -0.0174107 0)
(-0.217415 -0.0292167 0)
(-0.21766 -0.0409829 0)
(-0.217785 -0.0526911 0)
(-0.217796 -0.0643242 0)
(-0.217703 -0.0758673 0)
(-0.217522 -0.0873092 0)
(-0.217275 -0.0986443 0)
(-0.216992 -0.109874 0)
(-0.216709 -0.121009 0)
(-0.21647 -0.132072 0)
(-0.216324 -0.143099 0)
(-0.21633 -0.154139 0)
(-0.216551 -0.16526 0)
(-0.217049 -0.176544 0)
(-0.217888 -0.18809 0)
(-0.21912 -0.200006 0)
(-0.220781 -0.2124 0)
(-0.222881 -0.225375 0)
(-0.225386 -0.239003 0)
(-0.228211 -0.253307 0)
(-0.2312 -0.268233 0)
(-0.234115 -0.283614 0)
(-0.236632 -0.299143 0)
(-0.238333 -0.314337 0)
(-0.238725 -0.328522 0)
(-0.237257 -0.340827 0)
(-0.233365 -0.350208 0)
(-0.22653 -0.355509 0)
(-0.216356 -0.35556 0)
(-0.202645 -0.349323 0)
(-0.185482 -0.336063 0)
(-0.165287 -0.315531 0)
(-0.142824 -0.28811 0)
(-0.119154 -0.254875 0)
(-0.0955059 -0.217528 0)
(-0.0731151 -0.178195 0)
(-0.0530386 -0.139136 0)
(-0.0360248 -0.102444 0)
(-0.0224578 -0.0698401 0)
(-0.0123764 -0.0425855 0)
(-0.0055367 -0.0215201 0)
(-0.00154952 -0.00717132 0)
(-0.000109007 9.42292e-05 0)
(-0.202658 0.0661372 0)
(-0.203752 0.0543954 0)
(-0.204802 0.042602 0)
(-0.205788 0.0307582 0)
(-0.206693 0.0188691 0)
(-0.207497 0.00694433 0)
(-0.208188 -0.0050022 0)
(-0.208753 -0.0169531 0)
(-0.209184 -0.0288882 0)
(-0.209475 -0.0407858 0)
(-0.209626 -0.0526235 0)
(-0.20964 -0.0643795 0)
(-0.209524 -0.0760337 0)
(-0.209291 -0.0875691 0)
(-0.20896 -0.0989738 0)
(-0.208556 -0.110242 0)
(-0.208112 -0.121378 0)
(-0.207667 -0.132395 0)
(-0.20727 -0.143321 0)
(-0.206979 -0.1542 0)
(-0.206855 -0.165093 0)
(-0.206971 -0.176082 0)
(-0.207398 -0.187266 0)
(-0.208205 -0.198763 0)
(-0.209453 -0.210701 0)
(-0.211181 -0.223212 0)
(-0.213398 -0.236412 0)
(-0.216065 -0.250383 0)
(-0.219079 -0.265143 0)
(-0.222261 -0.280614 0)
(-0.225337 -0.296582 0)
(-0.227936 -0.312657 0)
(-0.229588 -0.328245 0)
(-0.229743 -0.342527 0)
(-0.227801 -0.354464 0)
(-0.223169 -0.362837 0)
(-0.215328 -0.366336 0)
(-0.203923 -0.363694 0)
(-0.188854 -0.353868 0)
(-0.170357 -0.336254 0)
(-0.149044 -0.310883 0)
(-0.125886 -0.278554 0)
(-0.102119 -0.240837 0)
(-0.079073 -0.199912 0)
(-0.0579771 -0.158263 0)
(-0.0397775 -0.118329 0)
(-0.0250405 -0.0822017 0)
(-0.0139398 -0.0514735 0)
(-0.00630997 -0.0272321 0)
(-0.00179898 -0.0101615 0)
(-0.000137717 -0.000710919 0)
(-0.193597 0.0673193 0)
(-0.194838 0.0555403 0)
(-0.196026 0.0436889 0)
(-0.197141 0.0317668 0)
(-0.198163 0.0197809 0)
(-0.199075 0.00774302 0)
(-0.199863 -0.00433011 0)
(-0.200512 -0.0164181 0)
(-0.201015 -0.0284978 0)
(-0.201366 -0.0405438 0)
(-0.201561 -0.05253 0)
(-0.201601 -0.0644303 0)
(-0.201493 -0.0762201 0)
(-0.201244 -0.0878771 0)
(-0.200871 -0.0993834 0)
(-0.200394 -0.110727 0)
(-0.19984 -0.121903 0)
(-0.199246 -0.132919 0)
(-0.198654 -0.143792 0)
(-0.198118 -0.154559 0)
(-0.197702 -0.165272 0)
(-0.197474 -0.176007 0)
(-0.197514 -0.186861 0)
(-0.1979 -0.197955 0)
(-0.198711 -0.209427 0)
(-0.200012 -0.221431 0)
(-0.201844 -0.234118 0)
(-0.204212 -0.247621 0)
(-0.207066 -0.262027 0)
(-0.210283 -0.277341 0)
(-0.213648 -0.293446 0)
(-0.216845 -0.310057 0)
(-0.219447 -0.32668 0)
(-0.220926 -0.342575 0)
(-0.220673 -0.356744 0)
(-0.218044 -0.367953 0)
(-0.212428 -0.374793 0)
(-0.203329 -0.375805 0)
(-0.190474 -0.369663 0)
(-0.173902 -0.355398 0)
(-0.154047 -0.332651 0)
(-0.131749 -0.301869 0)
(-0.108194 -0.264393 0)
(-0.0847692 -0.222363 0)
(-0.0628463 -0.178432 0)
(-0.0435686 -0.135364 0)
(-0.0277006 -0.0956539 0)
(-0.015576 -0.0612739 0)
(-0.0071307 -0.0336119 0)
(-0.00206787 -0.0135503 0)
(-0.000169771 -0.00164607 0)
(-0.18454 0.0686443 0)
(-0.18591 0.0568203 0)
(-0.187219 0.0449023 0)
(-0.188448 0.032893 0)
(-0.189576 0.0208011 0)
(-0.190586 0.00864091 0)
(-0.191463 -0.00356826 0)
(-0.192196 -0.0158032 0)
(-0.192775 -0.0280377 0)
(-0.193193 -0.0402435 0)
(-0.193446 -0.0523911 0)
(-0.193534 -0.0644509 0)
(-0.19346 -0.0763942 0)
(-0.193229 -0.0881943 0)
(-0.192854 -0.0998281 0)
(-0.192351 -0.111277 0)
(-0.191741 -0.12253 0)
(-0.191055 -0.133586 0)
(-0.19033 -0.144453 0)
(-0.189615 -0.155157 0)
(-0.188968 -0.165743 0)
(-0.188456 -0.176275 0)
(-0.188158 -0.186845 0)
(-0.18816 -0.197571 0)
(-0.188548 -0.208595 0)
(-0.189408 -0.220083 0)
(-0.190808 -0.232213 0)
(-0.192789 -0.245159 0)
(-0.195349 -0.259068 0)
(-0.198419 -0.274023 0)
(-0.201847 -0.290003 0)
(-0.205378 -0.306833 0)
(-0.208639 -0.324132 0)
(-0.211142 -0.341263 0)
(-0.212293 -0.357304 0)
(-0.211426 -0.371043 0)
(-0.207863 -0.381024 0)
(-0.200995 -0.385641 0)
(-0.190388 -0.383315 0)
(-0.175892 -0.372729 0)
(-0.157742 -0.353106 0)
(-0.136613 -0.324484 0)
(-0.113597 -0.287883 0)
(-0.0900837 -0.245301 0)
(-0.0675551 -0.199475 0)
(-0.0473379 -0.153463 0)
(-0.0304039 -0.11017 0)
(-0.0172684 -0.0719951 0)
(-0.00799262 -0.0406823 0)
(-0.00235488 -0.0173594 0)
(-0.000205189 -0.0027211 0)
(-0.175399 0.0700919 0)
(-0.176876 0.058216 0)
(-0.178286 0.0462243 0)
(-0.179609 0.0341209 0)
(-0.180826 0.0219167 0)
(-0.181922 0.0096284 0)
(-0.182881 -0.00272216 0)
(-0.183692 -0.0151091 0)
(-0.184346 -0.0275038 0)
(-0.184837 -0.0398752 0)
(-0.185159 -0.0521912 0)
(-0.185311 -0.0644192 0)
(-0.185294 -0.0765275 0)
(-0.185111 -0.0884855 0)
(-0.184771 -0.100266 0)
(-0.184284 -0.111844 0)
(-0.183668 -0.123203 0)
(-0.182947 -0.134334 0)
(-0.182153 -0.145237 0)
(-0.181326 -0.155927 0)
(-0.180518 -0.166437 0)
(-0.179793 -0.176822 0)
(-0.179224 -0.187164 0)
(-0.178898 -0.197571 0)
(-0.178908 -0.208185 0)
(-0.179349 -0.219177 0)
(-0.18031 -0.230741 0)
(-0.181863 -0.243082 0)
(-0.184046 -0.256396 0)
(-0.18684 -0.270838 0)
(-0.190154 -0.286476 0)
(-0.193795 -0.303246 0)
(-0.197456 -0.320887 0)
(-0.200701 -0.338884 0)
(-0.20297 -0.356417 0)
(-0.2036 -0.372338 0)
(-0.201875 -0.385186 0)
(-0.197099 -0.393259 0)
(-0.188702 -0.394771 0)
(-0.176354 -0.388081 0)
(-0.160088 -0.371996 0)
(-0.140389 -0.346097 0)
(-0.118213 -0.311002 0)
(-0.0949054 -0.268461 0)
(-0.0720126 -0.221202 0)
(-0.0510215 -0.172511 0)
(-0.0331118 -0.1257 0)
(-0.0189973 -0.0836308 0)
(-0.00888788 -0.0484577 0)
(-0.00265812 -0.0216066 0)
(-0.000243914 -0.00394513 0)
(-0.166095 0.071638 0)
(-0.167654 0.0597042 0)
(-0.169142 0.0476336 0)
(-0.17054 0.0354319 0)
(-0.17183 0.0231122 0)
(-0.172996 0.0106937 0)
(-0.174026 -0.00179961 0)
(-0.174909 -0.0143393 0)
(-0.175637 -0.0268947 0)
(-0.176202 -0.0394325 0)
(-0.176601 -0.0519184 0)
(-0.17683 -0.0643178 0)
(-0.176888 -0.0765961 0)
(-0.176778 -0.08872 0)
(-0.176503 -0.100658 0)
(-0.176071 -0.112383 0)
(-0.175495 -0.123871 0)
(-0.174791 -0.135105 0)
(-0.173987 -0.146078 0)
(-0.173114 -0.156797 0)
(-0.172218 -0.167281 0)
(-0.171353 -0.177575 0)
(-0.170589 -0.187746 0)
(-0.170008 -0.197894 0)
(-0.169702 -0.208151 0)
(-0.169773 -0.218688 0)
(-0.170323 -0.229705 0)
(-0.171447 -0.241429 0)
(-0.173214 -0.254094 0)
(-0.175652 -0.267914 0)
(-0.178722 -0.283042 0)
(-0.182299 -0.299517 0)
(-0.18614 -0.317203 0)
(-0.189872 -0.335716 0)
(-0.192985 -0.354363 0)
(-0.194842 -0.37209 0)
(-0.194714 -0.387478 0)
(-0.191848 -0.398779 0)
(-0.185561 -0.40405 0)
(-0.175363 -0.401365 0)
(-0.161091 -0.389128 0)
(-0.143028 -0.366443 0)
(-0.121958 -0.333457 0)
(-0.0991382 -0.291575 0)
(-0.0761323 -0.243399 0)
(-0.0545547 -0.192369 0)
(-0.0357829 -0.142173 0)
(-0.0207405 -0.0961591 0)
(-0.0098071 -0.0569434 0)
(-0.00297515 -0.0263056 0)
(-0.000285805 -0.00532622 0)
(-0.156565 0.0732564 0)
(-0.158181 0.0612607 0)
(-0.159724 0.0491083 0)
(-0.161175 0.0368069 0)
(-0.162519 0.0243716 0)
(-0.163742 0.0118242 0)
(-0.164832 -0.00080928 0)
(-0.16578 -0.013499 0)
(-0.166577 -0.0262114 0)
(-0.167218 -0.0389119 0)
(-0.167698 -0.0515646 0)
(-0.168013 -0.0641329 0)
(-0.168161 -0.0765807 0)
(-0.168143 -0.0888725 0)
(-0.167959 -0.100974 0)
(-0.167614 -0.112855 0)
(-0.167116 -0.124485 0)
(-0.166477 -0.135845 0)
(-0.165716 -0.146917 0)
(-0.164859 -0.1577 0)
(-0.163942 -0.168202 0)
(-0.163012 -0.178456 0)
(-0.162131 -0.188515 0)
(-0.161373 -0.198465 0)
(-0.160827 -0.208427 0)
(-0.160595 -0.218563 0)
(-0.160787 -0.229074 0)
(-0.161511 -0.240199 0)
(-0.162862 -0.252197 0)
(-0.164905 -0.265331 0)
(-0.167652 -0.279827 0)
(-0.171035 -0.295821 0)
(-0.174879 -0.313297 0)
(-0.178881 -0.33201 0)
(-0.182591 -0.351408 0)
(-0.185413 -0.370561 0)
(-0.186632 -0.388128 0)
(-0.185463 -0.402367 0)
(-0.181139 -0.41123 0)
(-0.173034 -0.412556 0)
(-0.160802 -0.404375 0)
(-0.144518 -0.385309 0)
(-0.124778 -0.354989 0)
(-0.102706 -0.314377 0)
(-0.0798371 -0.265843 0)
(-0.0578746 -0.212879 0)
(-0.0383747 -0.159499 0)
(-0.0224741 -0.109542 0)
(-0.0107396 -0.0661343 0)
(-0.00330303 -0.0314645 0)
(-0.000330636 -0.00687113 0)
(-0.14676 0.074921 0)
(-0.148408 0.0628614 0)
(-0.149984 0.0506268 0)
(-0.151469 0.0382267 0)
(-0.152851 0.0256787 0)
(-0.154116 0.0130065 0)
(-0.155255 0.000238273 0)
(-0.156259 -0.0125944 0)
(-0.157122 -0.0254565 0)
(-0.157837 -0.0383121 0)
(-0.1584 -0.051124 0)
(-0.158807 -0.0638547 0)
(-0.159056 -0.0764667 0)
(-0.159145 -0.088923 0)
(-0.159072 -0.101188 0)
(-0.158841 -0.113227 0)
(-0.158453 -0.125009 0)
(-0.157918 -0.136507 0)
(-0.157247 -0.147699 0)
(-0.156459 -0.158574 0)
(-0.155583 -0.169132 0)
(-0.154658 -0.17939 0)
(-0.153734 -0.189391 0)
(-0.152879 -0.199204 0)
(-0.152174 -0.208936 0)
(-0.151718 -0.218735 0)
(-0.15162 -0.228797 0)
(-0.151997 -0.239361 0)
(-0.152963 -0.250706 0)
(-0.154611 -0.263129 0)
(-0.156994 -0.276914 0)
(-0.160098 -0.292286 0)
(-0.163814 -0.309345 0)
(-0.167908 -0.327983 0)
(-0.171998 -0.347796 0)
(-0.175545 -0.368003 0)
(-0.177865 -0.387375 0)
(-0.178165 -0.404219 0)
(-0.175626 -0.416439 0)
(-0.169509 -0.42169 0)
(-0.159305 -0.417672 0)
(-0.144888 -0.402537 0)
(-0.126651 -0.37537 0)
(-0.105554 -0.336619 0)
(-0.0830626 -0.288306 0)
(-0.0609234 -0.233866 0)
(-0.0408452 -0.177567 0)
(-0.0241729 -0.123727 0)
(-0.0116737 -0.0760148 0)
(-0.00363832 -0.0370863 0)
(-0.000378088 -0.00858503 0)
(-0.136646 0.076607 0)
(-0.138305 0.0644836 0)
(-0.139892 0.0521687 0)
(-0.141394 0.0396738 0)
(-0.142797 0.0270185 0)
(-0.144092 0.0142285 0)
(-0.14527 0.00133382 0)
(-0.146324 -0.0116319 0)
(-0.147246 -0.0246333 0)
(-0.148034 -0.0376332 0)
(-0.148681 -0.0505936 0)
(-0.149185 -0.0634762 0)
(-0.149541 -0.0762431 0)
(-0.149748 -0.0888562 0)
(-0.149803 -0.101279 0)
(-0.149704 -0.113474 0)
(-0.149452 -0.125409 0)
(-0.149052 -0.137052 0)
(-0.148509 -0.148378 0)
(-0.147837 -0.159365 0)
(-0.147056 -0.170007 0)
(-0.146197 -0.180309 0)
(-0.1453 -0.190298 0)
(-0.144424 -0.20003 0)
(-0.14364 -0.209595 0)
(-0.14304 -0.219125 0)
(-0.142731 -0.228803 0)
(-0.142831 -0.238864 0)
(-0.143464 -0.249591 0)
(-0.144744 -0.261307 0)
(-0.146759 -0.274344 0)
(-0.14954 -0.289 0)
(-0.153038 -0.30548 0)
(-0.157088 -0.32381 0)
(-0.161378 -0.343742 0)
(-0.165437 -0.364652 0)
(-0.168625 -0.385454 0)
(-0.170169 -0.404547 0)
(-0.169217 -0.419835 0)
(-0.164948 -0.428849 0)
(-0.156712 -0.429006 0)
(-0.144196 -0.418021 0)
(-0.127584 -0.394421 0)
(-0.107654 -0.358077 0)
(-0.0857604 -0.310568 0)
(-0.0636513 -0.255148 0)
(-0.0431548 -0.196254 0)
(-0.0258121 -0.138645 0)
(-0.0125973 -0.0865587 0)
(-0.00397722 -0.0431676 0)
(-0.000427758 -0.0104713 0)
(-0.126206 0.078292 0)
(-0.127854 0.066107 0)
(-0.129435 0.0537159 0)
(-0.130937 0.0411324 0)
(-0.132349 0.028378 0)
(-0.133663 0.01548 0)
(-0.13487 0.00246993 0)
(-0.135966 -0.0106173 0)
(-0.136944 -0.0237453 0)
(-0.137801 -0.0368763 0)
(-0.138533 -0.0499718 0)
(-0.139135 -0.0629933 0)
(-0.139604 -0.0759025 0)
(-0.139936 -0.0886612 0)
(-0.140129 -0.101232 0)
(-0.140178 -0.113577 0)
(-0.140081 -0.125661 0)
(-0.13984 -0.137451 0)
(-0.139456 -0.148915 0)
(-0.138937 -0.160028 0)
(-0.138297 -0.170774 0)
(-0.137556 -0.181149 0)
(-0.136748 -0.191168 0)
(-0.135919 -0.200869 0)
(-0.135133 -0.210325 0)
(-0.134471 -0.219651 0)
(-0.134031 -0.229014 0)
(-0.133931 -0.238637 0)
(-0.134299 -0.248801 0)
(-0.135261 -0.259842 0)
(-0.13693 -0.272125 0)
(-0.139378 -0.28601 0)
(-0.142606 -0.301796 0)
(-0.146514 -0.319632 0)
(-0.150863 -0.339425 0)
(-0.155252 -0.360719 0)
(-0.159101 -0.382591 0)
(-0.161669 -0.403567 0)
(-0.1621 -0.4216 0)
(-0.159517 -0.434151 0)
(-0.153151 -0.438416 0)
(-0.142523 -0.431707 0)
(-0.127613 -0.412002 0)
(-0.109001 -0.37856 0)
(-0.0878995 -0.33242 0)
(-0.0660185 -0.276543 0)
(-0.0452685 -0.215425 0)
(-0.0273676 -0.154216 0)
(-0.0134977 -0.0977295 0)
(-0.00431568 -0.049699 0)
(-0.000479163 -0.0125312 0)
(-0.115434 0.0799556 0)
(-0.117054 0.0677131 0)
(-0.118613 0.0552523 0)
(-0.120101 0.0425887 0)
(-0.12151 0.0297453 0)
(-0.122833 0.016751 0)
(-0.124062 0.0036386 0)
(-0.125194 -0.00955622 0)
(-0.126224 -0.0227962 0)
(-0.127148 -0.0360431 0)
(-0.127962 -0.0492584 0)
(-0.128664 -0.0624035 0)
(-0.129248 -0.0754402 0)
(-0.129711 -0.0883304 0)
(-0.130048 -0.101036 0)
(-0.130255 -0.11352 0)
(-0.130328 -0.125746 0)
(-0.130265 -0.137677 0)
(-0.130063 -0.14928 0)
(-0.129726 -0.160526 0)
(-0.129262 -0.17139 0)
(-0.128683 -0.18186 0)
(-0.128016 -0.191938 0)
(-0.127296 -0.201649 0)
(-0.126576 -0.211049 0)
(-0.125926 -0.220233 0)
(-0.125436 -0.229349 0)
(-0.125217 -0.238604 0)
(-0.125394 -0.248271 0)
(-0.126103 -0.258685 0)
(-0.127471 -0.270236 0)
(-0.129601 -0.283331 0)
(-0.132541 -0.298346 0)
(-0.136246 -0.315547 0)
(-0.140549 -0.334988 0)
(-0.14512 -0.356384 0)
(-0.149448 -0.378991 0)
(-0.152839 -0.401487 0)
(-0.154453 -0.421922 0)
(-0.15338 -0.437742 0)
(-0.148762 -0.445974 0)
(-0.139971 -0.443583 0)
(-0.126795 -0.428021 0)
(-0.109611 -0.39791 0)
(-0.0894668 -0.353675 0)
(-0.0679968 -0.297872 0)
(-0.047157 -0.234939 0)
(-0.0288176 -0.170351 0)
(-0.0143631 -0.109481 0)
(-0.00464951 -0.0566649 0)
(-0.000531757 -0.0147641 0)
(-0.104337 0.0815795 0)
(-0.105912 0.0692863 0)
(-0.107436 0.0567644 0)
(-0.108899 0.0440311 0)
(-0.110295 0.0311108 0)
(-0.111618 0.0180336 0)
(-0.112863 0.00483334 0)
(-0.114026 -0.00845359 0)
(-0.115103 -0.0217894 0)
(-0.116092 -0.0351357 0)
(-0.116988 -0.048454 0)
(-0.117788 -0.0617059 0)
(-0.118488 -0.0748536 0)
(-0.119084 -0.0878593 0)
(-0.119571 -0.100686 0)
(-0.119943 -0.113295 0)
(-0.120195 -0.12565 0)
(-0.120322 -0.137715 0)
(-0.12032 -0.149452 0)
(-0.120188 -0.160829 0)
(-0.119927 -0.171818 0)
(-0.119546 -0.182396 0)
(-0.119062 -0.192557 0)
(-0.118502 -0.202312 0)
(-0.117908 -0.211699 0)
(-0.117338 -0.220796 0)
(-0.116874 -0.229729 0)
(-0.116614 -0.238687 0)
(-0.116679 -0.247925 0)
(-0.117206 -0.257775 0)
(-0.118332 -0.268636 0)
(-0.120183 -0.280949 0)
(-0.122841 -0.295155 0)
(-0.126316 -0.311622 0)
(-0.130501 -0.33054 0)
(-0.13514 -0.351796 0)
(-0.139794 -0.374832 0)
(-0.143828 -0.398504 0)
(-0.146436 -0.420991 0)
(-0.146695 -0.439777 0)
(-0.143684 -0.451783 0)
(-0.13665 -0.453679 0)
(-0.125203 -0.442426 0)
(-0.10952 -0.416004 0)
(-0.0904662 -0.374169 0)
(-0.0695706 -0.318965 0)
(-0.0487982 -0.254657 0)
(-0.0301432 -0.186952 0)
(-0.0151821 -0.121761 0)
(-0.00497458 -0.0640442 0)
(-0.000584948 -0.0171672 0)
(-0.0929287 0.0831487 0)
(-0.0944469 0.0708131 0)
(-0.0959237 0.0582406 0)
(-0.0973523 0.0454498 0)
(-0.0987273 0.0324662 0)
(-0.100044 0.019321 0)
(-0.101299 0.00604872 0)
(-0.102488 -0.00731369 0)
(-0.10361 -0.0207282 0)
(-0.10466 -0.0341563 0)
(-0.105636 -0.0475597 0)
(-0.106534 -0.0609006 0)
(-0.107351 -0.0741414 0)
(-0.108081 -0.0872453 0)
(-0.10872 -0.100175 0)
(-0.109261 -0.112894 0)
(-0.109698 -0.125366 0)
(-0.110024 -0.137551 0)
(-0.110233 -0.149414 0)
(-0.11032 -0.160918 0)
(-0.110284 -0.172031 0)
(-0.110128 -0.182725 0)
(-0.109861 -0.192983 0)
(-0.109502 -0.202806 0)
(-0.109084 -0.212216 0)
(-0.108655 -0.221272 0)
(-0.108282 -0.23008 0)
(-0.108056 -0.238806 0)
(-0.108087 -0.247687 0)
(-0.108507 -0.257042 0)
(-0.10946 -0.267269 0)
(-0.111084 -0.278831 0)
(-0.11349 -0.29222 0)
(-0.11673 -0.30789 0)
(-0.120756 -0.326157 0)
(-0.125381 -0.347073 0)
(-0.130239 -0.370268 0)
(-0.134762 -0.394792 0)
(-0.138188 -0.418987 0)
(-0.139606 -0.440421 0)
(-0.138054 -0.455964 0)
(-0.132676 -0.46205 0)
(-0.122924 -0.455198 0)
(-0.108779 -0.432755 0)
(-0.090917 -0.393766 0)
(-0.0707362 -0.339671 0)
(-0.0501775 -0.274441 0)
(-0.0313295 -0.203918 0)
(-0.0159448 -0.134508 0)
(-0.0052869 -0.0718105 0)
(-0.000638105 -0.0197355 0)
(-0.0812313 0.0846503 0)
(-0.0826815 0.0722825 0)
(-0.0841022 0.0596713 0)
(-0.0854883 0.0468366 0)
(-0.0868355 0.0338048 0)
(-0.0881406 0.0206075 0)
(-0.0894006 0.00728004 0)
(-0.0906129 -0.00614037 0)
(-0.091775 -0.0196156 0)
(-0.0928844 -0.0331072 0)
(-0.0939382 -0.0465773 0)
(-0.0949333 -0.0599884 0)
(-0.0958656 -0.073304 0)
(-0.0967304 -0.0864877 0)
(-0.097522 -0.0995035 0)
(-0.0982338 -0.112315 0)
(-0.0988586 -0.124886 0)
(-0.0993885 -0.137178 0)
(-0.0998158 -0.149155 0)
(-0.100134 -0.160777 0)
(-0.100338 -0.172009 0)
(-0.100425 -0.182819 0)
(-0.100401 -0.193183 0)
(-0.100278 -0.20309 0)
(-0.100077 -0.212549 0)
(-0.099838 -0.221602 0)
(-0.0996161 -0.230334 0)
(-0.0994894 -0.238889 0)
(-0.0995589 -0.247481 0)
(-0.0999486 -0.256411 0)
(-0.1008 -0.266069 0)
(-0.102258 -0.276929 0)
(-0.104456 -0.289518 0)
(-0.10748 -0.304361 0)
(-0.111332 -0.321887 0)
(-0.115889 -0.342301 0)
(-0.120857 -0.365423 0)
(-0.125739 -0.390507 0)
(-0.12983 -0.41608 0)
(-0.132245 -0.439836 0)
(-0.132001 -0.458647 0)
(-0.128164 -0.468777 0)
(-0.120048 -0.466349 0)
(-0.10745 -0.448105 0)
(-0.0908514 -0.412355 0)
(-0.0715018 -0.359851 0)
(-0.0512887 -0.294159 0)
(-0.0323656 -0.221147 0)
(-0.0166426 -0.147658 0)
(-0.00558268 -0.079933 0)
(-0.000690528 -0.0224621 0)
(-0.069272 0.086074 0)
(-0.0706456 0.0736855 0)
(-0.0720028 0.061049 0)
(-0.0733398 0.0481852 0)
(-0.0746539 0.035121 0)
(-0.0759426 0.0218886 0)
(-0.0772037 0.00852361 0)
(-0.0784353 -0.00493663 0)
(-0.0796353 -0.018454 0)
(-0.0808015 -0.0319903 0)
(-0.0819312 -0.045508 0)
(-0.0830213 -0.0589704 0)
(-0.0840678 -0.0723416 0)
(-0.0850659 -0.0855863 0)
(-0.0860097 -0.0986693 0)
(-0.0868924 -0.111555 0)
(-0.0877063 -0.124208 0)
(-0.0884427 -0.136592 0)
(-0.0890927 -0.148667 0)
(-0.0896479 -0.160395 0)
(-0.090101 -0.171738 0)
(-0.0904467 -0.18266 0)
(-0.0906847 -0.193131 0)
(-0.0908209 -0.20313 0)
(-0.0908707 -0.212657 0)
(-0.0908626 -0.221736 0)
(-0.0908417 -0.230433 0)
(-0.0908737 -0.238868 0)
(-0.0910478 -0.247235 0)
(-0.0914777 -0.255809 0)
(-0.092299 -0.264968 0)
(-0.0936598 -0.275184 0)
(-0.0957043 -0.287008 0)
(-0.0985458 -0.301021 0)
(-0.10223 -0.317749 0)
(-0.10669 -0.33754 0)
(-0.1117 -0.360395 0)
(-0.116838 -0.385777 0)
(-0.121461 -0.412419 0)
(-0.124723 -0.438173 0)
(-0.125641 -0.459968 0)
(-0.123224 -0.473952 0)
(-0.116669 -0.475916 0)
(-0.105602 -0.462027 0)
(-0.090312 -0.42985 0)
(-0.0718864 -0.379389 0)
(-0.0521341 -0.31369 0)
(-0.0332461 -0.238538 0)
(-0.0172694 -0.161143 0)
(-0.00585866 -0.0883766 0)
(-0.000741494 -0.025338 0)
(-0.0570823 0.0874117 0)
(-0.0583721 0.0750153 0)
(-0.0596594 0.0623677 0)
(-0.0609418 0.0494903 0)
(-0.0622177 0.0364104 0)
(-0.0634856 0.0231604 0)
(-0.0647441 0.00977598 0)
(-0.0659917 -0.00370551 0)
(-0.0672266 -0.0172461 0)
(-0.0684469 -0.030808 0)
(-0.0696501 -0.0443542 0)