/*--------------------------------*- C++ -*----------------------------------*\
  =========                 |
  \\      /  F ield         | OpenFOAM: The Open Source CFD Toolbox
   \\    /   O peration     | Website:  https://openfoam.org
    \\  /    A nd           | Version:  9
     \\/     M anipulation  |
\*---------------------------------------------------------------------------*/
FoamFile
{
    format      ascii;
    class       volScalarField;
    location    "2.25";
    object      p;
}
// * * * * * * * * * * * * * * * * * * * * * * * * * * * * * * * * * * * * * //

dimensions      [0 2 -2 0 0 0 0];

internalField   nonuniform List<scalar> 
1250
(
-0.00331991
-0.00352994
-0.00373825
-0.00394246
-0.00413991
-0.00432774
-0.00450281
-0.00466183
-0.0048014
-0.00491804
-0.0050083
-0.00506886
-0.00509659
-0.00508871
-0.00504286
-0.00495726
-0.00483078
-0.00466307
-0.00445465
-0.00420701
-0.00392264
-0.00360511
-0.00325894
-0.00288942
-0.00250365
-0.00210883
-0.00171302
-0.00132486
-0.00095328
-0.000607256
-0.000295556
-2.6434e-05
0.000192632
-0.00318172
-0.00338331
-0.00358368
-0.00378064
-0.00397172
-0.00415424
-0.00432528
-0.00448175
-0.0046204
-0.00473794
-0.00483107
-0.00489659
-0.00493148
-0.00493301
-0.00489886
-0.00482722
-0.0047169
-0.00456747
-0.00437929
-0.00415366
-0.00389285
-0.00360023
-0.00327995
-0.00293717
-0.00257812
-0.0022099
-0.00184021
-0.00147726
-0.00112957
-0.000805728
-0.000514107
-0.000262603
-5.83591e-05
-0.00307127
-0.00326877
-0.00346583
-0.00366039
-0.00385012
-0.00403245
-0.00420457
-0.00436346
-0.00450596
-0.00462881
-0.00472871
-0.00480246
-0.00484697
-0.00485946
-0.00483748
-0.00477911
-0.00468301
-0.00454857
-0.00437596
-0.00416626
-0.00392163
-0.0036453
-0.00334043
-0.00301316
-0.00266907
-0.00231503
-0.00195861
-0.00160788
-0.00127126
-0.000957235
-0.000674131
-0.000429768
-0.000231242
-0.00297475
-0.00317176
-0.00336948
-0.00356592
-0.00375886
-0.00394578
-0.0041239
-0.00429021
-0.00444151
-0.00457447
-0.00468569
-0.00477182
-0.00482963
-0.00485614
-0.0048487
-0.00480517
-0.004724
-0.00460434
-0.00444616
-0.00425035
-0.00401908
-0.00375599
-0.00346126
-0.00314374
-0.00280842
-0.00246188
-0.00211165
-0.00176584
-0.00143289
-0.00112138
-0.00083973
-0.000595853
-0.000396971
-0.00289387
-0.00309453
-0.00329745
-0.00350069
-0.00370207
-0.00389905
-0.00408882
-0.00426826
-0.00443403
-0.00458264
-0.00471049
-0.00481397
-0.0048896
-0.00493412
-0.00494462
-0.00491868
-0.00485448
-0.00475091
-0.00460777
-0.0044258
-0.00420637
-0.00395115
-0.00366792
-0.00335818
-0.00302838
-0.00268552
-0.00233723
-0.00199168
-0.00165746
-0.0013433
-0.0010578
-0.000809082
-0.00060458
-0.0028409
-0.00305073
-0.00326476
-0.00348108
-0.00369743
-0.00391121
-0.00411943
-0.00431878
-0.00450568
-0.00467634
-0.00482684
-0.00495326
-0.00505177
-0.00511879
-0.00515107
-0.00514589
-0.00510113
-0.00501547
-0.00488847
-0.00472067
-0.00451348
-0.00426908
-0.00399228
-0.00368738
-0.00336028
-0.00301781
-0.00266761
-0.002318
-0.00197769
-0.00165565
-0.00136071
-0.00110122
-0.000884965
-0.00282942
-0.00305527
-0.00328768
-0.00352465
-0.00376377
-0.00400223
-0.00423676
-0.00446375
-0.00467924
-0.00487908
-0.00505894
-0.0052145
-0.00534154
-0.00543609
-0.00549457
-0.00551392
-0.00549177
-0.00542651
-0.00531748
-0.00516501
-0.00497044
-0.00473609
-0.00446596
-0.00416476
-0.00383834
-0.00349353
-0.00313804
-0.00278026
-0.0024291
-0.00209371
-0.00178317
-0.00150615
-0.00127093
-0.00287423
-0.0031243
-0.00338362
-0.00365
-0.00392077
-0.00419277
-0.00446238
-0.00472553
-0.00497784
-0.00521466
-0.00543123
-0.00562277
-0.00578464
-0.00591248
-0.00600234
-0.00605085
-0.00605533
-0.00601395
-0.00592577
-0.00579093
-0.00561059
-0.00538706
-0.00512405
-0.00482617
-0.00449923
-0.00415004
-0.00378632
-0.00341655
-0.00304971
-0.00269514
-0.00236221
-0.00206014
-0.00179774
-0.00299171
-0.00327544
-0.00357136
-0.00387697
-0.00418922
-0.00450451
-0.00481872
-0.00512729
-0.00542529
-0.00570757
-0.00596886
-0.00620392
-0.00640767
-0.00657536
-0.00670266
-0.00678589
-0.00682207
-0.00680908
-0.00674574
-0.00663191
-0.00646854
-0.00625783
-0.00600319
-0.00570908
-0.00538116
-0.00502615
-0.00465173
-0.00426632
-0.00387888
-0.00349906
-0.00313677
-0.00319935
-0.00352726
-0.00387046
-0.00422601
-0.00459039
-0.00495943
-0.00532845
-0.00569231
-0.00604551
-0.00638236
-0.00669707
-0.00698392
-0.00723739
-0.00745233
-0.00762405
-0.00774851
-0.00782243
-0.00784337
-0.00780986
-0.00772146
-0.00757881
-0.00738393
-0.00713985
-0.00685081
-0.00652222
-0.00616064
-0.00577357
-0.00536915
-0.00495658
-0.00351514
-0.00389867
-0.00430064
-0.00471756
-0.00514533
-0.00557916
-0.00601374
-0.0064433
-0.00686176
-0.00726286
-0.00764029
-0.00798784
-0.00829956
-0.00856989
-0.00879375
-0.00896676
-0.00908526
-0.00914649
-0.00914864
-0.00909092
-0.00897361
-0.00879838
-0.00856791
-0.00828606
-0.00795795
-0.00758982
-0.00718889
-0.00676303
-0.0063215
-0.00395708
-0.00440834
-0.00488114
-0.00537137
-0.00587423
-0.00638429
-0.00689554
-0.00740158
-0.00789571
-0.00837111
-0.00882093
-0.00923849
-0.00961739
-0.00995164
-0.0102358
-0.010465
-0.0106354
-0.0107437
-0.0107878
-0.0107665
-0.0106797
-0.0105286
-0.0103154
-0.0100437
-0.00971805
-0.00934434
-0.00892936
-0.00848067
-0.00800743
-0.00454255
-0.00507408
-0.00563009
-0.00620579
-0.00679565
-0.0073935
-0.00799263
-0.00858598
-0.00916622
-0.00972595
-0.0102578
-0.0107546
-0.0112095
-0.0116161
-0.0119685
-0.0122615
-0.0124909
-0.012653
-0.0127453
-0.0127662
-0.0127152
-0.0125929
-0.0124013
-0.0121432
-0.0118228
-0.0114455
-0.0110176
-0.010546
-0.0100399
-0.00528769
-0.00591213
-0.00656377
-0.00723704
-0.00792562
-0.00862256
-0.00932046
-0.0100115
-0.0106878
-0.0113414
-0.0119643
-0.0125488
-0.0130877
-0.0135742
-0.014002
-0.0143656
-0.0146602
-0.0148821
-0.0150282
-0.0150967
-0.0150864
-0.0149977
-0.0148319
-0.0145914
-0.0142799
-0.013902
-0.0134635
-0.0129708
-0.0124324
-0.00620676
-0.0069365
-0.00769578
-0.0084782
-0.00927659
-0.0100832
-0.0108898
-0.0116881
-0.0124692
-0.0132248
-0.0139463
-0.0146256
-0.0152551
-0.0158274
-0.0163362
-0.0167755
-0.0171403
-0.0174266
-0.017631
-0.0177513
-0.017786
-0.0177348
-0.017599
-0.0173803
-0.0170817
-0.0167072
-0.0162617
-0.0157513
-0.0151836
-0.00731135
-0.00815809
-0.00903618
-0.0099383
-0.0108564
-0.0117819
-0.0127057
-0.0136188
-0.0145117
-0.0153755
-0.0162011
-0.0169801
-0.0177043
-0.0183663
-0.0189593
-0.0194774
-0.0199152
-0.0202685
-0.0205338
-0.0207088
-0.0207915
-0.0207807
-0.0206786
-0.0204857
-0.0202043
-0.0198377
-0.0193902
-0.018867
-0.018275
-0.00860973
-0.00958396
-0.0105906
-0.0116214
-0.0126673
-0.0137187
-0.014766
-0.0157992
-0.0168084
-0.0177839
-0.0187164
-0.019597
-0.0204174
-0.02117
-0.0218479
-0.022445
-0.0229561
-0.0233768
-0.0237037
-0.0239342
-0.024066
-0.0240972
-0.0240323
-0.0238685
-0.0236082
-0.0232543
-0.0228103
-0.0222805
-0.0216709
-0.0101061
-0.0112166
-0.0123596
-0.0135257
-0.014705
-0.015887
-0.0170612
-0.0182168
-0.0193435
-0.0204311
-0.02147
-0.0224511
-0.0233659
-0.024207
-0.0249675
-0.0256413
-0.0262234
-0.0267095
-0.0270961
-0.0273807
-0.027562
-0.0276399
-0.02761
-0.0274767
-0.0272407
-0.0269039
-0.0264691
-0.0259397
-0.0253206
-0.0118002
-0.0130534
-0.0143379
-0.0156435
-0.0169588
-0.0182728
-0.0195739
-0.020851
-0.0220931
-0.0232898
-0.0244312
-0.0255084
-0.0265129
-0.0274373
-0.0282751
-0.0290205
-0.0296687
-0.0302158
-0.0306585
-0.0309943
-0.0312221
-0.0313412
-0.0313498
-0.0312491
-0.03104
-0.0307243
-0.0303041
-0.0297819
-0.0291617
-0.0136867
-0.0150863
-0.0165148
-0.0179605
-0.0194114
-0.0208553
-0.0222801
-0.0236742
-0.0250262
-0.0263256
-0.0275627
-0.0287284
-0.0298148
-0.0308148
-0.0317222
-0.0325318
-0.0332393
-0.0338409
-0.0343341
-0.0347165
-0.0349871
-0.0351451
-0.0351897
-0.0351213
-0.0349406
-0.0346489
-0.0342477
-0.033739
-0.0331256
-0.0142462
-0.0157555
-0.0173022
-0.0188736
-0.020457
-0.0220394
-0.0236079
-0.0251498
-0.0266532
-0.0281065
-0.0294995
-0.0308224
-0.0320668
-0.0332251
-0.0342908
-0.0352583
-0.0361229
-0.036881
-0.0375295
-0.0380661
-0.038489
-0.0387975
-0.0389908
-0.0390684
-0.0390308
-0.0388784
-0.0386122
-0.0382333
-0.0377432
-0.0371437
-0.0163332
-0.0179916
-0.0196828
-0.021393
-0.0231084
-0.0248151
-0.0264996
-0.0281491
-0.0297512
-0.0312948
-0.0327697
-0.0341668
-0.0354782
-0.0366968
-0.037817
-0.0388339
-0.0397436
-0.040543
-0.0412297
-0.041802
-0.0422586
-0.0425991
-0.0428229
-0.04293
-0.0429208
-0.0427956
-0.0425552
-0.0422005
-0.0417324
-0.0411522
-0.0185724
-0.020376
-0.022206
-0.0240477
-0.0258863
-0.0277073
-0.0294968
-0.0312417
-0.0329301
-0.0345511
-0.036095
-0.0375534
-0.038919
-0.0401859
-0.041349
-0.0424043
-0.0433488
-0.04418
-0.0448962
-0.0454963
-0.0459797
-0.046346
-0.0465954
-0.0467278
-0.0467437
-0.0466437
-0.0464284
-0.0460983
-0.0456542
-0.0450968
-0.0209443
-0.0228862
-0.0248466
-0.0268098
-0.0287604
-0.0306833
-0.0325647
-0.0343916
-0.0361525
-0.037837
-0.0394363
-0.0409427
-0.04235
-0.0436531
-0.0448477
-0.0459309
-0.0469004
-0.0477544
-0.048492
-0.0491126
-0.0496161
-0.0500025
-0.0502722
-0.0504256
-0.0504632
-0.0503857
-0.0501936
-0.0498875
-0.0494678
-0.048935
-0.023427
-0.0254977
-0.0275776
-0.0296502
-0.0316995
-0.0337107
-0.0356697
-0.0375643
-0.0393834
-0.0411176
-0.0427588
-0.0443006
-0.0457375
-0.0470654
-0.0482813
-0.0493828
-0.0503685
-0.0512375
-0.0519892
-0.0526238
-0.0531415
-0.0535427
-0.0538281
-0.0539983
-0.0540541
-0.053996
-0.0538249
-0.0535411
-0.0531451
-0.052637
-0.0259968
-0.0281846
-0.0303713
-0.0325396
-0.0346736
-0.0367583
-0.0387805
-0.0407283
-0.0425917
-0.0443623
-0.046033
-0.0475984
-0.0490542
-0.0503972
-0.0516253
-0.0527371
-0.0537317
-0.0546089
-0.0553689
-0.056012
-0.056539
-0.0569505
-0.0572475
-0.0574309
-0.0575014
-0.0574599
-0.057307
-0.0570433
-0.0566693
-0.0561848
-0.0286292
-0.0309212
-0.0332006
-0.0354503
-0.0376542
-0.039798
-0.041869
-0.0438564
-0.0457513
-0.0475462
-0.0492353
-0.0508142
-0.0522797
-0.0536296
-0.0548627
-0.0559781
-0.0569759
-0.0578563
-0.0586198
-0.0592674
-0.0597998
-0.0602182
-0.0605236
-0.060717
-0.0607993
-0.0607715
-0.0606342
-0.060388
-0.0600335
-0.0595707
-0.0313002
-0.0336823
-0.0360402
-0.0383565
-0.040616
-0.0428048
-0.0449115
-0.0469261
-0.0488409
-0.0506496
-0.0523477
-0.0539318
-0.0553998
-0.0567502
-0.0579826
-0.059097
-0.0600937
-0.0609736
-0.0617375
-0.0623865
-0.0629217
-0.0633444
-0.0636556
-0.0638566
-0.0639483
-0.0639316
-0.0638073
-0.0635762
-0.0632387
-0.062795
-0.0339867
-0.0364447
-0.0388666
-0.0412356
-0.043537
-0.0457581
-0.0478884
-0.0499193
-0.0518443
-0.0536583
-0.0553579
-0.0569408
-0.0584056
-0.059752
-0.0609799
-0.0620899
-0.0630829
-0.0639599
-0.0647221
-0.0653707
-0.065907
-0.0663323
-0.0666477
-0.0668544
-0.0669534
-0.0669458
-0.0668323
-0.0666137
-0.0662906
-0.0658632
-0.0366675
-0.0391874
-0.0416595
-0.044068
-0.046399
-0.048641
-0.0507847
-0.0528228
-0.05475
-0.0565626
-0.058258
-0.059835
-0.061293
-0.0626322
-0.0638533
-0.0649571
-0.0659449
-0.0668179
-0.0675774
-0.0682247
-0.0687612
-0.0691881
-0.0695065
-0.0697178
-0.0698228
-0.0393234
-0.0418917
-0.0444015
-0.0468375
-0.0491873
-0.0514405
-0.0535891
-0.0556272
-0.0575506
-0.0593567
-0.061044
-0.062612
-0.0640609
-0.0653914
-0.0666045
-0.0677015
-0.0686836
-0.0695523
-0.0703089
-0.0709548
-0.0714912
-0.0719194
-0.0722404
-0.0724554
-0.0725654
-0.0419376
-0.0445421
-0.047078
-0.0495313
-0.0518906
-0.054147
-0.0562938
-0.0583264
-0.0602416
-0.0620379
-0.0637147
-0.0652721
-0.0667109
-0.0680321
-0.0692372
-0.0703274
-0.0713042
-0.0721691
-0.0729233
-0.0735681
-0.0741047
-0.0745342
-0.0748577
-0.0750762
-0.0751906
-0.0444957
-0.0471255
-0.0496777
-0.0521395
-0.0545008
-0.0567542
-0.0588941
-0.0609172
-0.0628214
-0.0646059
-0.066271
-0.0678172
-0.0692458
-0.0705582
-0.0717557
-0.07284
-0.0738124
-0.0746743
-0.075427
-0.0760714
-0.0766089
-0.0770401
-0.0773662
-0.0775881
-0.0777065
-0.0469861
-0.0496316
-0.0521916
-0.0546547
-0.0570122
-0.0592578
-0.0613873
-0.0633983
-0.0652898
-0.0670618
-0.0687149
-0.0702503
-0.0716694
-0.0729738
-0.0741651
-0.0752446
-0.0762139
-0.077074
-0.0778261
-0.0784712
-0.0790101
-0.0794438
-0.0797729
-0.0799983
-0.0801206
-0.049399
-0.0520521
-0.0546131
-0.0570719
-0.059421
-0.0616555
-0.0637723
-0.06577
-0.0676482
-0.0694076
-0.0710492
-0.0725747
-0.0739855
-0.0752834
-0.0764697
-0.077546
-0.0785134
-0.079373
-0.0801258
-0.0807725
-0.0813138
-0.0817505
-0.0820831
-0.0823122
-0.0824385
-0.0517268
-0.0543809
-0.0569375
-0.0593876
-0.0617253
-0.0639466
-0.0660494
-0.0680332
-0.0698983
-0.0716457
-0.0732771
-0.0747939
-0.0761978
-0.0774906
-0.0786736
-0.0797481
-0.0807151
-0.0815755
-0.0823301
-0.0829794
-0.083524
-0.0839643
-0.0843008
-0.084534
-0.0539637
-0.0566135
-0.0591614
-0.0615999
-0.063924
-0.0661309
-0.0682194
-0.0701895
-0.0720422
-0.0737788
-0.0754011
-0.0769108
-0.0783095
-0.0795988
-0.08078
-0.0818541
-0.0828221
-0.0836845
-0.0844419
-0.0850948
-0.0856433
-0.0860879
-0.0864287
-0.0866662
-0.0561051
-0.0587465
-0.0612827
-0.0637075
-0.0660169
-0.0682091
-0.0702835
-0.0722407
-0.074082
-0.0758092
-0.0774239
-0.078928
-0.0803231
-0.0816105
-0.0827913
-0.0838664
-0.0848365
-0.085702
-0.0864632
-0.0871203
-0.0876735
-0.0581477
-0.0607776
-0.0633002
-0.0657101
-0.0680044
-0.070182
-0.0722429
-0.0741882
-0.0760196
-0.0777387
-0.0793474
-0.0808475
-0.0822404
-0.0835272
-0.084709
-0.0857863
-0.0867596
-0.087629
-0.0883947
-0.0890567
-0.0896149
-0.060089
-0.0627054
-0.065213
-0.0676075
-0.0698869
-0.0720504
-0.0740989
-0.0760335
-0.0778562
-0.0795688
-0.081173
-0.0826705
-0.0840626
-0.0853501
-0.086534
-0.0876144
-0.0885917
-0.0894657
-0.0902365
-0.0909038
-0.0914674
-0.0619271
-0.0645287
-0.0670208
-0.0693999
-0.0716647
-0.0738152
-0.0758523
-0.0777776
-0.0795931
-0.0813005
-0.0829016
-0.0843977
-0.0857901
-0.0870794
-0.0882662
-0.0893505
-0.0903324
-0.0912116
-0.0919878
-0.0926607
-0.0932299
-0.0636608
-0.0662467
-0.0687232
-0.0710874
-0.0733385
-0.0754769
-0.0775039
-0.0794212
-0.0812307
-0.0829342
-0.0845333
-0.0860293
-0.0874229
-0.0887149
-0.0899053
-0.0909941
-0.091981
-0.0928657
-0.0936475
-0.0943261
-0.0949009
-0.0652888
-0.0678589
-0.07032
-0.07267
-0.0749083
-0.0770357
-0.0790538
-0.0809644
-0.0827692
-0.08447
-0.0860682
-0.0875648
-0.0889605
-0.0902557
-0.0914502
-0.0925438
-0.0935361
-0.0944264
-0.095214
-0.0958983
-0.0964787
-0.0668102
-0.0693648
-0.0718111
-0.0741475
-0.0763741
-0.0784918
-0.0805022
-0.0824071
-0.0842083
-0.0859073
-0.0875055
-0.0890035
-0.0904019
-0.0917007
-0.0928997
-0.0939984
-0.0949961
-0.095892
-0.0966853
-0.0973753
-0.0979611
-0.0818487
-0.083749
-0.0855475
-0.0872456
-0.0888443
-0.0903443
-0.0917458
-0.0930486
-0.0942522
-0.0953561
-0.0963592
-0.0972607
-0.0980596
-0.098755
-0.099346
-0.096615
-0.0976235
-0.0985304
-0.0993347
-0.100035
-0.100631
)
;

boundaryField
{
    movingWall
    {
        type            zeroGradient;
    }
    fixedWalls
    {
        type            zeroGradient;
    }
    frontAndBack
    {
        type            empty;
    }
    procBoundary1to0
    {
        type            processor;
        value           nonuniform List<scalar> 
45
(
-0.00311023
-0.00298083
-0.00287513
-0.00278013
-0.00269704
-0.00263684
-0.00261171
-0.00263513
-0.00272215
-0.00288907
-0.00315288
-0.00353079
-0.00403965
-0.00469538
-0.00551234
-0.00650268
-0.00767568
-0.00903707
-0.0105886
-0.0123274
-0.0123274
-0.0127861
-0.0147208
-0.0168099
-0.019037
-0.0213826
-0.0238255
-0.026343
-0.0289124
-0.0315112
-0.0341182
-0.036714
-0.039281
-0.0418039
-0.0442694
-0.0466668
-0.0489869
-0.0512224
-0.0533677
-0.0554183
-0.0573706
-0.059222
-0.0609703
-0.0626137
-0.064151
)
;
    }
    procBoundary1to3
    {
        type            processor;
        value           nonuniform List<scalar> 
23
(
-0.0682242
-0.0707635
-0.0731958
-0.0755198
-0.0777358
-0.0798449
-0.0798449
-0.0830925
-0.0849892
-0.0867858
-0.0884837
-0.0900836
-0.0915859
-0.0929907
-0.0942976
-0.0955061
-0.0955061
-0.0977733
-0.098787
-0.0996992
-0.100509
-0.101214
-0.101815
)
;
    }
    procBoundary1to6
    {
        type            processor;
        value           nonuniform List<scalar> 
26
(
-0.0698225
-0.0697178
-0.0695096
-0.0691983
-0.0687846
-0.0698225
-0.0725713
-0.0752016
-0.0777223
-0.0801406
-0.0824625
-0.0846643
-0.0846643
-0.0881227
-0.0884682
-0.0868007
-0.0887103
-0.0881227
-0.0900692
-0.091927
-0.093695
-0.0953714
-0.0969545
-0.0984421
-0.0998319
-0.101122
)
;
    }
    procBoundary1to7
    {
        type            processor;
        value           nonuniform List<scalar> 
33
(
0.000355164
9.24179e-05
-8.47731e-05
-0.000249474
-0.000450975
-0.000719028
-0.00108506
-0.00280156
-0.00158292
-0.00250256
-0.00454591
-0.00280156
-0.00414703
-0.00454591
-0.00587457
-0.00751989
-0.00950903
-0.0118578
-0.0145674
-0.017622
-0.0209884
-0.0246174
-0.0284477
-0.0324109
-0.0364371
-0.0404611
-0.0444267
-0.0482892
-0.0520167
-0.0555898
-0.0589993
-0.0622448
-0.0653315
)
;
    }
}


// ************************************************************************* //
