/*--------------------------------*- C++ -*----------------------------------*\
  =========                 |
  \\      /  F ield         | OpenFOAM: The Open Source CFD Toolbox
   \\    /   O peration     | Website:  https://openfoam.org
    \\  /    A nd           | Version:  9
     \\/     M anipulation  |
\*---------------------------------------------------------------------------*/
FoamFile
{
    format      ascii;
    class       surfaceScalarField;
    location    "0.5";
    object      phi;
}
// * * * * * * * * * * * * * * * * * * * * * * * * * * * * * * * * * * * * * //

dimensions      [0 3 -1 0 0 0 0];

internalField   nonuniform List<scalar> 
2445
(
-2.44418e-06
-6.03758e-07
-2.44461e-06
-8.00378e-07
-2.44438e-06
-9.92838e-07
-2.44438e-06
-1.18088e-06
-2.44569e-06
-1.36467e-06
-2.44949e-06
-1.54482e-06
-2.45694e-06
-1.72249e-06
-2.46899e-06
-1.89938e-06
-2.48605e-06
-2.07759e-06
-2.50772e-06
-2.25937e-06
-2.53237e-06
-2.44664e-06
-2.55687e-06
-2.64035e-06
-2.57628e-06
-2.83966e-06
-2.58388e-06
-3.04104e-06
-2.57132e-06
-3.2374e-06
-2.52932e-06
-3.41749e-06
-2.44867e-06
-3.56581e-06
-2.32169e-06
-3.66324e-06
-2.1441e-06
-3.68886e-06
-1.9169e-06
-3.62293e-06
-1.64782e-06
-3.45119e-06
-1.35165e-06
-3.16962e-06
-1.0488e-06
-2.78849e-06
-7.61709e-07
-2.33347e-06
-5.10268e-07
-1.8421e-06
-3.0783e-07
-1.35609e-06
-1.59638e-07
-9.1261e-07
-6.37782e-08
-5.38479e-07
-1.35615e-08
-2.49126e-07
-5.14258e-08
-2.27565e-06
-6.01902e-07
-2.27554e-06
-8.00494e-07
-2.27402e-06
-9.94359e-07
-2.27193e-06
-1.18297e-06
-2.2704e-06
-1.3662e-06
-2.27078e-06
-1.54443e-06
-2.27457e-06
-1.71869e-06
-2.28324e-06
-1.89072e-06
-2.29793e-06
-2.0629e-06
-2.31915e-06
-2.23815e-06
-2.34638e-06
-2.41941e-06
-2.37762e-06
-2.60911e-06
-2.40903e-06
-2.80825e-06
-2.43469e-06
-3.01538e-06
-2.44664e-06
-3.22545e-06
-2.43524e-06
-3.42889e-06
-2.39006e-06
-3.61099e-06
-2.30118e-06
-3.75212e-06
-2.16112e-06
-3.82891e-06
-1.96701e-06
-3.81704e-06
-1.72265e-06
-3.69555e-06
-1.43984e-06
-3.45243e-06
-1.1379e-06
-3.09043e-06
-8.40817e-07
-2.63055e-06
-5.72238e-07
-2.11067e-06
-3.50229e-07
-1.5781e-06
-1.84138e-07
-1.0787e-06
-7.46633e-08
-6.47953e-07
-1.6234e-08
-3.07555e-07
-6.76598e-08
-2.11085e-06
-5.98992e-07
-2.1111e-06
-8.00241e-07
-2.10914e-06
-9.96326e-07
-2.10569e-06
-1.18642e-06
-2.10184e-06
-1.37005e-06
-2.099e-06
-1.54727e-06
-2.09886e-06
-1.71884e-06
-2.10323e-06
-1.88635e-06
-2.11382e-06
-2.05231e-06
-2.13197e-06
-2.22e-06
-2.15815e-06
-2.39323e-06
-2.19156e-06
-2.5757e-06
-2.2296e-06
-2.77021e-06
-2.26751e-06
-2.97747e-06
-2.29814e-06
-3.19482e-06
-2.31213e-06
-3.4149e-06
-2.29845e-06
-3.62467e-06
-2.24566e-06
-3.80491e-06
-2.14359e-06
-3.93098e-06
-1.9857e-06
-3.97494e-06
-1.77161e-06
-3.90963e-06
-1.50925e-06
-3.71479e-06
-1.21553e-06
-3.38415e-06
-9.14566e-07
-2.93152e-06
-6.32899e-07
-2.39234e-06
-3.93264e-07
-1.81774e-06
-2.09699e-07
-1.26227e-06
-8.62777e-08
-7.71374e-07
-1.91527e-08
-3.7468e-07
-8.68125e-08
-1.9477e-06
-5.94276e-07
-1.94918e-06
-7.9876e-07
-1.94771e-06
-9.97789e-07
-1.94391e-06
-1.19023e-06
-1.93873e-06
-1.37523e-06
-1.93355e-06
-1.55245e-06
-1.93008e-06
-1.72231e-06
-1.93032e-06
-1.88611e-06
-1.93636e-06
-2.04626e-06
-1.95014e-06
-2.20623e-06
-1.973e-06
-2.37036e-06
-2.00527e-06
-2.54344e-06
-2.04562e-06
-2.72986e-06
-2.09062e-06
-2.93247e-06
-2.13428e-06
-3.15116e-06
-2.16799e-06
-3.38119e-06
-2.18083e-06
-3.61182e-06
-2.16048e-06
-3.82526e-06
-2.09478e-06
-3.99668e-06
-1.97403e-06
-4.09568e-06
-1.79377e-06
-4.0899e-06
-1.55755e-06
-3.95101e-06
-1.27882e-06
-3.66288e-06
-9.80347e-07
-3.22999e-06
-6.90368e-07
-2.68232e-06
-4.35825e-07
-2.07228e-06
-2.35792e-07
-1.4623e-06
-9.84299e-08
-9.08736e-07
-2.22809e-08
-4.50829e-07
-1.09093e-07
-1.7833e-06
-5.87196e-07
-1.78675e-06
-7.95303e-07
-1.78674e-06
-9.97807e-07
-1.78369e-06
-1.19327e-06
-1.77844e-06
-1.38048e-06
-1.77221e-06
-1.55869e-06
-1.76663e-06
-1.72788e-06
-1.76372e-06
-1.88901e-06
-1.76577e-06
-2.04422e-06
-1.77507e-06
-2.19692e-06
-1.79367e-06
-2.35176e-06
-1.82282e-06
-2.51429e-06
-1.86242e-06
-2.69026e-06
-1.9104e-06
-2.88449e-06
-1.96215e-06
-3.09941e-06
-2.01018e-06
-3.33315e-06
-2.04421e-06
-3.57779e-06
-2.05173e-06
-3.81775e-06
-2.0193e-06
-4.0291e-06
-1.93473e-06
-4.18025e-06
-1.78985e-06
-4.23478e-06
-1.58379e-06
-4.15708e-06
-1.32575e-06
-3.92092e-06
-1.03592e-06
-3.51982e-06
-7.42816e-07
-2.97542e-06
-4.76741e-07
-2.33835e-06
-2.61823e-07
-1.67722e-06
-1.10898e-07
-1.05966e-06
-2.55752e-08
-5.36152e-07
-1.34669e-07
-1.61472e-06
-5.77398e-07
-1.62074e-06
-7.89284e-07
-1.623e-06
-9.95545e-07
-1.6218e-06
-1.19447e-06
-1.61779e-06
-1.38449e-06
-1.612e-06
-1.56448e-06
-1.6059e-06
-1.73398e-06
-1.60138e-06
-1.89353e-06
-1.60072e-06
-2.04488e-06
-1.60642e-06
-2.19122e-06
-1.62095e-06
-2.33724e-06
-1.64628e-06
-2.48896e-06
-1.68337e-06
-2.65316e-06
-1.73146e-06
-2.83641e-06
-1.78737e-06
-3.04349e-06
-1.84501e-06
-3.27551e-06
-1.89512e-06
-3.52769e-06
-1.92558e-06
-3.78729e-06
-1.92242e-06
-4.03227e-06
-1.87163e-06
-4.23104e-06
-1.76195e-06
-4.34446e-06
-1.5883e-06
-4.33072e-06
-1.35534e-06
-4.15388e-06
-1.07965e-06
-3.79551e-06
-7.88642e-07
-3.26643e-06
-5.14865e-07
-2.61213e-06
-2.8716e-07
-1.90492e-06
-1.23427e-07
-1.22339e-06
-2.89818e-08
-6.30597e-07
-1.6365e-07
-1.43951e-06
-5.64711e-07
-1.4485e-06
-7.80292e-07
-1.45372e-06
-9.90324e-07
-1.45533e-06
-1.19285e-06
-1.4538e-06
-1.38602e-06
-1.44995e-06
-1.56833e-06
-1.44502e-06
-1.73892e-06
-1.44069e-06
-1.89786e-06
-1.4391e-06
-2.04647e-06
-1.44273e-06
-2.18759e-06
-1.45424e-06
-2.32572e-06
-1.47612e-06
-2.46708e-06
-1.51015e-06
-2.61914e-06
-1.5567e-06
-2.78985e-06
-1.61402e-06
-2.98618e-06
-1.67748e-06
-3.21205e-06
-1.73915e-06
-3.46601e-06
-1.78779e-06
-3.73866e-06
-1.80947e-06
-4.01059e-06
-1.78913e-06
-4.25137e-06
-1.7131e-06
-4.42049e-06
-1.57256e-06
-4.47125e-06
-1.36763e-06
-4.35882e-06
-1.11061e-06
-4.05253e-06
-8.26612e-07
-3.55043e-06
-5.49168e-07
-2.88958e-06
-3.11179e-07
-2.14291e-06
-1.35748e-07
-1.39883e-06
-3.24377e-08
-7.33907e-07
-1.96088e-07
-1.25599e-06
-5.49113e-07
-1.2682e-06
-7.68078e-07
-1.27689e-06
-9.81641e-07
-1.28209e-06
-1.18765e-06
-1.28412e-06
-1.38399e-06
-1.28358e-06
-1.56887e-06
-1.28145e-06
-1.74104e-06
-1.27916e-06
-1.90015e-06
-1.27858e-06
-2.04705e-06
-1.28204e-06
-2.18413e-06
-1.2922e-06
-2.31556e-06
-1.3118e-06
-2.44748e-06
-1.34317e-06
-2.58777e-06
-1.38764e-06
-2.74538e-06
-1.44472e-06
-2.9291e-06
-1.51126e-06
-3.14551e-06
-1.58081e-06
-3.39646e-06
-1.64332e-06
-3.67614e-06
-1.68547e-06
-3.96844e-06
-1.69178e-06
-4.24506e-06
-1.64689e-06
-4.46539e-06
-1.53887e-06
-4.57928e-06
-1.36351e-06
-4.53417e-06
-1.1286e-06
-4.28745e-06
-8.55953e-07
-3.82307e-06
-5.78832e-07
-3.1667e-06
-3.33318e-07
-2.38843e-06
-1.47591e-07
-1.58455e-06
-3.58747e-08
-8.45624e-07
-2.31963e-07
-1.0634e-06
-5.30686e-07
-1.07895e-06
-7.52526e-07
-1.09144e-06
-9.69153e-07
-1.10083e-06
-1.17826e-06
-1.10728e-06
-1.37754e-06
-1.11121e-06
-1.56495e-06
-1.11334e-06
-1.73891e-06
-1.11479e-06
-1.89869e-06
-1.11715e-06
-2.0447e-06
-1.12246e-06
-2.17882e-06
-1.13322e-06
-2.30481e-06
-1.15218e-06
-2.42852e-06
-1.18202e-06
-2.55792e-06
-1.22476e-06
-2.70264e-06
-1.28096e-06
-2.8729e-06
-1.34885e-06
-3.07762e-06
-1.4235e-06
-3.32181e-06
-1.49629e-06
-3.60336e-06
-1.55485e-06
-3.90988e-06
-1.58391e-06
-4.216e-06
-1.56709e-06
-4.48221e-06
-1.49e-06
-4.65637e-06
-1.34461e-06
-4.67956e-06
-1.1341e-06
-4.49796e-06
-8.76388e-07
-4.08078e-06
-6.03308e-07
-3.43977e-06
-3.53114e-07
-2.63862e-06
-1.58713e-07
-1.77895e-06
-3.92248e-08
-9.65112e-07
-2.71187e-07
-8.61842e-07
-5.09568e-07
-8.80754e-07
-7.33614e-07
-8.97251e-07
-9.52656e-07
-9.11239e-07
-1.16427e-06
-9.22763e-07
-1.36602e-06
-9.32065e-07
-1.55564e-06
-9.39644e-07
-1.73133e-06
-9.46328e-07
-1.89201e-06
-9.53357e-07
-2.03767e-06
-9.62443e-07
-2.16973e-06
-9.75794e-07
-2.29146e-06
-9.96027e-07
-2.40829e-06
-1.02591e-06
-2.52803e-06
-1.0679e-06
-2.66066e-06
-1.12338e-06
-2.81742e-06
-1.19178e-06
-3.00922e-06
-1.26965e-06
-3.24394e-06
-1.34986e-06
-3.52315e-06
-1.42133e-06
-3.83841e-06
-1.46942e-06
-4.16791e-06
-1.47735e-06
-4.47428e-06
-1.42897e-06
-4.70474e-06
-1.31298e-06
-4.79555e-06
-1.12815e-06
-4.68278e-06
-8.88116e-07
-4.32082e-06
-6.22351e-07
-3.70554e-06
-3.70251e-07
-2.89072e-06
-1.68913e-07
-1.98029e-06
-4.24254e-08
-1.0916e-06
-3.13613e-07
-6.52151e-07
-4.85918e-07
-6.74384e-07
-7.11381e-07
-6.94993e-07
-9.32048e-07
-7.13843e-07
-1.14542e-06
-7.30895e-07
-1.34897e-06
-7.46248e-07
-1.54029e-06
-7.60195e-07
-1.71739e-06
-7.73295e-07
-1.87891e-06
-7.86457e-07
-2.02451e-06
-8.01025e-07
-2.15516e-06
-8.18848e-07
-2.27363e-06
-8.42265e-07
-2.38487e-06
-8.73957e-07
-2.49634e-06
-9.16566e-07
-2.61805e-06
-9.72062e-07
-2.76193e-06
-1.04086e-06
-2.94042e-06
-1.12084e-06
-3.16397e-06
-1.20639e-06
-3.4376e-06
-1.28787e-06
-3.75693e-06
-1.35163e-06
-4.10416e-06
-1.38102e-06
-4.44488e-06
-1.35878e-06
-4.72699e-06
-1.27092e-06
-4.88342e-06
-1.11218e-06
-4.84152e-06
-8.91742e-07
-4.54126e-06
-6.36022e-07
-3.96126e-06
-3.84575e-07
-3.14217e-06
-1.78052e-07
-2.18681e-06
-4.54243e-08
-1.22423e-06
-3.59037e-07
-4.35751e-07
-4.5989e-07
-4.61235e-07
-6.85897e-07
-4.85986e-07
-9.07297e-07
-5.09848e-07
-1.12156e-06
-5.32718e-07
-1.3261e-06
-5.54583e-07
-1.51843e-06
-5.75563e-07
-1.6964e-06
-5.95977e-07
-1.8585e-06
-6.16423e-07
-2.00406e-06
-6.37881e-07
-2.1337e-06
-6.61803e-07
-2.24971e-06
-6.9017e-07
-2.3565e-06
-7.25423e-07
-2.46109e-06
-7.70201e-07
-2.57327e-06
-8.26813e-07
-2.70532e-06
-8.96426e-07
-2.87081e-06
-9.7806e-07
-3.08233e-06
-1.06755e-06
-3.3481e-06
-1.15676e-06
-3.66772e-06
-1.23328e-06
-4.02764e-06
-1.28106e-06
-4.39711e-06
-1.28224e-06
-4.7258e-06
-1.22078e-06
-4.94488e-06
-1.08784e-06
-4.97445e-06
-8.88186e-07
-4.74092e-06
-6.44655e-07
-4.20479e-06
-3.96107e-07
-3.39072e-06
-1.86062e-07
-2.39686e-06
-4.81848e-08
-1.3621e-06
-4.07222e-07
-2.145e-07
-4.31612e-07
-2.43149e-07
-6.57247e-07
-2.72027e-07
-8.78419e-07
-3.00966e-07
-1.09262e-06
-3.29818e-07
-1.29724e-06
-3.58482e-07
-1.48976e-06
-3.86937e-07
-1.66795e-06
-4.15291e-07
-1.83014e-06
-4.43865e-07
-1.97548e-06
-4.73294e-07
-2.10428e-06
-5.04632e-07
-2.21837e-06
-5.39458e-07
-2.32168e-06
-5.79874e-07
-2.42067e-06
-6.28357e-07
-2.52479e-06
-6.87341e-07
-2.64633e-06
-7.58511e-07
-2.79964e-06
-8.41825e-07
-2.99902e-06
-9.34426e-07
-3.2555e-06
-1.02967e-06
-3.57248e-06
-1.11654e-06
-3.94076e-06
-1.17991e-06
-4.33375e-06
-1.20184e-06
-4.70387e-06
-1.16481e-06
-4.9819e-06
-1.05689e-06
-5.08238e-06
-8.78575e-07
-4.91923e-06
-6.48812e-07
-4.43455e-06
-4.05028e-07
-3.6345e-06
-1.92955e-07
-2.60893e-06
-5.06888e-08
-1.50437e-06
-4.57911e-07
9.47291e-09
-4.01227e-07
-2.22915e-08
-6.25483e-07
-5.52444e-08
-8.45466e-07
-8.92667e-08
-1.0586e-06
-1.24168e-07
-1.26234e-06
-1.59784e-07
-1.45415e-06
-1.95971e-07
-1.63176e-06
-2.32648e-07
-1.79347e-06
-2.69911e-07
-1.93822e-06
-3.08073e-07
-2.06611e-06
-3.47811e-07
-2.17863e-06
-3.90289e-07
-2.2792e-06
-4.37217e-07
-2.37374e-06
-4.90792e-07
-2.47121e-06
-5.53404e-07
-2.58372e-06
-6.27037e-07
-2.726e-06
-7.12373e-07
-2.91368e-06
-8.07686e-07
-3.16019e-06
-9.07755e-07
-3.47241e-06
-1.00305e-06
-3.84546e-06
-1.07957e-06
-4.25723e-06
-1.11975e-06
-4.66369e-06
-1.10508e-06
-4.99657e-06
-1.02104e-06
-5.16642e-06
-8.64144e-07
-5.07613e-06
-6.49219e-07
-4.64948e-06
-4.11664e-07
-3.87206e-06
-1.9882e-07
-2.82178e-06
-5.29388e-08
-1.65025e-06
-5.1085e-07
2.33718e-07
1.98966e-07
1.61992e-07
1.22928e-07
-1.01953e-06
8.199e-08
-1.22141e-06
3.9409e-08
-1.41156e-06
-4.58612e-09
-1.58777e-06
-4.98098e-08
-1.74824e-06
-9.60789e-08
-1.89195e-06
-1.43445e-07
-2.01875e-06
-1.92232e-07
-2.12985e-06
-2.43217e-07
-2.22821e-06
-2.97698e-07
-2.31926e-06
-3.57518e-07
-2.41139e-06
-4.24886e-07
-2.51635e-06
-5.01906e-07
-2.64898e-06
-5.89771e-07
-2.82582e-06
-6.87705e-07
-3.06226e-06
-7.91793e-07
-3.36833e-06
-8.93986e-07
-3.74327e-06
-9.81589e-07
-4.16962e-06
-1.03772e-06
-4.60756e-06
-1.04338e-06
-4.99091e-06
-9.81905e-07
-5.22789e-06
-8.46137e-07
-5.21189e-06
-6.46698e-07
-4.84892e-06
-4.16454e-07
-4.1023e-06
-2.03818e-07
-3.03441e-06
-5.49591e-08
-1.79911e-06
-5.65809e-07
3.33139e-07
-9.75486e-07
2.86201e-07
-1.17447e-06
2.36672e-07
-1.36204e-06
1.84873e-07
-1.53597e-06
1.31163e-07
-1.69453e-06
7.58411e-08
-1.83663e-06
1.91142e-08
-1.96202e-06
-3.90888e-08
-2.07165e-06
-9.91144e-08
-2.16819e-06
-1.61857e-07
-2.25652e-06
-2.2878e-07
-2.34447e-06
-3.01823e-07
-2.44331e-06
-3.83058e-07
-2.56775e-06
-4.74005e-07
-2.73487e-06
-5.74646e-07
-2.96162e-06
-6.82231e-07
-3.26074e-06
-7.90144e-07
-3.63535e-06
-8.87097e-07
-4.07267e-06
-9.57144e-07
-4.53752e-06
-9.81186e-07
-4.96687e-06
-9.40899e-07
-5.26818e-06
-8.2574e-07
-5.32705e-06
-6.42105e-07
-5.03255e-06
-4.19912e-07
-4.32449e-06
-2.0817e-07
-3.24615e-06
-5.67952e-08
-1.95049e-06
-6.22604e-07
5.38712e-07
-9.26589e-07
4.85943e-07
-1.1217e-06
4.29651e-07
-1.30574e-06
3.70238e-07
-1.47655e-06
3.08163e-07
-1.63246e-06
2.43887e-07
-1.77235e-06
1.77808e-07
-1.89594e-06
1.10183e-07
-2.00402e-06
4.09321e-08
-2.09894e-06
-3.04492e-08
-2.18514e-06
-1.05019e-07
-2.2699e-06
-1.84393e-07
-2.36393e-06
-2.70498e-07
-2.48164e-06
-3.65024e-07
-2.64034e-06
-4.6853e-07
-2.85811e-06
-5.7928e-07
-3.14999e-06
-6.92006e-07
-3.52263e-06
-7.96869e-07
-3.96781e-06
-8.79052e-07
-4.45533e-06
-9.19694e-07
-4.92623e-06
-8.99214e-07
-5.28866e-06
-8.04018e-07
-5.42225e-06
-6.36281e-07
-5.20029e-06
-4.226e-07
-4.53817e-06
-2.1215e-07
-3.4566e-06
-5.85121e-08
-2.10412e-06
-6.81116e-07
7.36941e-07
-8.7306e-07
6.78597e-07
-1.06335e-06
6.1583e-07
-1.24298e-06
5.49114e-07
-1.40984e-06
4.79007e-07
-1.56235e-06
4.06104e-07
-1.69945e-06
3.30983e-07
-1.82082e-06
2.54112e-07
-1.92715e-06
1.75716e-07
-2.02054e-06
9.56368e-08
-2.10506e-06
1.31903e-08
-2.18745e-06
-7.28803e-08
-2.27786e-06
-1.64287e-07
-2.39024e-06
-2.62762e-07
-2.54187e-06
-3.69281e-07
-2.75159e-06
-4.82963e-07
-3.03631e-06
-5.99789e-07
-3.4058e-06
-7.11365e-07
-3.85623e-06
-8.04138e-07
-4.36256e-06
-8.5977e-07
-4.87059e-06
-8.57793e-07
-5.29063e-06
-7.81874e-07
-5.49817e-06
-6.29999e-07
-5.35216e-06
-4.25086e-07
-4.74309e-06
-2.16066e-07
-3.66563e-06
-6.01922e-08
-2.26e-06
-7.41308e-07
9.25162e-07
-8.15222e-07
8.61607e-07
-9.998e-07
7.92776e-07
-1.17415e-06
7.19213e-07
-1.33628e-06
6.41564e-07
-1.4847e-06
5.6054e-07
-1.61843e-06
4.76866e-07
-1.73715e-06
3.91202e-07
-1.84149e-06
3.04021e-07
-1.93336e-06
2.15474e-07
-2.01651e-06
1.2523e-07
-2.09721e-06
3.23792e-08
-2.18501e-06
-6.45153e-08
-2.29334e-06
-1.67135e-07
-2.43925e-06
-2.76738e-07
-2.64199e-06
-3.93154e-07
-2.91989e-06
-5.13492e-07
-3.28546e-06
-6.30771e-07
-3.73895e-06
-7.32795e-07
-4.26054e-06
-8.01982e-07
-4.80141e-06
-8.17315e-07
-5.2753e-06
-7.60017e-07
-5.55547e-06
-6.23924e-07
-5.48826e-06
-4.27918e-07
-4.93909e-06
-2.20247e-07
-3.8733e-06
-6.1932e-08
-2.41831e-06
-8.0324e-07
1.10079e-06
-7.53518e-07
1.03252e-06
-9.31531e-07
9.58183e-07
-1.0998e-06
8.78382e-07
-1.25648e-06
7.93845e-07
-1.40016e-06
7.05383e-07
-1.52997e-06
6.13848e-07
-1.64561e-06
5.20057e-07
-1.7477e-06
4.24694e-07
-1.838e-06
3.28174e-07
-1.91999e-06
2.30487e-07
-1.99952e-06
1.31061e-07
-2.08559e-06
2.8739e-08
-2.19102e-06
-7.80116e-08
-2.3325e-06
-1.90668e-07
-2.52933e-06
-3.09595e-07
-2.80097e-06
-4.32925e-07
-3.16213e-06
-5.55034e-07
-3.61684e-06
-6.65141e-07
-4.15043e-06
-7.46617e-07
-4.71993e-06
-7.78194e-07
-5.24372e-06
-7.38942e-07
-5.59472e-06
-6.18584e-07
-5.60861e-06
-4.31588e-07
-5.12609e-06
-2.25031e-07
-4.07985e-06
-6.38395e-08
-2.5795e-06
-8.6708e-07
1.26144e-06
-6.88542e-07
1.1891e-06
-8.59199e-07
1.10996e-06
-1.02066e-06
1.02469e-06
-1.1712e-06
9.34086e-07
-1.30956e-06
8.39045e-07
-1.43492e-06
7.40522e-07
-1.54709e-06
6.39468e-07
-1.64664e-06
5.3674e-07
-1.73527e-06
4.32981e-07
-1.81623e-06
3.28457e-07
-1.895e-06
2.2291e-07
-1.98004e-06
1.15462e-07
-2.08357e-06
4.70574e-09
-2.22174e-06
-1.10754e-07
-2.41387e-06
-2.31897e-07
-2.67982e-06
-3.57725e-07
-3.03631e-06
-4.83887e-07
-3.49068e-06
-6.01047e-07
-4.03327e-06
-6.93688e-07
-4.62729e-06
-7.40579e-07
-5.19683e-06
-7.18912e-07
-5.61639e-06
-6.14345e-07
-5.71318e-06
-4.3652e-07
-5.30391e-06
-2.30751e-07
-4.28562e-06
-6.60311e-08
-2.74422e-06
-9.33111e-07
1.40503e-06
-6.21034e-07
1.32943e-06
-7.83604e-07
1.24636e-06
-9.37588e-07
1.15654e-06
-1.08139e-06
1.06084e-06
-1.21386e-06
9.6024e-07
-1.33432e-06
8.55769e-07
-1.44262e-06
7.48489e-07
-1.53936e-06
6.39401e-07
-1.62618e-06
5.29335e-07
-1.70617e-06
4.18799e-07
-1.78446e-06
3.07815e-07
-1.86906e-06
1.95792e-07
-1.97155e-06
8.15452e-08
-2.10749e-06
-3.65118e-08
-2.29581e-06
-1.59539e-07
-2.5568e-06
-2.87367e-07
-2.90848e-06
-4.16867e-07
-3.36118e-06
-5.40152e-07
-3.90998e-06
-6.4296e-07
-4.52448e-06
-7.04361e-07
-5.13543e-06
-6.99955e-07
-5.62079e-06
-6.11387e-07
-5.80175e-06
-4.43034e-07
-5.47227e-06
-2.37722e-07
-4.49093e-06
-6.86288e-08
-2.91332e-06
-1.00174e-06
1.52999e-06
-5.51856e-07
1.45206e-06
-7.05679e-07
1.36605e-06
-8.51578e-07
1.27275e-06
-9.88084e-07
1.17308e-06
-1.11419e-06
1.06807e-06
-1.22931e-06
9.5883e-07
-1.33338e-06
8.46507e-07
-1.42704e-06
7.32217e-07
-1.51189e-06
6.16943e-07
-1.59089e-06
5.01399e-07
-1.66891e-06
3.8585e-07
-1.75351e-06
2.69959e-07
-1.85566e-06
1.52717e-07
-1.99025e-06
3.26037e-08
-2.1757e-06
-9.18579e-08
-2.43233e-06
-2.21169e-07
-2.77917e-06
-3.53323e-07
-3.22903e-06
-4.81879e-07
-3.78143e-06
-5.93954e-07
-4.41241e-06
-6.69176e-07
-5.06021e-06
-6.8185e-07
-5.60812e-06
-6.09689e-07
-5.87391e-06
-4.51334e-07
-5.63062e-06
-2.46236e-07
-4.69603e-06
-7.17593e-08
-3.08779e-06
-1.0735e-06
1.63535e-06
-4.81956e-07
1.55613e-06
-6.26456e-07
1.46829e-06
-7.63737e-07
1.37267e-06
-8.92468e-07
1.27025e-06
-1.01177e-06
1.16209e-06
-1.12116e-06
1.04937e-06
-1.22066e-06
9.33303e-07
-1.31097e-06
8.1509e-07
-1.39368e-06
6.95842e-07
-1.47165e-06
5.76438e-07
-1.54951e-06
4.5735e-07
-1.63442e-06
3.38464e-07
-1.73677e-06
2.18956e-07
-1.87074e-06
9.7362e-08
-2.05411e-06
-2.80257e-08
-2.30695e-06
-1.58269e-07
-2.64892e-06
-2.92414e-07
-3.09488e-06
-4.25446e-07
-3.6484e-06
-5.45961e-07
-4.29189e-06
-6.34409e-07
-4.97176e-06
-6.64125e-07
-5.5784e-06
-6.09006e-07
-5.92903e-06
-4.61478e-07
-5.77815e-06
-2.56546e-07
-4.90097e-06
-7.55538e-08
-3.26878e-06
-1.14905e-06
1.72089e-06
-4.12316e-07
1.64144e-06
-5.47009e-07
1.55293e-06
-6.75225e-07
1.45623e-06
-7.95767e-07
1.35234e-06
-9.07879e-07
1.24237e-06
-1.01119e-06
1.12754e-06
-1.10582e-06
1.0091e-06
-1.19253e-06
8.88336e-07
-1.27291e-06
7.66445e-07
-1.34975e-06
6.44438e-07
-1.4275e-06
5.22956e-07
-1.51294e-06
4.02073e-07
-1.61589e-06
2.81131e-07
-1.7498e-06
1.5873e-07
-1.9317e-06
3.30094e-08
-2.18123e-06
-9.76054e-08
-2.51831e-06
-2.33103e-07
-2.95939e-06
-3.69856e-07
-3.51164e-06
-4.98044e-07
-4.1637e-06
-5.99199e-07
-4.87061e-06
-6.46049e-07
-5.53155e-06
-6.08857e-07
-5.96622e-06
-4.73365e-07
-5.91364e-06
-2.68863e-07
-5.10547e-06
-8.01516e-08
-3.4575e-06
-1.2292e-06
1.78713e-06
-3.439e-07
1.70854e-06
-4.68414e-07
1.62052e-06
-5.87209e-07
1.52398e-06
-6.99229e-07
1.41995e-06
-8.0384e-07
1.30954e-06
-9.00787e-07
1.194e-06
-9.90284e-07
1.07462e-06
-1.07315e-06
9.52729e-07
-1.15102e-06
8.29593e-07
-1.22662e-06
7.06317e-07
-1.30423e-06
5.83669e-07
-1.39029e-06
4.61874e-07
-1.4941e-06
3.40414e-07
-1.62834e-06
2.17953e-07
-1.80924e-06
9.25184e-08
-2.05579e-06
-3.78998e-08
-2.38789e-06
-1.74131e-07
-2.82315e-06
-3.13896e-07
-3.37188e-06
-4.49032e-07
-4.02857e-06
-5.62432e-07
-4.75721e-06
-6.26626e-07
-5.46736e-06
-6.08505e-07
-5.98434e-06
-4.86702e-07
-6.03544e-06
-2.83341e-07
-5.30883e-06
-8.57078e-08
-3.65513e-06
-1.31491e-06
1.83542e-06
-2.77605e-07
1.75869e-06
-3.91692e-07
1.67231e-06
-5.00823e-07
1.57716e-06
-6.04081e-07
1.47428e-06
-7.00958e-07
1.3648e-06
-7.91312e-07
1.24998e-06
-8.75457e-07
1.13111e-06
-9.54288e-07
1.00955e-06
-1.02946e-06
8.86608e-07
-1.10367e-06
7.63443e-07
-1.18106e-06
6.40911e-07
-1.26776e-06
5.19343e-07
-1.37253e-06
3.98329e-07
-1.50733e-06
2.7659e-07
-1.68751e-06
1.52068e-07
-1.93127e-06
2.24053e-08
-2.25823e-06
-1.13982e-07
-2.68677e-06
-2.56101e-07
-3.22976e-06
-3.9751e-07
-3.88716e-06
-5.22735e-07
-4.63198e-06
-6.04579e-07
-5.38552e-06
-6.06936e-07
-5.98199e-06
-5.00989e-07
-6.14139e-06
-3.00067e-07
-5.50975e-06
-9.24084e-08
-3.86279e-06
-1.40732e-06
1.8678e-06
-2.14237e-07
1.7939e-06
-3.17789e-07
1.71021e-06
-4.17135e-07
1.61763e-06
-5.11502e-07
1.51718e-06
-6.00507e-07
1.40999e-06
-6.84123e-07
1.29729e-06
-7.62761e-07
1.1804e-06
-8.37392e-07
1.06064e-06
-9.0971e-07
9.39352e-07
-9.82382e-07
8.17703e-07
-1.05941e-06
6.96593e-07
-1.14665e-06
5.76414e-07
-1.25235e-06
4.56829e-07
-1.38774e-06
3.36602e-07
-1.56728e-06
2.13614e-07
-1.80828e-06
8.52287e-08
-2.12984e-06
-5.08189e-08
-2.55072e-06
-1.94716e-07
-3.08586e-06
-3.4178e-07
-3.74009e-06
-4.78452e-07
-4.49531e-06
-5.78334e-07
-5.28563e-06
-6.02837e-07
-5.95748e-06
-5.15481e-07
-6.22875e-06
-3.1905e-07
-5.70618e-06
-1.00493e-07
-4.08135e-06
-1.50781e-06
1.88705e-06
-1.54507e-07
1.81683e-06
-2.47568e-07
1.73684e-06
-3.37148e-07
1.64796e-06
-4.22619e-07
1.55118e-06
-5.03724e-07
1.4476e-06
-5.80546e-07
1.33844e-06
-6.53596e-07
1.22496e-06
-7.23917e-07
1.10849e-06
-7.93237e-07
9.90309e-07
-8.64201e-07
8.71582e-07
-9.40688e-07
7.532e-07
-1.02827e-06
6.35571e-07
-1.13472e-06
5.1839e-07
-1.27056e-06
4.0044e-07
-1.44933e-06
2.79556e-07
-1.6874e-06
1.52876e-07
-2.00316e-06
1.75756e-08
-2.41542e-06
-1.27622e-07
-2.94066e-06
-2.79813e-07
-3.5879e-06
-4.27604e-07
-4.34752e-06
-5.45987e-07
-5.16725e-06
-5.94555e-07
-5.90892e-06
-5.29151e-07
-6.29415e-06
-3.40194e-07
-5.89514e-06
-1.10288e-07
-4.31125e-06
-1.6181e-06
1.89663e-06
-9.906e-08
1.83089e-06
-1.81832e-07
1.75556e-06
-2.61813e-07
1.67146e-06
-3.3852e-07
1.57955e-06
-4.11814e-07
1.4809e-06
-4.81892e-07
1.37665e-06
-5.49352e-07
1.26804e-06
-6.15305e-07
1.15631e-06
-6.8151e-07
1.04269e-06
-7.50581e-07
9.2828e-07
-8.26277e-07
8.13915e-07
-9.139e-07
6.99971e-07
-1.02077e-06
5.8613e-07
-1.15672e-06
4.71173e-07
-1.33437e-06
3.52892e-07
-1.56912e-06
2.28253e-07
-1.87852e-06
9.39724e-08
-2.28114e-06
-5.22289e-08
-2.79446e-06
-2.0916e-07
-3.43097e-06
-3.67829e-07
-4.18885e-06
-5.0525e-07
-5.02983e-06
-5.80053e-07
-5.83411e-06
-5.40638e-07
-6.33357e-06
-3.63264e-07
-6.07251e-06
-1.22237e-07
-4.55228e-06
-1.74034e-06
1.90078e-06
-4.85309e-08
1.84031e-06
-1.21366e-07
1.77057e-06
-1.92066e-07
1.69232e-06
-2.60277e-07
1.60648e-06
-3.25975e-07
1.51405e-06
-3.89457e-07
1.4161e-06
-4.51405e-07
1.31378e-06
-5.12983e-07
1.20824e-06
-5.75971e-07
1.10061e-06
-6.42945e-07
9.9187e-07
-7.17539e-07
8.82767e-07
-8.04798e-07
7.73593e-07
-9.116e-07
6.63972e-07
-1.0471e-06
5.5265e-07
-1.22305e-06
4.3737e-07
-1.45384e-06
3.14962e-07
-1.75611e-06
1.8177e-07
-2.14795e-06
3.46621e-08
-2.64735e-06
-1.26832e-07
-3.26948e-06
-2.96272e-07
-4.01941e-06
-4.53368e-07
-4.87273e-06
-5.56826e-07
-5.73066e-06
-5.48161e-07
-6.34223e-06
-3.87812e-07
-6.23286e-06
-1.36922e-07
-4.80317e-06
-1.87726e-06
1.90478e-06
-3.59763e-09
1.85039e-06
-6.6979e-08
1.78719e-06
-1.28866e-07
1.71589e-06
-1.88978e-07
1.63733e-06
-2.47408e-07
1.55241e-06
-3.04537e-07
1.46212e-06
-3.61117e-07
1.36749e-06
-4.18354e-07
1.26955e-06
-4.78029e-07
1.16927e-06
-5.42669e-07
1.06751e-06
-6.15776e-07
9.64848e-07
-7.02138e-07
8.61454e-07
-8.08206e-07
7.56849e-07
-9.42495e-07
6.49702e-07
-1.1159e-06
5.37696e-07
-1.34183e-06
4.17542e-07
-1.63596e-06
2.85286e-07
-2.01569e-06
1.37076e-07
-2.49915e-06
-2.9074e-08
-3.10333e-06
-2.09445e-07
-3.83904e-06
-3.86991e-07
-4.69519e-06
-5.21778e-07
-5.59587e-06
-5.49391e-07
-6.31462e-06
-4.1306e-07
-6.36919e-06
-1.55053e-07
-5.06118e-06
-2.03231e-06
1.91533e-06
3.50657e-08
1.86794e-06
-1.95854e-08
1.81229e-06
-7.32188e-08
1.74906e-06
-1.2574e-07
1.67897e-06
-1.77319e-07
1.60284e-06
-2.28411e-07
1.52154e-06
-2.79816e-07
1.43595e-06
-3.32763e-07
1.34694e-06
-3.89018e-07
1.25531e-06
-4.51042e-07
1.16173e-06
-5.22192e-07
1.06659e-06
-6.06998e-07
9.69877e-07
-7.11496e-07
8.70968e-07
-8.43586e-07
7.68414e-07
-1.01335e-06
6.59801e-07
-1.23322e-06
5.41721e-07
-1.51788e-06
4.09971e-07
-1.88394e-06
2.60094e-07
-2.34927e-06
8.87292e-08
-2.93196e-06
-1.03024e-07
-3.64729e-06
-3.01986e-07
-4.49622e-06
-4.7103e-07
-5.42683e-06
-5.41255e-07
-6.24439e-06
-4.37713e-07
-6.47273e-06
-1.77392e-07
-5.3215e-06
-2.20971e-06
1.94142e-06
6.6525e-08
1.90194e-06
1.99028e-08
1.85488e-06
-2.6164e-08
1.80082e-06
-7.16734e-08
1.74038e-06
-1.16882e-07
1.67426e-06
-1.62294e-07
1.60318e-06
-2.08739e-07
1.52787e-06
-2.57445e-07
1.44899e-06
-3.10145e-07
1.36716e-06
-3.6921e-07
1.28281e-06
-4.37841e-07
1.19611e-06
-5.20302e-07
1.10684e-06
-6.22219e-07
1.01415e-06
-7.509e-07
9.16442e-07
-9.15643e-07
8.11158e-07
-1.12793e-06
6.9474e-07
-1.40146e-06
5.62747e-07
-1.75195e-06
4.1022e-07
-2.19674e-06
2.32666e-07
-2.75441e-06
2.87472e-08
-3.44337e-06
-1.93216e-07
-4.27426e-06
-3.99662e-07
-5.22038e-06
-5.1966e-07
-6.12439e-06
-4.59657e-07
-6.53273e-06
-2.04554e-07
-5.5766e-06
-2.41426e-06
1.99494e-06
8.98904e-08
1.96433e-06
5.05187e-08
1.92686e-06
1.13015e-08
1.88301e-06
-2.78194e-08
1.83328e-06
-6.71554e-08
1.77824e-06
-1.07251e-07
1.71844e-06
-1.4894e-07
1.65442e-06
-1.93429e-07
1.58667e-06
-2.42391e-07
1.51555e-06
-2.98088e-07
1.44125e-06
-3.63542e-07
1.36369e-06
-4.42742e-07
1.28237e-06
-5.40901e-07
1.19622e-06
-6.6475e-07
1.10341e-06
-8.22824e-07
1.00116e-06
-1.02569e-06
8.8572e-07
-1.28603e-06
7.52378e-07
-1.61861e-06
5.95713e-07
-2.04008e-06
4.10214e-07
-2.56891e-06
1.92199e-07
-3.22535e-06
-5.38088e-08
-4.02825e-06
-3.01485e-07
-4.9727e-06
-4.79084e-07
-5.9468e-06
-4.7549e-07
-6.53633e-06
-2.36668e-07
-5.81542e-06
-2.65093e-06
2.09191e-06
1.04339e-07
2.07101e-06
7.14199e-08
2.04396e-06
3.83557e-08
2.01114e-06
4.99978e-09
1.97293e-06
-2.89452e-08
1.92973e-06
-6.40548e-08
1.88195e-06
-1.01156e-07
1.82992e-06
-1.41405e-07
1.77392e-06
-1.86388e-07
1.71407e-06
-2.38237e-07
1.6503e-06
-2.99768e-07
1.58223e-06
-3.74676e-07
1.50908e-06
-4.67753e-07
1.42948e-06
-5.85152e-07
1.34131e-06
-7.34652e-07
1.24153e-06
-9.25901e-07
1.12608e-06
-1.17058e-06
9.89903e-07
-1.48243e-06
8.271e-07
-1.87727e-06
6.31309e-07
-2.37312e-06
3.96918e-07
-2.99096e-06
1.23672e-07
-3.75501e-06
-1.68956e-07
-4.68008e-06
-4.1192e-07
-5.70383e-06
-4.79956e-07
-6.46829e-06
-2.72841e-07
-6.02254e-06
-2.92377e-06
2.25343e-06
1.09324e-07
2.24275e-06
8.21043e-08
2.22658e-06
5.45216e-08
2.20517e-06
2.64077e-08
2.17884e-06
-2.61588e-09
2.14779e-06
-3.29983e-08
2.11226e-06
-6.56264e-08
2.0724e-06
-1.0155e-07
2.02827e-06
-1.42253e-07
1.97974e-06
-1.89705e-07
1.92646e-06
-2.46494e-07
1.86777e-06
-3.1599e-07
1.80256e-06
-4.02542e-07
1.72912e-06
-5.11709e-07
1.64498e-06
-6.50507e-07
1.54672e-06
-8.27651e-07
1.42992e-06
-1.05377e-06
1.28903e-06
-1.34154e-06
1.11757e-06
-1.70582e-06
9.08364e-07
-2.16391e-06
6.54236e-07
-2.73683e-06
3.51384e-07
-3.45216e-06
1.26652e-08
-4.34136e-06
-3.08043e-07
-5.38312e-06
-4.65467e-07
-6.31087e-06
-3.10425e-07
-6.17758e-06
-3.23419e-06
2.50635e-06
1.04845e-07
2.5058e-06
8.26555e-08
2.50035e-06
5.99723e-08
2.49015e-06
3.66081e-08
2.47531e-06
1.22171e-08
2.45601e-06
-1.36951e-08
2.43226e-06
-4.18792e-08
2.40405e-06
-7.33326e-08
2.37119e-06
-1.09397e-07
2.33334e-06
-1.51854e-07
2.28988e-06
-2.03029e-07
2.23982e-06
-2.65936e-07
2.18173e-06
-3.44447e-07
2.11351e-06
-4.43492e-07
2.03229e-06
-5.69289e-07
1.93422e-06
-7.29583e-07
1.81434e-06
-9.33887e-07
1.6665e-06
-1.1937e-06
1.48348e-06
-1.52279e-06
1.25714e-06
-1.93757e-06
9.78883e-07
-2.45857e-06
6.41028e-07
-3.1143e-06
2.46187e-07
-3.94652e-06
-1.55324e-07
-4.98161e-06
-4.20596e-07
-6.0456e-06
-3.43896e-07
-6.25428e-06
-3.57809e-06
2.88304e-06
9.17336e-08
2.89168e-06
7.4016e-08
2.8959e-06
5.57578e-08
2.89573e-06
3.67723e-08
2.89121e-06
1.67385e-08
2.88233e-06
-4.81075e-09
2.86898e-06
-2.85362e-08
2.85097e-06
-5.53206e-08
2.82793e-06
-8.63512e-08
2.79926e-06
-1.2319e-07
2.7641e-06
-1.67866e-07
2.72116e-06
-2.22998e-07
2.66865e-06
-2.91936e-07
2.60409e-06
-3.78935e-07
2.52416e-06
-4.89359e-07
2.42449e-06
-6.29908e-07
2.29949e-06
-8.08887e-07
2.14226e-06
-1.03648e-06
1.94464e-06
-1.32517e-06
1.69734e-06
-1.69027e-06
1.3903e-06
-2.15154e-06
1.0131e-06
-2.7371e-06
5.61392e-07
-3.4948e-06
6.90622e-08
-4.48928e-06
-3.29078e-07
-5.64746e-06
-3.64229e-07
-6.21913e-06
-3.94232e-06
3.41958e-06
7.18945e-08
3.43538e-06
5.82107e-08
3.44713e-06
4.40122e-08
3.45477e-06
2.91263e-08
3.45824e-06
1.32668e-08
3.45741e-06
-3.97208e-09
3.45205e-06
-2.31759e-08
3.44179e-06
-4.50658e-08
3.4261e-06
-7.06611e-08
3.40419e-06
-1.01275e-07
3.37493e-06
-1.38607e-07
3.33677e-06
-1.84837e-07
3.28758e-06
-2.42747e-07
3.2245e-06
-3.15855e-07
3.14374e-06
-4.08603e-07
3.04037e-06
-5.26543e-07
2.90813e-06
-6.76644e-07
2.73922e-06
-8.67562e-07
2.52432e-06
-1.11027e-06
2.2527e-06
-1.41865e-06
1.91262e-06
-1.81146e-06
1.49131e-06
-2.31579e-06
9.76983e-07
-2.98048e-06
3.81203e-07
-3.8935e-06
-1.67309e-07
-5.09894e-06
-3.59793e-07
-6.02664e-06
-4.30211e-06
4.15125e-06
4.84256e-08
4.17102e-06
3.84399e-08
4.18701e-06
2.80213e-08
4.19911e-06
1.70258e-08
4.20715e-06
5.22447e-09
4.21095e-06
-7.76297e-09
4.21013e-06
-2.23627e-08
4.20422e-06
-3.91584e-08
4.19253e-06
-5.89702e-08
4.1741e-06
-8.28377e-08
4.14759e-06
-1.121e-07
4.11121e-06
-1.48462e-07
4.06256e-06
-1.94094e-07
3.99843e-06
-2.51721e-07
3.91461e-06
-3.24789e-07
3.80566e-06
-4.17588e-07
3.66461e-06
-5.35596e-07
3.48272e-06
-6.85671e-07
3.24938e-06
-8.76932e-07
2.95202e-06
-1.12129e-06
2.57673e-06
-1.43617e-06
2.10816e-06
-1.84722e-06
1.52947e-06
-2.40179e-06
8.31936e-07
-3.19597e-06
1.09527e-07
-4.37654e-06
-2.99092e-07
-5.61802e-06
-4.6012e-06
5.10478e-06
2.5501e-08
5.1243e-06
1.89245e-08
5.14028e-06
1.20407e-08
5.15258e-06
4.72603e-09
5.16097e-06
-3.16799e-09
5.16522e-06
-1.20146e-08
5.16486e-06
-2.19976e-08
5.15931e-06
-3.36153e-08
5.14779e-06
-4.745e-08
5.1292e-06
-6.42485e-08
5.10207e-06
-8.49699e-08
5.06443e-06
-1.10821e-07
5.01367e-06
-1.43335e-07
4.94636e-06
-1.84405e-07
4.85801e-06
-2.36443e-07
4.74282e-06
-3.02392e-07
4.59332e-06
-3.86104e-07
4.39999e-06
-4.92341e-07
4.15096e-06
-6.27903e-07
3.83152e-06
-8.01843e-07
3.42463e-06
-1.02928e-06
2.91067e-06
-1.33326e-06
2.26853e-06
-1.75966e-06
1.47228e-06
-2.39971e-06
5.69626e-07
-3.47388e-06
-9.97521e-08
-4.94865e-06
-4.70096e-06
6.28715e-06
7.84071e-09
6.30178e-06