/*--------------------------------*- C++ -*----------------------------------*\
  =========                 |
  \\      /  F ield         | OpenFOAM: The Open Source CFD Toolbox
   \\    /   O peration     | Website:  https://openfoam.org
    \\  /    A nd           | Version:  9
     \\/     M anipulation  |
\*---------------------------------------------------------------------------*/
FoamFile
{
    format      ascii;
    class       volVectorField;
    location    "0.5";
    object      U;
}
// * * * * * * * * * * * * * * * * * * * * * * * * * * * * * * * * * * * * * //

dimensions      [0 1 -1 0 0 0 0];

internalField   nonuniform List<vector> 
1260
(
(-0.244358 -0.0604451 0)
(-0.244458 -0.0800235 0)
(-0.244446 -0.0992185 0)
(-0.24441 -0.118017 0)
(-0.244448 -0.136446 0)
(-0.244675 -0.154577 0)
(-0.245213 -0.172531 0)
(-0.246173 -0.190469 0)
(-0.247629 -0.208583 0)
(-0.249591 -0.22706 0)
(-0.251965 -0.246034 0)
(-0.254519 -0.265525 0)
(-0.256851 -0.285356 0)
(-0.258377 -0.305073 0)
(-0.258331 -0.323874 0)
(-0.255814 -0.340563 0)
(-0.249874 -0.353568 0)
(-0.239632 -0.36103 0)
(-0.22445 -0.361002 0)
(-0.204127 -0.351765 0)
(-0.179074 -0.332236 0)
(-0.15042 -0.302405 0)
(-0.119971 -0.263636 0)
(-0.0899601 -0.218662 0)
(-0.0626129 -0.171155 0)
(-0.0396719 -0.124972 0)
(-0.0220824 -0.0833975 0)
(-0.00994786 -0.0487177 0)
(-0.00281294 -0.0222014 0)
(-0.000210401 -0.0043998 0)
(-0.227512 -0.0602897 0)
(-0.227593 -0.0800309 0)
(-0.227492 -0.099325 0)
(-0.227287 -0.118134 0)
(-0.227075 -0.136461 0)
(-0.226983 -0.15436 0)
(-0.227157 -0.171944 0)
(-0.22775 -0.189389 0)
(-0.228899 -0.206926 0)
(-0.230697 -0.224819 0)
(-0.233152 -0.243316 0)
(-0.236146 -0.262589 0)
(-0.239395 -0.282647 0)
(-0.242411 -0.303234 0)
(-0.244494 -0.323734 0)
(-0.244751 -0.343086 0)
(-0.242152 -0.359757 0)
(-0.235645 -0.371781 0)
(-0.224321 -0.376915 0)
(-0.207615 -0.372935 0)
(-0.185535 -0.358074 0)
(-0.158842 -0.331551 0)
(-0.129117 -0.294065 0)
(-0.0986021 -0.248019 0)
(-0.0698012 -0.197248 0)
(-0.0449158 -0.146233 0)
(-0.0253653 -0.0991163 0)
(-0.0115987 -0.0589734 0)
(-0.00334902 -0.0276213 0)
(-0.000272455 -0.00588429 0)
(-0.210994 -0.0600767 0)
(-0.211148 -0.0800509 0)
(-0.211046 -0.0995268 0)
(-0.210752 -0.118437 0)
(-0.210356 -0.136754 0)
(-0.209984 -0.1545 0)
(-0.209793 -0.171767 0)
(-0.209963 -0.188728 0)
(-0.210677 -0.205632 0)
(-0.212095 -0.222795 0)
(-0.214318 -0.240562 0)
(-0.21734 -0.259244 0)
(-0.221002 -0.279036 0)
(-0.224941 -0.299899 0)
(-0.228561 -0.321441 0)
(-0.231024 -0.342803 0)
(-0.231293 -0.362575 0)
(-0.228212 -0.378788 0)
(-0.220658 -0.38901 0)
(-0.207746 -0.390598 0)
(-0.189081 -0.381128 0)
(-0.165003 -0.358989 0)
(-0.136752 -0.324041 0)
(-0.106436 -0.278089 0)
(-0.0767061 -0.224876 0)
(-0.050173 -0.169376 0)
(-0.028764 -0.116618 0)
(-0.0133518 -0.0706149 0)
(-0.00393252 -0.03389 0)
(-0.000343406 -0.0076491 0)
(-0.1946 -0.0597185 0)
(-0.194909 -0.0799916 0)
(-0.194897 -0.0997297 0)
(-0.194612 -0.118835 0)
(-0.194134 -0.137241 0)
(-0.193578 -0.154935 0)
(-0.193101 -0.171977 0)
(-0.192892 -0.188517 0)
(-0.19316 -0.204804 0)
(-0.194114 -0.221182 0)
(-0.19593 -0.238066 0)
(-0.198701 -0.255887 0)
(-0.202392 -0.275012 0)
(-0.206773 -0.295621 0)
(-0.211378 -0.317573 0)
(-0.215472 -0.340257 0)
(-0.218063 -0.362464 0)
(-0.21796 -0.382322 0)
(-0.213899 -0.397325 0)
(-0.204739 -0.404523 0)
(-0.189713 -0.400912 0)
(-0.168725 -0.38405 0)
(-0.142597 -0.352833 0)
(-0.113168 -0.30823 0)
(-0.0830941 -0.253591 0)
(-0.0552943 -0.194166 0)
(-0.032202 -0.135832 0)
(-0.015177 -0.0836604 0)
(-0.004556 -0.0410492 0)
(-0.000422869 -0.0097175 0)
(-0.178051 -0.0591474 0)
(-0.178578 -0.0797691 0)
(-0.17874 -0.0998341 0)
(-0.178569 -0.119213 0)
(-0.178128 -0.137803 0)
(-0.177518 -0.155549 0)
(-0.176884 -0.172473 0)
(-0.17641 -0.188689 0)
(-0.176314 -0.204429 0)
(-0.176833 -0.220042 0)
(-0.178192 -0.235985 0)
(-0.18057 -0.252782 0)
(-0.184037 -0.270949 0)
(-0.188499 -0.290877 0)
(-0.19363 -0.31268 0)
(-0.198827 -0.336027 0)
(-0.20319 -0.359973 0)
(-0.205557 -0.382829 0)
(-0.204593 -0.402129 0)
(-0.198968 -0.414739 0)
(-0.187604 -0.417186 0)
(-0.169987 -0.406248 0)
(-0.146486 -0.379808 0)
(-0.118569 -0.337802 0)
(-0.088748 -0.282885 0)
(-0.060126 -0.220293 0)
(-0.0355941 -0.15663 0)
(-0.0170384 -0.0980913 0)
(-0.00521049 -0.0491236 0)
(-0.000510376 -0.0121085 0)
(-0.16106 -0.0583161 0)
(-0.161852 -0.0793144 0)
(-0.162259 -0.0997479 0)
(-0.162298 -0.119458 0)
(-0.162015 -0.138306 0)
(-0.161494 -0.156196 0)
(-0.160859 -0.173106 0)
(-0.160279 -0.18911 0)
(-0.159966 -0.204405 0)
(-0.160162 -0.219328 0)
(-0.161125 -0.234349 0)
(-0.163087 -0.250057 0)
(-0.166211 -0.267085 0)
(-0.170522 -0.286013 0)
(-0.175835 -0.307205 0)
(-0.181695 -0.330625 0)
(-0.187328 -0.355631 0)
(-0.19165 -0.380793 0)
(-0.193322 -0.403787 0)
(-0.190899 -0.421423 0)
(-0.183057 -0.429886 0)
(-0.168912 -0.425271 0)
(-0.14838 -0.404456 0)
(-0.122491 -0.366212 0)
(-0.0934898 -0.312227 0)
(-0.0645223 -0.247391 0)
(-0.0388514 -0.178823 0)
(-0.0188959 -0.11385 0)
(-0.00588495 -0.0581182 0)
(-0.000605109 -0.0148362 0)
(-0.143392 -0.0571985 0)
(-0.144478 -0.0785768 0)
(-0.145184 -0.0993937 0)
(-0.145514 -0.119465 0)
(-0.1455 -0.138618 0)
(-0.145204 -0.15672 0)
(-0.14473 -0.173706 0)
(-0.144223 -0.189604 0)
(-0.143874 -0.204571 0)
(-0.143919 -0.21891 0)
(-0.144619 -0.233087 0)
(-0.146244 -0.247719 0)
(-0.149019 -0.26353 0)
(-0.15307 -0.281253 0)
(-0.158344 -0.301485 0)
(-0.164534 -0.324481 0)
(-0.171015 -0.349929 0)
(-0.176815 -0.376711 0)
(-0.180651 -0.402737 0)
(-0.181029 -0.424877 0)
(-0.176453 -0.439111 0)
(-0.16573 -0.440977 0)
(-0.148349 -0.426409 0)
(-0.124877 -0.392954 0)
(-0.0971962 -0.3411 0)
(-0.0683588 -0.275059 0)
(-0.041888 -0.202178 0)
(-0.020707 -0.130843 0)
(-0.00656659 -0.0680175 0)
(-0.000705822 -0.0179086 0)
(-0.124887 -0.0557855 0)
(-0.126279 -0.0775233 0)
(-0.127322 -0.0987116 0)
(-0.128007 -0.119144 0)
(-0.128354 -0.138621 0)
(-0.128407 -0.156975 0)
(-0.128245 -0.174102 0)
(-0.127986 -0.189985 0)
(-0.127795 -0.204734 0)
(-0.127885 -0.21861 0)
(-0.128507 -0.232054 0)
(-0.12994 -0.245686 0)
(-0.13245 -0.260283 0)
(-0.136239 -0.276701 0)
(-0.141366 -0.295736 0)
(-0.147665 -0.317922 0)
(-0.154665 -0.343279 0)
(-0.161536 -0.371045 0)
(-0.167089 -0.399428 0)
(-0.169846 -0.425469 0)
(-0.168208 -0.445077 0)
(-0.16074 -0.453371 0)
(-0.146555 -0.445446 0)
(-0.125757 -0.417626 0)
(-0.0998066 -0.369037 0)
(-0.0715435 -0.30289 0)
(-0.0446286 -0.226428 0)
(-0.0224302 -0.148942 0)
(-0.00724174 -0.078785 0)
(-0.000810899 -0.0213273 0)
(-0.105475 -0.0540811 0)
(-0.107175 -0.0761365 0)
(-0.108575 -0.0976599 0)
(-0.109662 -0.118427 0)
(-0.110443 -0.138217 0)
(-0.110946 -0.156833 0)
(-0.111226 -0.174136 0)
(-0.111374 -0.190069 0)
(-0.111525 -0.204693 0)
(-0.111859 -0.218224 0)
(-0.112606 -0.231061 0)
(-0.114033 -0.243806 0)
(-0.116425 -0.257259 0)
(-0.12003 -0.27236 0)
(-0.124998 -0.290067 0)
(-0.131287 -0.311167 0)
(-0.138578 -0.336007 0)
(-0.146193 -0.364192 0)
(-0.153071 -0.394288 0)
(-0.157797 -0.423593 0)
(-0.158736 -0.448072 0)
(-0.15428 -0.46257 0)
(-0.143222 -0.461476 0)
(-0.125235 -0.439942 0)
(-0.101323 -0.395638 0)
(-0.0740239 -0.330492 0)
(-0.0470147 -0.251288 0)
(-0.0240285 -0.167994 0)
(-0.00789679 -0.0903653 0)
(-0.000918472 -0.0250869 0)
(-0.0851689 -0.0520974 0)
(-0.0871699 -0.0744104 0)
(-0.088939 -0.096212 0)
(-0.0904585 -0.117265 0)
(-0.091726 -0.13733 0)
(-0.0927554 -0.15619 0)
(-0.0935825 -0.173676 0)
(-0.0942722 -0.189695 0)
(-0.0949261 -0.204265 0)
(-0.0956904 -0.217551 0)
(-0.0967615 -0.229906 0)
(-0.0983838 -0.241897 0)
(-0.100835 -0.254317 0)
(-0.10439 -0.268155 0)
(-0.109261 -0.284496 0)
(-0.115509 -0.304341 0)
(-0.122953 -0.328341 0)
(-0.131071 -0.356476 0)
(-0.138948 -0.387698 0)
(-0.14527 -0.419638 0)
(-0.148422 -0.448423 0)
(-0.146689 -0.468774 0)
(-0.138612 -0.474516 0)
(-0.123467 -0.459727 0)
(-0.101803 -0.420585 0)
(-0.0757884 -0.357513 0)
(-0.0490096 -0.276473 0)
(-0.0254721 -0.187828 0)
(-0.0085193 -0.102687 0)
(-0.00102655 -0.0291751 0)
(-0.0640547 -0.0498506 0)
(-0.0663467 -0.0723472 0)
(-0.0684873 -0.0943538 0)
(-0.0704567 -0.115623 0)
(-0.072246 -0.135906 0)
(-0.0738582 -0.154968 0)
(-0.0753117 -0.172617 0)
(-0.0766476 -0.18873 0)
(-0.0779374 -0.203286 0)
(-0.0792915 -0.216407 0)
(-0.0808684 -0.228391 0)
(-0.0828787 -0.239761 0)
(-0.0855789 -0.251283 0)
(-0.0892468 -0.263963 0)
(-0.0941309 -0.278972 0)
(-0.100373 -0.297485 0)
(-0.10791 -0.320429 0)
(-0.116369 -0.348141 0)
(-0.124988 -0.379981 0)
(-0.132586 -0.41396 0)
(-0.137607 -0.446468 0)
(-0.138293 -0.47223 0)
(-0.132994 -0.484664 0)
(-0.120645 -0.476902 0)
(-0.101348 -0.443647 0)
(-0.0768646 -0.38365 0)
(-0.0506006 -0.301713 0)
(-0.0267412 -0.208266 0)
(-0.00909904 -0.115666 0)
(-0.00113319 -0.0335741 0)
(-0.0422753 -0.0473574 0)
(-0.044847 -0.0699537 0)
(-0.0473567 -0.0920802 0)
(-0.0497846 -0.113484 0)
(-0.0521172 -0.13391 0)
(-0.054349 -0.153111 0)
(-0.0564844 -0.170879 0)
(-0.0585441 -0.187069 0)
(-0.0605719 -0.201627 0)
(-0.062644 -0.214634 0)
(-0.0648797 -0.226339 0)
(-0.0674503 -0.237211 0)
(-0.0705797 -0.247978 0)
(-0.0745307 -0.259633 0)
(-0.0795664 -0.273396 0)
(-0.0858825 -0.290579 0)
(-0.0935124 -0.312343 0)
(-0.102218 -0.339359 0)
(-0.111393 -0.371393 0)
(-0.119999 -0.406873 0)
(-0.12658 -0.442528 0)
(-0.129384 -0.473207 0)
(-0.126633 -0.492076 0)
(-0.116972 -0.491466 0)
(-0.100089 -0.46467 0)
(-0.0773125 -0.408659 0)
(-0.051799 -0.326766 0)
(-0.0278279 -0.229135 0)
(-0.00962882 -0.129215 0)
(-0.00123662 -0.0382614 0)
(-0.0200158 -0.0446332 0)
(-0.0228566 -0.0672391 0)
(-0.0257301 -0.089392 0)
(-0.0286184 -0.110839 0)
(-0.0315054 -0.13132 0)
(-0.034379 -0.150584 0)
(-0.0372322 -0.16841 0)
(-0.0400681 -0.184637 0)
(-0.0429066 -0.199189 0)
(-0.0457928 -0.212108 0)
(-0.0488077 -0.223601 0)
(-0.0520813 -0.234083 0)
(-0.0557984 -0.244229 0)
(-0.0601938 -0.255006 0)
(-0.0655261 -0.267648 0)
(-0.0720214 -0.28356 0)
(-0.0797867 -0.304099 0)
(-0.0887001 -0.330238 0)
(-0.0983006 -0.362132 0)
(-0.107703 -0.398645 0)
(-0.115577 -0.436899 0)
(-0.120217 -0.471978 0)
(-0.119771 -0.496942 0)
(-0.112655 -0.503479 0)
(-0.0981725 -0.483573 0)
(-0.0772164 -0.432355 0)
(-0.052638 -0.351425 0)
(-0.0287362 -0.250277 0)
(-0.0101053 -0.143243 0)
(-0.00133544 -0.0432118 0)
(0.00250656 -0.0416875 0)
(-0.000594276 -0.0642071 0)
(-0.00382374 -0.0862902 0)
(-0.00716886 -0.107684 0)
(-0.0106137 -0.128126 0)
(-0.0141399 -0.147365 0)
(-0.0177308 -0.165175 0)
(-0.0213742 -0.181386 0)
(-0.0250697 -0.195901 0)
(-0.0288354 -0.208738 0)
(-0.0327166 -0.220063 0)
(-0.0368025 -0.23024 0)
(-0.0412365 -0.239889 0)
(-0.0462166 -0.249932 0)
(-0.0519823 -0.261596 0)
(-0.05877 -0.276342 0)
(-0.0667373 -0.295677 0)
(-0.0758577 -0.320835 0)
(-0.0858031 -0.35234 0)
(-0.0958417 -0.389489 0)
(-0.104781 -0.429844 0)
(-0.111001 -0.468806 0)
(-0.112624 -0.499468 0)
(-0.107886 -0.51304 0)
(-0.0957505 -0.500326 0)
(-0.0766758 -0.454608 0)
(-0.0531681 -0.375523 0)
(-0.0294823 -0.271551 0)
(-0.0105292 -0.157669 0)
(-0.00142873 -0.0483991 0)
(0.025063 -0.0385355 0)
(0.0217079 -0.0608694 0)
(0.0181277 -0.0827829 0)
(0.0143269 -0.104017 0)
(0.0103294 -0.124325 0)
(0.00614902 -0.143447 0)
(0.00181318 -0.161159 0)
(-0.00265138 -0.177286 0)
(-0.0072271 -0.191723 0)
(-0.0119104 -0.204464 0)
(-0.016713 -0.215644 0)
(-0.0216863 -0.225579 0)
(-0.0269329 -0.234837 0)
(-0.0326097 -0.244285 0)
(-0.0389265 -0.255121 0)
(-0.0461139 -0.26883 0)
(-0.0543595 -0.287029 0)
(-0.0637106 -0.311172 0)
(-0.0739563 -0.342114 0)
(-0.084511 -0.379578 0)
(-0.0943311 -0.421586 0)
(-0.101905 -0.463931 0)
(-0.105372 -0.499862 0)
(-0.102839 -0.520276 0)
(-0.0929687 -0.514944 0)
(-0.0757971 -0.475335 0)
(-0.0534531 -0.398934 0)
(-0.0300929 -0.292845 0)
(-0.0109057 -0.172419 0)
(-0.00151617 -0.0537989 0)
(0.0356229 -0.0998519 0)
(0.0310747 -0.119919 0)
(0.0262482 -0.13883 0)
(0.0211745 -0.156359 0)
(0.0158904 -0.17233 0)
(0.010429 -0.186636 0)
(0.00481614 -0.199255 0)
(-0.000933406 -0.210293 0)
(-0.00683685 -0.220033 0)
(-0.0129576 -0.228985 0)
(-0.0194109 -0.237962 0)
(-0.0263706 -0.248117 0)
(-0.0340491 -0.260934 0)
(-0.0426463 -0.2781 0)
(-0.0522637 -0.301245 0)
(-0.0627894 -0.331518 0)
(-0.0737737 -0.369045 0)
(-0.0843242 -0.412316 0)
(-0.0930568 -0.45757 0)
(-0.0981615 -0.498325 0)
(-0.0976615 -0.525323 0)
(-0.08996 -0.52747 0)
(-0.0746857 -0.49449 0)
(-0.0535637 -0.421569 0)
(-0.0306034 -0.314077 0)
(-0.0112441 -0.187439 0)
(-0.0015981 -0.05939 0)
(0.0564474 -0.095193 0)
(0.051364 -0.114922 0)
(0.0459067 -0.133526 0)
(0.0401119 -0.150785 0)
(0.0340256 -0.166528 0)
(0.0276943 -0.180644 0)
(0.021163 -0.193104 0)
(0.0144674 -0.203995 0)
(0.00762046 -0.213565 0)
(0.000596816 -0.22228 0)
(-0.00667942 -0.230893 0)
(-0.0143439 -0.240507 0)
(-0.0225822 -0.252578 0)
(-0.0315927 -0.268836 0)
(-0.0415129 -0.29104 0)
(-0.0523121 -0.320593 0)
(-0.0636635 -0.357991 0)
(-0.0748232 -0.402189 0)
(-0.084547 -0.449914 0)
(-0.0911041 -0.495044 0)
(-0.0924739 -0.528323 0)
(-0.0868394 -0.537967 0)
(-0.0734395 -0.512056 0)
(-0.0535731 -0.443369 0)
(-0.0310557 -0.335192 0)
(-0.0115576 -0.202693 0)
(-0.00167559 -0.0651569 0)
(0.0765255 -0.0900578 0)
(0.0709305 -0.109352 0)
(0.0648695 -0.127558 0)
(0.0583836 -0.144463 0)
(0.0515277 -0.159903 0)
(0.0443599 -0.173769 0)
(0.0369405 -0.186029 0)
(0.0293246 -0.196757 0)
(0.0215506 -0.206173 0)
(0.0136261 -0.214701 0)
(0.0055123 -0.223041 0)
(-0.00288779 -0.232237 0)
(-0.0117285 -0.243709 0)
(-0.0211958 -0.259191 0)
(-0.0314484 -0.280541 0)
(-0.0425195 -0.309365 0)
(-0.0541912 -0.346496 0)
(-0.0658619 -0.391338 0)
(-0.0764342 -0.441127 0)
(-0.084279 -0.490188 0)
(-0.0873674 -0.529411 0)
(-0.0836998 -0.546501 0)
(-0.0721445 -0.528032 0)
(-0.0535521 -0.464301 0)
(-0.0314957 -0.356165 0)
(-0.0118625 -0.218166 0)
(-0.00175044 -0.0710916 0)
(0.0955857 -0.0844739 0)
(0.0895131 -0.10324 0)
(0.0828869 -0.120961 0)
(0.0757535 -0.137431 0)
(0.0681756 -0.152496 0)
(0.0602215 -0.166053 0)
(0.0519645 -0.178071 0)
(0.0434763 -0.188613 0)
(0.034817 -0.197879 0)
(0.0260221 -0.206258 0)
(0.0170864 -0.214399 0)
(0.00794993 -0.223287 0)
(-0.00150796 -0.234293 0)
(-0.0114536 -0.249138 0)
(-0.0220556 -0.269734 0)
(-0.0333955 -0.297854 0)
(-0.045349 -0.334623 0)
(-0.057449 -0.379871 0)
(-0.0687475 -0.431354 0)
(-0.0777347 -0.483911 0)
(-0.0824046 -0.528711 0)
(-0.0806107 -0.553143 0)
(-0.0708705 -0.542425 0)
(-0.0535653 -0.484348 0)
(-0.0319709 -0.376995 0)
(-0.0121782 -0.233868 0)
(-0.00182513 -0.0771951 0)
(0.113363 -0.0784794 0)
(0.10686 -0.0966307 0)
(0.0997209 -0.113782 0)
(0.0919983 -0.129742 0)
(0.0837617 -0.144365 0)
(0.0750888 -0.157557 0)
(0.0660636 -0.169288 0)
(0.0567718 -0.179618 0)
(0.0472917 -0.188731 0)
(0.0376824 -0.196987 0)
(0.0279682 -0.204988 0)
(0.018123 -0.213664 0)
(0.00806004 -0.224327 0)
(-0.0023621 -0.238666 0)
(-0.0133141 -0.258618 0)
(-0.0249132 -0.28608 0)
(-0.037113 -0.322427 0)
(-0.0495717 -0.367881 0)
(-0.0614901 -0.42072 0)
(-0.0714914 -0.476346 0)
(-0.0776199 -0.526338 0)
(-0.0776167 -0.557955 0)
(-0.0696685 -0.555246 0)
(-0.0536674 -0.5035 0)
(-0.0325284 -0.397699 0)
(-0.0125261 -0.24983 0)
(-0.0019028 -0.0834786 0)
(0.129611 -0.0721264 0)
(0.122739 -0.0895804 0)
(0.115155 -0.106087 0)
(0.106917 -0.121465 0)
(0.0981016 -0.135584 0)
(0.088794 -0.148357 0)
(0.0790878 -0.15976 0)
(0.0690801 -0.169851 0)
(0.0588643 -0.178803 0)
(0.048519 -0.186951 0)
(0.0380941 -0.194859 0)
(0.0275937 -0.2034 0)
(0.0169632 -0.213827 0)
(0.00608804 -0.227783 0)
(-0.00519702 -0.247206 0)
(-0.0170347 -0.27407 0)
(-0.0294443 -0.309958 0)
(-0.0421977 -0.355449 0)
(-0.054642 -0.409332 0)
(-0.0655433 -0.467614 0)
(-0.073021 -0.522392 0)
(-0.0747368 -0.56099 0)
(-0.068569 -0.566494 0)
(-0.0539003 -0.521746 0)
(-0.0332119 -0.418307 0)
(-0.012929 -0.266108 0)
(-0.00198716 -0.0899647 0)
(0.144115 -0.0654821 0)
(0.136951 -0.0821624 0)
(0.129005 -0.0979527 0)
(0.120342 -0.112686 0)
(0.111043 -0.126243 0)
(0.101201 -0.138548 0)
(0.0909169 -0.149582 0)
(0.0802979 -0.159407 0)
(0.0694492 -0.168185 0)
(0.0584657 -0.176234 0)
(0.0474189 -0.184083 0)
(0.0363398 -0.192554 0)
(0.0252027 -0.202838 0)
(0.0139163 -0.216521 0)
(0.00233213 -0.23552 0)
(-0.00970932 -0.261852 0)
(-0.0222886 -0.297263 0)
(-0.0352767 -0.34265 0)
(-0.0481618 -0.397289 0)
(-0.0598603 -0.457818 0)
(-0.0685895 -0.516959 0)
(-0.0719644 -0.562287 0)
(-0.0675798 -0.576158 0)
(-0.0542904 -0.539066 0)
(-0.0340607 -0.438855 0)
(-0.0134114 -0.282778 0)
(-0.00208247 -0.096688 0)
(0.15671 -0.0586276 0)
(0.149344 -0.0744644 0)
(0.141134 -0.0894745 0)
(0.132148 -0.103505 0)
(0.122475 -0.116448 0)
(0.112212 -0.128239 0)
(0.101468 -0.138868 0)
(0.0903562 -0.148397 0)
(0.0789924 -0.156988 0)
(0.0674847 -0.16494 0)
(0.0559221 -0.172753 0)
(0.0443585 -0.181205 0)
(0.0327942 -0.191424 0)
(0.0211619 -0.204932 0)
(0.00932805 -0.223601 0)
(-0.00287577 -0.249468 0)
(-0.0155781 -0.284395 0)
(-0.0287414 -0.329553 0)
(-0.041988 -0.384678 0)
(-0.0543897 -0.447055 0)
(-0.0642825 -0.510114 0)
(-0.0692678 -0.561872 0)
(-0.0666848 -0.584209 0)
(-0.0548465 -0.55542 0)
(-0.035107 -0.459374 0)
(-0.0139981 -0.299933 0)
(-0.00219353 -0.103696 0)
(0.167296 -0.0516544 0)
(0.159828 -0.0665852 0)
(0.151459 -0.0807581 0)
(0.142265 -0.0940329 0)
(0.132337 -0.106315 0)
(0.121779 -0.117552 0)
(0.110702 -0.12774 0)
(0.0992275 -0.136947 0)
(0.0874781 -0.145332 0)
(0.0755725 -0.153184 0)
(0.0636141 -0.160978 0)
(0.0516756 -0.169449 0)
(0.0397797 -0.179664 0)
(0.0278811 -0.193078 0)
(0.0158611 -0.211502 0)
(0.0035474 -0.236964 0)
(-0.0092268 -0.271407 0)
(-0.022506 -0.316225 0)
(-0.0360394 -0.371583 0)
(-0.049057 -0.435409 0)
(-0.0600328 -0.50192 0)
(-0.0665895 -0.559757 0)
(-0.0658435 -0.590595 0)
(-0.0555571 -0.570742 0)
(-0.036374 -0.479882 0)
(-0.0147151 -0.317682 0)
(-0.00232582 -0.111047 0)
(0.175847 -0.0446597 0)
(0.16838 -0.0586312 0)
(0.159965 -0.0719174 0)
(0.150682 -0.0843918 0)
(0.140626 -0.0959726 0)
(0.129903 -0.106617 0)
(0.11863 -0.116333 0)
(0.10693 -0.125191 0)
(0.0949331 -0.133352 0)
(0.0827653 -0.141097 0)
(0.0705414 -0.148879 0)
(0.058349 -0.157394 0)
(0.0462293 -0.167653 0)
(0.0341562 -0.181036 0)
(0.0220249 -0.199288 0)
(0.00966165 -0.224397 0)
(-0.00312958 -0.258353 0)
(-0.0164652 -0.302731 0)
(-0.0302145 -0.35808 0)
(-0.0437661 -0.42296 0)
(-0.0557501 -0.492432 0)
(-0.0638467 -0.555937 0)
(-0.0649891 -0.595241 0)
(-0.0563886 -0.584935 0)
(-0.0378737 -0.500372 0)
(-0.0155892 -0.336144 0)
(-0.00248573 -0.118817 0)
(0.182418 -0.0377415 0)
(0.175054 -0.0507105 0)
(0.166706 -0.0630695 0)
(0.157456 -0.0747058 0)
(0.1474 -0.0855499 0)
(0.136647 -0.0955704 0)
(0.125316 -0.104784 0)
(0.113533 -0.11327 0)
(0.101432 -0.121188 0)
(0.0891438 -0.128814 0)
(0.0767919 -0.136585 0)
(0.0644747 -0.14516 0)
(0.0522475 -0.155495 0)
(0.0401002 -0.168896 0)
(0.0279401 -0.187029 0)
(0.0155937 -0.211828 0)
(0.00284266 -0.245292 0)
(-0.0104917 -0.289135 0)
(-0.0243899 -0.344243 0)
(-0.0383983 -0.409783 0)
(-0.0513199 -0.481701 0)
(-0.0609308 -0.550399 0)
(-0.064028 -0.598046 0)
(-0.0572828 -0.597855 0)
(-0.0396044 -0.520798 0)
(-0.0166495 -0.355441 0)
(-0.0026813 -0.127092 0)
(0.187145 -0.0309933 0)
(0.17998 -0.0429282 0)
(0.171806 -0.0543297 0)
(0.162707 -0.0650988 0)
(0.152779 -0.0751786 0)
(0.14213 -0.084549 0)
(0.130881 -0.0932365 0)
(0.119159 -0.101327 0)
(0.1071 -0.108984 0)
(0.0948379 -0.116479 0)
(0.0824999 -0.124233 0)
(0.070192 -0.132873 0)
(0.0579793 -0.143302 0)
(0.0458633 -0.156753 0)
(0.0337613 -0.174804 0)
(0.0215014 -0.199319 0)
(0.0088473 -0.23228 0)
(-0.00443155 -0.275497 0)
(-0.0184168 -0.330141 0)
(-0.0328104 -0.395948 0)
(-0.0466029 -0.469769 0)
(-0.0577068 -0.543116 0)
(-0.0628382 -0.598883 0)
(-0.0581542 -0.609315 0)
(-0.041548 -0.541066 0)
(-0.0179285 -0.375693 0)
(-0.00292344 -0.135977 0)
(0.190237 -0.0244997 0)
(0.18336 -0.0353826 0)
(0.175462 -0.045808 0)
(0.166626 -0.0556912 0)
(0.156948 -0.0649878 0)
(0.146536 -0.0736892 0)
(0.135508 -0.0818316 0)
(0.123992 -0.0895085 0)
(0.112122 -0.0968873 0)
(0.100033 -0.104236 0)
(0.0878527 -0.111962 0)
(0.0756906 -0.120663 0)
(0.0636168 -0.13119 0)
(0.05164 -0.144703 0)
(0.0396847 -0.162691 0)
(0.0275805 -0.186935 0)
(0.015077 -0.219372 0)
(0.00190204 -0.261871 0)
(-0.0121163 -0.315835 0)
(-0.026831 -0.38152 0)
(-0.0414323 -0.456676 0)
(-0.0540109 -0.534053 0)
(-0.0612673 -0.597599 0)
(-0.0588872 -0.619071 0)
(-0.0436661 -0.561013 0)
(-0.0194644 -0.397004 0)
(-0.00322822 -0.145599 0)
(0.191977 -0.0183357 0)
(0.185466 -0.0281633 0)
(0.177938 -0.0376073 0)
(0.169473 -0.0465978 0)
(0.160164 -0.0551025 0)
(0.150116 -0.0631246 0)
(0.139446 -0.0707101 0)
(0.128279 -0.0779599 0)
(0.116745 -0.0850452 0)
(0.104976 -0.0922316 0)
(0.0930986 -0.0999135 0)
(0.0812191 -0.108661 0)
(0.0694086 -0.119276 0)
(0.0576785 -0.132846 0)
(0.0459569 -0.15077 0)
(0.0340742 -0.174734 0)
(0.02177 -0.206616 0)
(0.0087381 -0.248303 0)
(-0.00527137 -0.30138 0)
(-0.0202539 -0.366557 0)
(-0.0356092 -0.44246 0)
(-0.0496475 -0.523168 0)
(-0.0591293 -0.594014 0)
(-0.0593324 -0.626822 0)
(-0.0458957 -0.580392 0)
(-0.0213028 -0.419446 0)
(-0.00362031 -0.156113 0)
(0.192713 -0.0125682 0)
(0.186641 -0.0213526 0)
(0.179571 -0.0298245 0)
(0.171578 -0.0379283 0)
(0.162753 -0.0456443 0)
(0.153196 -0.0529867 0)
(0.14302 -0.0600112 0)
(0.132344 -0.0668255 0)
(0.121292 -0.0736045 0)
(0.109991 -0.0806111 0)
(0.0985583 -0.0882276 0)
(0.0870966 -0.0969972 0)
(0.0756717 -0.107675 0)
(0.0642926 -0.121278 0)
(0.0528876 -0.139113 0)
(0.0412865 -0.162771 0)
(0.0292213 -0.194051 0)
(0.016359 -0.234829 0)
(0.00238461 -0.286816 0)
(-0.0128286 -0.351106 0)
(-0.0288947 -0.427148 0)
(-0.044384 -0.510411 0)
(-0.0562003 -0.587926 0)
(-0.0593007 -0.632198 0)
(-0.0481435 -0.598857 0)
(-0.0234971 -0.443041 0)
(-0.00413784 -0.167709 0)
(0.192871 -0.00725893 0)
(0.187309 -0.0150286 0)
(0.180783 -0.0225528 0)
(0.173363 -0.02979 0)
(0.165136 -0.0367327 0)
(0.156195 -0.0434055 0)
(0.146647 -0.0498728 0)
(0.136603 -0.0562488 0)
(0.126178 -0.0627108 0)
(0.115488 -0.0695185 0)
(0.104641 -0.077042 0)
(0.0937283 -0.0857987 0)
(0.0828065 -0.0964984 0)
(0.0718777 -0.110089 0)
(0.0608657 -0.127791 0)
(0.0495977 -0.151091 0)
(0.0377995 -0.181704 0)
(0.0251177 -0.221465 0)
(0.0111838 -0.272163 0)
(-0.00424654 -0.335198 0)
(-0.0209997 -0.41076 0)
(-0.037941 -0.495725 0)
(-0.05221 -0.579103 0)
(-0.0585556 -0.634762 0)
(-0.0502762 -0.615934 0)
(-0.0261048 -0.467728 0)
(-0.004838 -0.180633 0)
(0.192975 -0.00246881 0)
(0.187998 -0.00926904 0)
(0.182105 -0.0158855 0)
(0.175361 -0.0222902 0)
(0.167846 -0.028487 0)
(0.159648 -0.0345103 0)
(0.150861 -0.0404322 0)
(0.141587 -0.0463716 0)
(0.13193 -0.0525071 0)
(0.121991 -0.0590943 0)
(0.111865 -0.0664904 0)
(0.101627 -0.0751873 0)
(0.0913186 -0.0858512 0)
(0.0809311 -0.0993652 0)
(0.0703795 -0.116861 0)
(0.0594854 -0.139729 0)
(0.0479679 -0.169586 0)
(0.0354578 -0.20821 0)
(0.0215437 -0.257418 0)
(0.00587915 -0.318838 0)
(-0.0115668 -0.393295 0)
(-0.0299803 -0.47904 0)
(-0.0468306 -0.567293 0)
(-0.0568016 -0.633999 0)
(-0.0521087 -0.631008 0)
(-0.0291761 -0.493319 0)
(-0.00580257 -0.195192 0)
(0.193699 0.00172772 0)
(0.189386 -0.00416013 0)
(0.184221 -0.00992103 0)
(0.178261 -0.015539 0)
(0.171575 -0.021028 0)
(0.164243 -0.0264304 0)
(0.156348 -0.0318243 0)
(0.147979 -0.037332 0)
(0.139224 -0.0431314 0)
(0.130169 -0.0494726 0)
(0.120889 -0.0566989 0)
(0.11144 -0.0652766 0)
(0.101845 -0.07583 0)
(0.0920793 -0.0891794 0)
(0.0820439 -0.106374 0)
(0.0715508 -0.128703 0)
(0.0603108 -0.157689 0)
(0.0479402 -0.195033 0)
(0.0339933 -0.242544 0)
(0.0180393 -0.301995 0)
(-0.000146965 -0.374725 0)
(-0.0200842 -0.460263 0)
(-0.0396603 -0.55221 0)
(-0.0536676 -0.629315 0)
(-0.0533837 -0.643294 0)
(-0.0327303 -0.519453 0)
(-0.00714044 -0.21177 0)
(0.195927 0.00524977 0)
(0.19237 0.00020564 0)
(0.188032 -0.00476224 0)
(0.182962 -0.00964892 0)
(0.17722 -0.0144759 0)
(0.170874 -0.0192918 0)
(0.163995 -0.0241789 0)
(0.156655 -0.0292606 0)
(0.148925 -0.0347125 0)
(0.140872 -0.0407767 0)
(0.132548 -0.0477818 0)
(0.123987 -0.0561679 0)
(0.115191 -0.0665183 0)
(0.106112 -0.0795932 0)
(0.0966325 -0.0963612 0)
(0.0865509 -0.118018 0)
(0.0755649 -0.145983 0)
(0.0632752 -0.181876 0)
(0.0492061 -0.227463 0)
(0.032857 -0.284593 0)
(0.0138335 -0.354986 0)
(-0.00772346 -0.439275 0)
(-0.0302012 -0.533539 0)
(-0.0486863 -0.620037 0)
(-0.0537446 -0.651823 0)
(-0.036716 -0.54553 0)
(-0.00898176 -0.230823 0)
(0.200852 0.00801198 0)
(0.198145 0.00373272 0)
(0.194732 -0.000512873 0)
(0.190654 -0.00472958 0)
(0.185961 -0.00894482 0)
(0.180708 -0.0132113 0)
(0.17495 -0.0176133 0)
(0.168744 -0.0222732 0)
(0.16214 -0.0273618 0)
(0.155183 -0.0331118 0)
(0.147903 -0.0398346 0)
(0.140308 -0.0479437 0)
(0.132372 -0.0579812 0)
(0.124021 -0.0706493 0)
(0.115117 -0.0868394 0)
(0.105436 -0.107654 0)
(0.0946567 -0.134413 0)
(0.0823589 -0.168643 0)
(0.0680357 -0.212049 0)
(0.051127 -0.266495 0)
(0.0311123 -0.333946 0)
(0.0077831 -0.415939 0)
(-0.0178271 -0.510933 0)
(-0.0412679 -0.605407 0)
(-0.0526964 -0.655418 0)
(-0.0409524 -0.570643 0)
(-0.0114547 -0.252856 0)
(0.210081 0.00992155 0)
(0.208307 0.00632664 0)
(0.205902 0.00273071 0)
(0.202899 -0.000877554 0)
(0.199337 -0.00453137 0)
(0.195255 -0.00828442 0)
(0.190695 -0.0122206 0)
(0.185693 -0.016459 0)
(0.180281 -0.0211635 0)
(0.174481 -0.0265545 0)
(0.168296 -0.0329245 0)
(0.161708 -0.0406584 0)
(0.15466 -0.050257 0)
(0.147052 -0.0623649 0)
(0.138713 -0.0777981 0)
(0.129393 -0.0975675 0)
(0.118744 -0.122893 0)
(0.106315 -0.155202 0)
(0.0915643 -0.196123 0)
(0.0738735 -0.247488 0)
(0.052614 -0.311388 0)
(0.0273022 -0.390043 0)
(-0.00171677 -0.484053 0)
(-0.0306516 -0.584572 0)
(-0.0495594 -0.652662 0)
(-0.0450619 -0.593495 0)
(-0.014635 -0.278359 0)
(0.225738 0.0109037 0)
(0.22495 0.00791477 0)
(0.223603 0.00489842 0)
(0.221717 0.00183936 0)
(0.219323 -0.00129766 0)
(0.216445 -0.00456875 0)
(0.213108 -0.00805374 0)
(0.209332 -0.0118656 0)
(0.205127 -0.0161586 0)
(0.200491 -0.0211385 0)
(0.195403 -0.0270765 0)
(0.189814 -0.0343263 0)
(0.183639 -0.0433459 0)
(0.176741 -0.0547213 0)
(0.168918 -0.0691931 0)
(0.159883 -0.0876804 0)
(0.149253 -0.1113 0)
(0.136535 -0.141377 0)
(0.121139 -0.179448 0)
(0.102384 -0.227288 0)
(0.0795465 -0.287017 0)
(0.0519217 -0.361289 0)
(0.019199 -0.45253 0)
(-0.0157986 -0.556577 0)
(-0.0434115 -0.641876 0)
(-0.048403 -0.612284 0)
(-0.0184619 -0.307645 0)
(0.250538 0.0109241 0)
(0.25073 0.00846938 0)
(0.250428 0.0059697 0)
(0.249641 0.00340691 0)
(0.248385 0.000746714 0)
(0.246673 -0.00206593 0)
(0.244516 -0.00510649 0)
(0.241915 -0.00847964 0)
(0.23886 -0.0123273 0)
(0.235327 -0.0168377 0)
(0.231269 -0.0222573 0)
(0.226608 -0.028906 0)
(0.221226 -0.0371955 0)
(0.214952 -0.0476513 0)
(0.207544 -0.0609358 0)
(0.198674 -0.0778734 0)
(0.187911 -0.0994736 0)
(0.174709 -0.126949 0)
(0.158414 -0.161737 0)
(0.138263 -0.20553 0)
(0.113426 -0.260422 0)
(0.083012 -0.329268 0)
(0.0463364 -0.415877 0)
(0.0046892 -0.520706 0)
(-0.0329686 -0.621137 0)
(-0.0499781 -0.624574 0)
(-0.0226148 -0.340597 0)
(0.287759 0.0100176 0)
(0.288844 0.00803533 0)
(0.289487 0.0059994 0)
(0.289687 0.0038908 0)
(0.289451 0.00167588 0)
(0.288778 -0.000694333 0)
(0.287665 -0.00329007 0)
(0.286098 -0.00620599 0)
(0.284048 -0.00956909 0)
(0.281469 -0.0135469 0)
(0.278289 -0.0183578 0)
(0.274404 -0.0242839 0)
(0.269664 -0.0316869 0)
(0.263858 -0.0410268 0)
(0.256706 -0.0528836 0)
(0.247829 -0.0679808 0)
(0.236744 -0.0872124 0)
(0.222836 -0.111667 0)
(0.205371 -0.142666 0)
(0.183482 -0.181806 0)
(0.156225 -0.231114 0)
(0.122548 -0.293458 0)
(0.081367 -0.373469 0)
(0.0326331 -0.475958 0)
(-0.0161353 -0.588277 0)
(-0.048284 -0.627285 0)
(-0.0263624 -0.376508 0)
(0.341063 0.00831581 0)
(0.342844 0.00675651 0)
(0.344223 0.00514288 0)
(0.345192 0.0034567 0)
(0.345747 0.00166729 0)
(0.345879 -0.000269763 0)
(0.34557 -0.00241498 0)
(0.344792 -0.00485092 0)
(0.343501 -0.00768748 0)
(0.341631 -0.0110686 0)
(0.339088 -0.015181 0)
(0.335741 -0.0202646 0)
(0.33141 -0.0266264 0)
(0.325851 -0.0346551 0)
(0.318738 -0.0448414 0)
(0.309645 -0.0577986 0)
(0.298026 -0.0742927 0)
(0.283191 -0.0952706 0)
(0.264309 -0.121916 0)
(0.240382 -0.155705 0)
(0.210327 -0.198589 0)
(0.172885 -0.253365 0)
(0.126681 -0.325003 0)
(0.0706641 -0.421495 0)
(0.00989621 -0.541435 0)
(-0.0412061 -0.616994 0)
(-0.0283595 -0.414227 0)
(0.414039 0.00606888 0)
(0.4162 0.0048946 0)
(0.417991 0.00367211 0)
(0.419396 0.00238481 0)
(0.420404 0.00100643 0)
(0.420997 -0.000500594 0)
(0.421149 -0.00218565 0)
(0.420818 -0.00411761 0)
(0.419946 -0.00638707 0)
(0.418452 -0.00911148 0)
(0.416223 -0.0124425 0)
(0.413107 -0.0165741 0)
(0.408896 -0.0217533 0)
(0.403314 -0.0282913 0)
(0.396002 -0.0365818 0)
(0.386481 -0.0471158 0)
(0.374154 -0.0605151 0)
(0.358241 -0.077558 0)
(0.337819 -0.099256 0)
(0.311719 -0.126919 0)
(0.278699 -0.162396 0)
(0.237201 -0.208391 0)
(0.185725 -0.269846 0)
(0.122226 -0.356505 0)
(0.0491248 -0.478594 0)
(-0.0253974 -0.590054 0)
(-0.0260547 -0.451388 0)
(0.509411 0.0036491 0)
(0.511532 0.00282961 0)
(0.51331 0.00197308 0)
(0.514726 0.00106437 0)
(0.515761 8.3695e-05 0)
(0.516396 -0.000994721 0)
(0.516594 -0.00221179 0)
(0.516305 -0.00362115 0)
(0.515461 -0.00529168 0)
(0.513969 -0.00731194 0)
(0.511704 -0.00979592 0)
(0.508494 -0.012888 0)
(0.504116 -0.0167718 0)
(0.49827 -0.0216761 0)
(0.490573 -0.0278909 0)
(0.480511 -0.0357743 0)
(0.467452 -0.0457877 0)
(0.450539 -0.0585073 0)
(0.428779 -0.074724 0)
(0.400797 -0.0954906 0)
(0.365192 -0.122459 0)
(0.3199 -0.158154 0)
(0.263361 -0.207412 0)
(0.192401 -0.280342 0)
(0.107217 -0.397234 0)
(0.00474959 -0.540542 0)
(-0.0137201 -0.480059 0)
(0.6279 0.00150919 0)
(0.629514 0.00101705 0)
(0.630817 0.000498373 0)
(0.631793 -5.15664e-05 0)
(0.632425 -0.000647815 0)
(0.632686 -0.00130996 0)
(0.632533 -0.00206656 0)
(0.631914 -0.00295326 0)
(0.630756 -0.00401583 0)
(0.62896 -0.00531275 0)
(0.626395 -0.00691901 0)
(0.622883 -0.00892823 0)
(0.618197 -0.0114594 0)
(0.612026 -0.0146575 0)
(0.603993 -0.0187079 0)
(0.593568 -0.0238322 0)
(0.58014 -0.030325 0)
(0.562807 -0.0385392 0)
(0.540611 -0.0490005 0)
(0.511971 -0.0623918 0)
(0.475459 -0.0799715 0)
(0.428191 -0.103723 0)
(0.368498 -0.13815 0)
(0.290829 -0.192387 0)
(0.194481 -0.293068 0)
(0.0613735 -0.454236 0)
(0.0215349 -0.478138 0)
(0.766977 9.62802e-05 0)