/*--------------------------------*- C++ -*----------------------------------*\
  =========                 |
  \\      /  F ield         | OpenFOAM: The Open Source CFD Toolbox
   \\    /   O peration     | Website:  https://openfoam.org
    \\  /    A nd           | Version:  9
     \\/     M anipulation  |
\*---------------------------------------------------------------------------*/
FoamFile
{
    format      ascii;
    class       volScalarField;
    location    "0.5";
    object      p;
}
// * * * * * * * * * * * * * * * * * * * * * * * * * * * * * * * * * * * * * //

dimensions      [0 2 -2 0 0 0 0];

internalField   nonuniform List<scalar> 
1250
(
-0.0103821
-0.0105604
-0.0107584
-0.0109782
-0.0112221
-0.0114924
-0.0117921
-0.0121241
-0.0124923
-0.0129009
-0.0133548
-0.0138598
-0.0144228
-0.0150518
-0.0157564
-0.0165483
-0.0174418
-0.0184538
-0.00932652
-0.00935803
-0.009381
-0.00939958
-0.00941509
-0.00942728
-0.00943651
-0.00944354
-0.00944938
-0.0094551
-0.00946187
-0.00947083
-0.00948309
-0.00949972
-0.0095217
-0.00954997
-0.00958543
-0.00962893
-0.00968132
-0.00974344
-0.00981614
-0.00990032
-0.00999694
-0.010107
-0.0102317
-0.0103723
-0.0105301
-0.0107062
-0.0109024
-0.0111207
-0.0113633
-0.0116324
-0.011931
-0.012262
-0.012629
-0.0130361
-0.0134882
-0.0139906
-0.01455
-0.015174
-0.0158716
-0.0166535
-0.0175331
-0.0185259
-0.00956108
-0.00959546
-0.00961987
-0.00963881
-0.00965366
-0.00966411
-0.00967053
-0.0096738
-0.00967504
-0.00967549
-0.00967648
-0.00967929
-0.00968519
-0.00969536
-0.00971089
-0.00973282
-0.0097621
-0.00979965
-0.00984636
-0.00990308
-0.0099707
-0.0100501
-0.0101423
-0.0102483
-0.0103691
-0.0105061
-0.0106604
-0.0108333
-0.0110266
-0.0112423
-0.0114823
-0.0117491
-0.0120452
-0.0123736
-0.0127378
-0.0131417
-0.01359
-0.0140878
-0.0146413
-0.0152577
-0.0159455
-0.0167145
-0.0175768
-0.0185469
-0.00979765
-0.00983548
-0.00986157
-0.00988087
-0.00989485
-0.00990314
-0.00990615
-0.00990489
-0.00990065
-0.00989485
-0.00988901
-0.00988461
-0.00988305
-0.00988567
-0.00989369
-0.00990821
-0.00993029
-0.00996089
-0.0100009
-0.0100513
-0.0101129
-0.0101866
-0.0102734
-0.0103743
-0.0104904
-0.0106228
-0.0107726
-0.0109415
-0.0111311
-0.0113431
-0.0115795
-0.0118426
-0.012135
-0.0124595
-0.0128194
-0.0132186
-0.0136613
-0.0141525
-0.0146981
-0.0153048
-0.0159803
-0.0167338
-0.0175764
-0.0185212
-0.010037
-0.010079
-0.0101071
-0.0101267
-0.0101396
-0.0101452
-0.0101441
-0.0101375
-0.0101268
-0.0101136
-0.0100998
-0.010087
-0.0100768
-0.0100707
-0.0100701
-0.0100761
-0.0100899
-0.0101125
-0.0101449
-0.0101879
-0.0102426
-0.0103097
-0.0103903
-0.0104852
-0.0105957
-0.0107227
-0.0108675
-0.0110315
-0.0112164
-0.0114238
-0.0116556
-0.011914
-0.0122015
-0.0125209
-0.0128753
-0.0132683
-0.0137041
-0.0141872
-0.0147233
-0.0153184
-0.0159799
-0.016716
-0.0175369
-0.0184546
-0.0102801
-0.010327
-0.0103575
-0.0103775
-0.010389
-0.0103915
-0.0103855
-0.0103724
-0.0103541
-0.0103324
-0.0103093
-0.0102868
-0.0102667
-0.0102507
-0.0102401
-0.0102365
-0.0102409
-0.0102545
-0.0102783
-0.0103131
-0.0103598
-0.0104195
-0.010493
-0.0105812
-0.0106852
-0.010806
-0.010945
-0.0111033
-0.0112826
-0.0114845
-0.0117107
-0.0119636
-0.0122453
-0.0125585
-0.0129063
-0.013292
-0.0137196
-0.0141935
-0.0147186
-0.0153009
-0.0159469
-0.0166643
-0.0174622
-0.0183515
-0.010528
-0.010581
-0.0106142
-0.0106346
-0.0106444
-0.010643
-0.0106311
-0.0106105
-0.0105833
-0.0105516
-0.0105178
-0.0104842
-0.0104528
-0.0104254
-0.0104038
-0.0103893
-0.0103832
-0.0103867
-0.0104008
-0.0104264
-0.0104644
-0.0105158
-0.0105813
-0.010662
-0.0107588
-0.0108727
-0.011005
-0.0111569
-0.0113299
-0.0115254
-0.0117454
-0.0119918
-0.0122668
-0.012573
-0.0129133
-0.0132908
-0.0137092
-0.0141727
-0.014686
-0.0152543
-0.0158839
-0.0165817
-0.0173558
-0.0182161
-0.0107823
-0.0108424
-0.0108788
-0.0108996
-0.0109072
-0.0109011
-0.0108822
-0.0108527
-0.010815
-0.0107717
-0.0107257
-0.0106793
-0.0106351
-0.0105949
-0.0105608
-0.0105342
-0.0105164
-0.0105087
-0.0105122
-0.0105277
-0.0105561
-0.0105983
-0.0106552
-0.0107276
-0.0108165
-0.0109229
-0.0110478
-0.0111926
-0.0113585
-0.0115471
-0.01176
-0.0119993
-0.0122669
-0.0125654
-0.0128973
-0.0132659
-0.0136744
-0.0141268
-0.0146274
-0.0151812
-0.0157937
-0.0164713
-0.0172214
-0.0180527
-0.0110446
-0.0111132
-0.0111534
-0.0111745
-0.0111793
-0.0111674
-0.0111402
-0.0111001
-0.0110501
-0.0109934
-0.0109332
-0.0108723
-0.0108135
-0.0107591
-0.010711
-0.0106709
-0.0106403
-0.0106204
-0.0106122
-0.0106167
-0.0106347
-0.010667
-0.0107145
-0.010778
-0.0108584
-0.0109565
-0.0110735
-0.0112106
-0.0113689
-0.0115499
-0.0117553
-0.0119868
-0.0122465
-0.0125366
-0.0128598
-0.0132187
-0.0136168
-0.0140576
-0.0145451
-0.0150839
-0.0156792
-0.0163365
-0.0170627
-0.0178655
-0.0113172
-0.011396
-0.0114406
-0.0114617
-0.0114629
-0.011444
-0.0114066
-0.0113539
-0.0112895
-0.0112172
-0.0111408
-0.0110634
-0.0109882
-0.0109178
-0.0108542
-0.0107994
-0.0107547
-0.0107215
-0.0107007
-0.0106933
-0.0107001
-0.0107218
-0.0107593
-0.0108133
-0.0108846
-0.010974
-0.0110826
-0.0112114
-0.0113617
-0.0115347
-0.011732
-0.0119554
-0.0122067
-0.012488
-0.0128019
-0.0131509
-0.0135382
-0.013967
-0.0144412
-0.014965
-0.015543
-0.0161804
-0.0168832
-0.0176584
-0.0116028
-0.0116939
-0.0117435
-0.0117643
-0.0117609
-0.0117331
-0.0116834
-0.0116157
-0.0115344
-0.011444
-0.0113489
-0.0112528
-0.0111592
-0.011071
-0.0109904
-0.0109193
-0.0108593
-0.0108117
-0.0107774
-0.0107574
-0.0107523
-0.0107629
-0.0107898
-0.0108337
-0.0108954
-0.0109757
-0.0110755
-0.0111957
-0.0113375
-0.0115021
-0.0116911
-0.0119059
-0.0121485
-0.0124208
-0.0127251
-0.013064
-0.0134403
-0.0138572
-0.0143181
-0.014827
-0.015388
-0.016006
-0.0166862
-0.0174352
-0.0119048
-0.0120107
-0.012066
-0.0120861
-0.0120766
-0.0120378
-0.011973
-0.0118873
-0.011786
-0.0116746
-0.011558
-0.0114407
-0.0113265
-0.0112185
-0.0111192
-0.0110305
-0.0109541
-0.010891
-0.0108424
-0.0108089
-0.0107913
-0.0107901
-0.010806
-0.0108395
-0.0108913
-0.0109621
-0.0110527
-0.011164
-0.0112971
-0.0114531
-0.0116335
-0.0118396
-0.0120732
-0.0123363
-0.012631
-0.0129597
-0.0133251
-0.01373
-0.0141778
-0.0146722
-0.0152169
-0.0158162
-0.016475
-0.0171992
-0.0122275
-0.0123514
-0.0124133
-0.0124318
-0.0124141
-0.0123613
-0.0122781
-0.0121707
-0.0120457
-0.0119098
-0.0117686
-0.0116273
-0.0114901
-0.0113603
-0.0112405
-0.0111328
-0.0110386
-0.0109592
-0.0108954
-0.0108479
-0.0108172
-0.0108039
-0.0108083
-0.0108311
-0.0108727
-0.0109337
-0.011015
-0.0111172
-0.0112414
-0.0113887
-0.0115602
-0.0117575
-0.0119822
-0.0122361
-0.0125211
-0.0128397
-0.0131942
-0.0135875
-0.0140227
-0.014503
-0.015032
-0.0156137
-0.0162525
-0.0169536
-0.0125765
-0.0127223
-0.0127916
-0.0128072
-0.0127785
-0.012708
-0.0126018
-0.012468
-0.012315
-0.0121505
-0.0119811
-0.0118127
-0.0116498
-0.011496
-0.011354
-0.0112258
-0.0111128
-0.0110161
-0.0109365
-0.0108743
-0.0108302
-0.0108043
-0.0107971
-0.0108089
-0.0108401
-0.0108913
-0.0109631
-0.0110562
-0.0111714
-0.0113098
-0.0114726
-0.0116611
-0.0118768
-0.0121215
-0.0123971
-0.0127057
-0.0130497
-0.0134318
-0.0138547
-0.0143217
-0.014836
-0.0154012
-0.0160214
-0.0167014
-0.0129588
-0.0131316
-0.0132093
-0.0132199
-0.0131762
-0.0130827
-0.0129478
-0.012782
-0.0125955
-0.0123976
-0.0121959
-0.0119969
-0.0118054
-0.0116254
-0.0114593
-0.0113092
-0.0111764
-0.0110616
-0.0109655
-0.0108883
-0.0108304
-0.0107918
-0.0107727
-0.0107735
-0.0107943
-0.0108356
-0.0108979
-0.0109818
-0.0110881
-0.0112177
-0.0113718
-0.0115516
-0.0117585
-0.0119942
-0.0122605
-0.0125595
-0.0128934
-0.0132647
-0.0136761
-0.0141306
-0.0146312
-0.0151812
-0.0157844
-0.0164451
-0.013384
-0.0135905
-0.0136771
-0.0136794
-0.013615
-0.0134914
-0.0133204
-0.0131153
-0.0128889
-0.0126518
-0.0124131
-0.0121796
-0.0119566
-0.0117479
-0.0115561
-0.0113828
-0.0112291
-0.0110956
-0.0109825
-0.01089
-0.0108181
-0.0107666
-0.0107357
-0.0107254
-0.0107359
-0.0107674
-0.0108203
-0.0108951
-0.0109927
-0.0111137
-0.0112592
-0.0114305
-0.0116288
-0.0118558
-0.0121132
-0.0124029
-0.0127272
-0.0130884
-0.013489
-0.0139318
-0.0144198
-0.014956
-0.0155438
-0.0161874
-0.0138647
-0.0141135
-0.0142092
-0.0141979
-0.0141047
-0.0139414
-0.0137243
-0.0134709
-0.0131965
-0.0129138
-0.0126326
-0.0123605
-0.0121028
-0.011863
-0.0116437
-0.0114459
-0.0112706
-0.0111178
-0.0109875
-0.0108795
-0.0107935
-0.0107293
-0.0106867
-0.0106655
-0.0106657
-0.0106876
-0.0107313
-0.0107973
-0.0108863
-0.0109989
-0.0111362
-0.0112992
-0.0114893
-0.0117079
-0.0119568
-0.0122379
-0.0125531
-0.0129048
-0.0132955
-0.0137277
-0.0142043
-0.0147281
-0.0153022
-0.0159306
-0.0144184
-0.014721
-0.0148248
-0.0147915
-0.0146572
-0.0144409
-0.014165
-0.0138518
-0.0135198
-0.0131836
-0.012854
-0.0125387
-0.0122429
-0.0119698
-0.0117212
-0.011498
-0.0113003
-0.0111279
-0.0109802
-0.0108567
-0.0107569
-0.0106801
-0.0106259
-0.0105941
-0.0105844
-0.0105969
-0.0106318
-0.0106893
-0.01077
-0.0108746
-0.011004
-0.0111592
-0.0113415
-0.0115523
-0.0117932
-0.0120661
-0.0123731
-0.0127161
-0.0130978
-0.0135205
-0.0139869
-0.0144997
-0.0150619
-0.0156771
-0.01507
-0.0154415
-0.0155501
-0.0154809
-0.0152876
-0.0149997
-0.014648
-0.0142606
-0.0138595
-0.0134608
-0.0130761
-0.0127128
-0.0123755
-0.0120668
-0.0117876
-0.011538
-0.0113175
-0.0111253
-0.0109603
-0.0108215
-0.0107081
-0.010619
-0.0105537
-0.0105117
-0.0104925
-0.0104961
-0.0105225
-0.010572
-0.0106449
-0.0107419
-0.0108639
-0.0110118
-0.0111868
-0.0113904
-0.011624
-0.0118896
-0.012189
-0.0125243
-0.0128979
-0.0133123
-0.0137698
-0.0142733
-0.0148253
-0.0154294
-0.015856
-0.0163166
-0.0164215
-0.0162933
-0.0160141
-0.0156286
-0.0151787
-0.0146992
-0.0142151
-0.013744
-0.0132969
-0.0128806
-0.0124985
-0.0121519
-0.0118408
-0.0115642
-0.0113207
-0.0111088
-0.0109267
-0.010773
-0.0106464
-0.0105455
-0.0104696
-0.0104178
-0.0103897
-0.010385
-0.0104035
-0.0104455
-0.0105112
-0.0106013
-0.0107165
-0.0108578
-0.0110263
-0.0112234
-0.0114506
-0.0117097
-0.0120025
-0.0123312
-0.012698
-0.0131052
-0.0135553
-0.0140509
-0.0145946
-0.0151895
-0.0168331
-0.017408
-0.01749
-0.0172641
-0.0168581
-0.016339
-0.0157618
-0.0151679
-0.0145848
-0.0140298
-0.0135126
-0.0130381
-0.012608
-0.0122217
-0.0118777
-0.0115737
-0.0113072
-0.0110757
-0.0108769
-0.0107088
-0.0105696
-0.0104576
-0.0103717
-0.0103109
-0.0102745
-0.0102622
-0.0102736
-0.0103088
-0.0103682
-0.0104522
-0.0105616
-0.0106971
-0.0108601
-0.0110517
-0.0112735
-0.0115271
-0.0118146
-0.0121378
-0.0124991
-0.0129007
-0.013345
-0.0138344
-0.0143716
-0.0149593
-0.018094
-0.0188107
-0.0188278
-0.0184384
-0.0178438
-0.0171412
-0.0163991
-0.0156639
-0.0149631
-0.0143117
-0.0137163
-0.0131787
-0.0126975
-0.0122698
-0.0118921
-0.0115604
-0.011271
-0.0110205
-0.0108056
-0.0106238
-0.0104727
-0.0103504
-0.0102554
-0.0101865
-0.0101428
-0.0101237
-0.0101291
-0.0101587
-0.0102128
-0.0102918
-0.0103964
-0.0105275
-0.0106861
-0.0108735
-0.0110913
-0.011341
-0.0116245
-0.0119439
-0.0123012
-0.0126988
-0.013139
-0.0136242
-0.0141569
-0.0147395
-0.0197998
-0.0206749
-0.0205368
-0.0198711
-0.0189952
-0.0180409
-0.0170862
-0.0161777
-0.0153384
-0.0145772
-0.0138953
-0.0132894
-0.0127542
-0.0122837
-0.0118717
-0.0115124
-0.0112005
-0.0109315
-0.0107014
-0.0105069
-0.010345
-0.0102136
-0.0101108
-0.0100351
-0.00998549
-0.00996125
-0.00996195
-0.00998743
-0.0100378
-0.0101135
-0.0102151
-0.0103433
-0.0104994
-0.0106844
-0.0108999
-0.0111475
-0.011429
-0.0117464
-0.0121018
-0.0124974
-0.0129356
-0.0134186
-0.0139488
-0.0145286
-0.0222508
-0.0232461
-0.0227566
-0.0216219
-0.020328
-0.0190312
-0.0178052
-0.0166861
-0.0156848
-0.0147996
-0.0140226
-0.0133435
-0.0127518
-0.0122374
-0.011791
-0.0114047
-0.0110715
-0.0107856
-0.010542
-0.0103366
-0.0101661
-0.0100277
-0.00991927
-0.00983912
-0.00978596
-0.00975891
-0.00975741
-0.00978121
-0.00983035
-0.00990514
-0.0100061
-0.0101341
-0.01029
-0.0104751
-0.0106908
-0.0109388
-0.0112207
-0.0115386
-0.0118945
-0.0122906
-0.0127292
-0.0132124
-0.0137427
-0.0143221
-0.0260535
-0.0269334
-0.0256574
-0.0237309
-0.0218253
-0.0200695
-0.0185014
-0.0171289
-0.0159405
-0.0149167
-0.0140368
-0.0132812
-0.0126323
-0.0120751
-0.011597
-0.011187
-0.0108363
-0.0105377
-0.010285
-0.0100734
-0.00989886
-0.00975815
-0.00964875
-0.00956865
-0.00951639
-0.00949088
-0.00949143
-0.0095177
-0.00956963
-0.00964747
-0.00975169
-0.00988304
-0.0100425
-0.0102312
-0.0104506
-0.0107023
-0.0109879
-0.0113095
-0.011669
-0.0120686
-0.0125105
-0.0129969
-0.0135299
-0.0141116
-0.0325897
-0.0324201
-0.0293829
-0.0261573
-0.0233848
-0.0210265
-0.0190333
-0.0173606
-0.0159613
-0.0147899
-0.0138075
-0.0129807
-0.0122835
-0.0116943
-0.0111959
-0.0107742
-0.0104181
-0.0101184
-0.00986787
-0.00966076
-0.00949237
-0.00935899
-0.00925771
-0.00918627
-0.00914298
-0.00912662
-0.0091364
-0.00917187
-0.00923295
-0.00931981
-0.00943293
-0.00957302
-0.00974104
-0.00993817
-0.0101658
-0.0104254
-0.0107189
-0.011048
-0.0114148
-0.0118214
-0.01227
-0.0127626
-0.0133014
-0.0138883
-0.045321
-0.0407211
-0.0339907
-0.0287271
-0.0247252
-0.0215777
-0.019074
-0.0170728
-0.0154683
-0.0141733
-0.0131204
-0.0122584
-0.0115488
-0.010962
-0.0104754
-0.0100715
-0.00973662
-0.00946023
-0.00923394
-0.00905122
-0.00890693
-0.00879708
-0.00871856
-0.00866901
-0.00864668
-0.00865036
-0.00867924
-0.00873293
-0.00881135
-0.00891475
-0.00904364
-0.00919877
-0.00938116
-0.009592
-0.00983272
-0.0101049
-0.0104103
-0.0107508
-0.0111285
-0.0115454
-0.0120036
-0.0125053
-0.0130525
-0.013647
-0.0722436
-0.0516733
-0.0379592
-0.0296144
-0.0240558
-0.0201456
-0.0173194
-0.0152313
-0.0136498
-0.0124264
-0.0114668
-0.0107064
-0.0100987
-0.00960985
-0.00921515
-0.00889637
-0.00863985
-0.00843521
-0.00827452
-0.00815172
-0.0080622
-0.00800242
-0.00796976
-0.00796227
-0.00797859
-0.00801783
-0.00807953
-0.00816355
-0.00827007
-0.00839954
-0.00855267
-0.0087304
-0.00893386
-0.00916441
-0.00942358
-0.00971304
-0.0100346
-0.0103903
-0.0107822
-0.0112123
-0.0116828
-0.0121959
-0.0127536
-0.0133576
-0.159308
-0.0576027
-0.0266839
-0.0188867
-0.0148097
-0.0119121
-0.0101455
-0.0091253
-0.00846803
-0.00799175
-0.00763264
-0.00736085
-0.00715467
-0.00699832
-0.00688131
-0.00679663
-0.00673929
-0.00670556
-0.00669266
-0.00669856
-0.00672181
-0.00676144
-0.00681686
-0.0068878
-0.00697427
-0.0070765
-0.00719497
-0.00733032
-0.00748341
-0.00765525
-0.00784702
-0.00806007
-0.00829588
-0.00855611
-0.00884253
-0.00915705
-0.00950171
-0.00987861
-0.01029
-0.010738
-0.011225
-0.011753
-0.0123244
-0.0129409
)
;

boundaryField
{
    movingWall
    {
        type            zeroGradient;
    }
    fixedWalls
    {
        type            zeroGradient;
    }
    frontAndBack
    {
        type            empty;
    }
    procBoundary2to3
    {
        type            processor;
        value           nonuniform List<scalar> 
45
(
-0.0102183
-0.0103974
-0.0105961
-0.0108163
-0.0110602
-0.0113304
-0.0116297
-0.0119614
-0.0123291
-0.0127374
-0.0131912
-0.0136965
-0.0142606
-0.0148919
-0.0156006
-0.0163989
-0.0173023
-0.0183291
-0.00909344
-0.00912262
-0.00914438
-0.00916264
-0.00917867
-0.0091923
-0.00920385
-0.00921403
-0.00922372
-0.00923389
-0.00924554
-0.00925971
-0.00927736
-0.00929947
-0.00932691
-0.00936056
-0.00940123
-0.00944974
-0.00950689
-0.00957347
-0.00965034
-0.00973837
-0.00983849
-0.00995172
-0.0100792
-0.0102223
-0.0102223
)
;
    }
    procBoundary2to5
    {
        type            processor;
        value           nonuniform List<scalar> 
29
(
-0.0196036
-0.0196493
-0.0196403
-0.0195826
-0.0194819
-0.0193436
-0.0191727
-0.0189743
-0.018753
-0.0185132
-0.0182591
-0.0179942
-0.017722
-0.0174455
-0.0171673
-0.0168902
-0.0166164
-0.0163483
-0.0160883
-0.0158383
-0.0156003
-0.0153748
-0.0151605
-0.014953
-0.0147441
-0.014525
-0.0142903
-0.0140093
-0.0136039
)
;
    }
}


// ************************************************************************* //
