/*--------------------------------*- C++ -*----------------------------------*\
  =========                 |
  \\      /  F ield         | OpenFOAM: The Open Source CFD Toolbox
   \\    /   O peration     | Website:  https://openfoam.org
    \\  /    A nd           | Version:  9
     \\/     M anipulation  |
\*---------------------------------------------------------------------------*/
FoamFile
{
    format      ascii;
    class       volScalarField;
    location    "2";
    object      p;
}
// * * * * * * * * * * * * * * * * * * * * * * * * * * * * * * * * * * * * * //

dimensions      [0 2 -2 0 0 0 0];

internalField   nonuniform List<scalar> 
1250
(
-0.0127982
-0.0129426
-0.0138835
-0.0140075
-0.0141464
-0.0143409
-0.0146215
-0.0150081
-0.0155174
-0.0161645
-0.0169634
-0.0179273
-0.0190687
-0.0203986
-0.0219254
-0.0236539
-0.0255842
-0.0277118
-0.0300265
-0.0325128
-0.0351504
-0.0379149
-0.0407788
-0.0437131
-0.0466882
-0.0496754
-0.0526479
-0.0555822
-0.058458
-0.061259
-0.0639726
-0.0665897
-0.0691044
-0.0715133
-0.0738152
-0.0760101
-0.0149603
-0.0150632
-0.0151928
-0.0153854
-0.0156695
-0.0160645
-0.0165865
-0.0172502
-0.0180689
-0.0190555
-0.0202219
-0.0215787
-0.0231335
-0.0248904
-0.0268491
-0.029004
-0.0313441
-0.0338531
-0.0365099
-0.0392898
-0.0421647
-0.0451055
-0.0480827
-0.051068
-0.0540351
-0.0569612
-0.0598267
-0.0626161
-0.0653176
-0.0679229
-0.0704265
-0.0728257
-0.0751195
-0.0773083
-0.079393
-0.081375
-0.0832558
-0.0850367
-0.0867187
-0.088302
-0.0897869
-0.0911727
-0.0924588
-0.0160207
-0.0161018
-0.0162213
-0.0164109
-0.016697
-0.0170986
-0.0176314
-0.0183092
-0.019145
-0.020151
-0.0213387
-0.0227179
-0.0242959
-0.0260762
-0.0280575
-0.0302337
-0.0325931
-0.0351186
-0.0377888
-0.0405783
-0.043459
-0.0464016
-0.049377
-0.0523571
-0.0553163
-0.0582324
-0.0610865
-0.0638638
-0.0665532
-0.069147
-0.0716403
-0.0740307
-0.0763173
-0.0785008
-0.0805822
-0.0825629
-0.0844442
-0.0862273
-0.0879128
-0.089501
-0.0909917
-0.092384
-0.0936772
-0.0948696
-0.0959597
-0.0969459
-0.0978266
-0.0986001
-0.099265
-0.0170574
-0.0171163
-0.0172247
-0.0174101
-0.0176967
-0.018103
-0.0186442
-0.0193338
-0.0201837
-0.0212058
-0.0224108
-0.0238083
-0.0254047
-0.0272031
-0.0292016
-0.0313934
-0.0337663
-0.0363027
-0.0389807
-0.0417747
-0.0446566
-0.0475971
-0.0505673
-0.0535396
-0.056489
-0.0593937
-0.0622357
-0.0650008
-0.0676783
-0.0702612
-0.0727448
-0.0751272
-0.0774077
-0.0795868
-0.0816657
-0.0836458
-0.0855282
-0.0873139
-0.0890033
-0.0905965
-0.0920929
-0.0934918
-0.0947918
-0.0959914
-0.0970887
-0.0980821
-0.0989696
-0.0997496
-0.100421
-0.0180637
-0.0180996
-0.0181965
-0.0183765
-0.018662
-0.0190711
-0.0196187
-0.0203174
-0.0211785
-0.0222133
-0.023432
-0.0248434
-0.0264536
-0.028265
-0.0302754
-0.0324774
-0.0348583
-0.0374002
-0.040081
-0.0428749
-0.0457537
-0.0486885
-0.0516506
-0.0546128
-0.0575508
-0.0604432
-0.0632727
-0.0660255
-0.0686915
-0.0712641
-0.0737389
-0.0761142
-0.0783893
-0.0805649
-0.0826421
-0.0846222
-0.0865061
-0.0882946
-0.0899881
-0.0915863
-0.0930886
-0.0944938
-0.0958004
-0.0970068
-0.0981111
-0.0991112
-0.100005
-0.100791
-0.101468
-0.0190323
-0.0190461
-0.0191306
-0.019304
-0.0195868
-0.0199969
-0.0205486
-0.0212538
-0.0221232
-0.0231674
-0.024396
-0.0258172
-0.0274367
-0.0292564
-0.0312735
-0.0334805
-0.0358642
-0.0384067
-0.0410855
-0.0438749
-0.0467469
-0.0496728
-0.0526242
-0.0555745
-0.0584998
-0.0613792
-0.0641959
-0.0669366
-0.0695916
-0.0721545
-0.0746213
-0.0769902
-0.0792609
-0.0814337
-0.0835098
-0.0854903
-0.0873761
-0.0891678
-0.0908654
-0.0924686
-0.0939765
-0.0953878
-0.0967008
-0.0979137
-0.0990244
-0.100031
-0.100931
-0.101723
-0.102405
-0.0199578
-0.0199493
-0.0200214
-0.0201872
-0.0204654
-0.0208747
-0.0214282
-0.0221373
-0.0230121
-0.0240624
-0.0252972
-0.0267242
-0.0283486
-0.0301718
-0.0321909
-0.034398
-0.0367797
-0.039318
-0.0419904
-0.0447714
-0.0476332
-0.0505473
-0.0534859
-0.0564227
-0.0593341
-0.0622
-0.0650039
-0.0677328
-0.0703773
-0.0729313
-0.0753908
-0.0777542
-0.080021
-0.0821918
-0.0842673
-0.0862487
-0.0881366
-0.0899315
-0.0916332
-0.0932413
-0.0947546
-0.0961717
-0.0974908
-0.0987098
-0.0998266
-0.100839
-0.101745
-0.102542
-0.103228
-0.0208351
-0.0208048
-0.0208636
-0.0210206
-0.0212933
-0.0216995
-0.0222525
-0.0229628
-0.0238401
-0.0248932
-0.0261306
-0.0275595
-0.0291845
-0.0310068
-0.0330233
-0.0352257
-0.0376008
-0.0401305
-0.0427925
-0.0455615
-0.0484099
-0.0513098
-0.0542335
-0.0571554
-0.0600522
-0.0629043
-0.0656953
-0.0684128
-0.0710474
-0.0735931
-0.0760461
-0.0784047
-0.0806684
-0.0828376
-0.0849131
-0.0868957
-0.0887859
-0.0905841
-0.0922899
-0.0939027
-0.0954212
-0.0968438
-0.0981685
-0.0993933
-0.100516
-0.101534
-0.102445
-0.103247
-0.103938
-0.0216597
-0.0216081
-0.0216532
-0.0218005
-0.0220659
-0.0224672
-0.0230174
-0.0237263
-0.024603
-0.0256557
-0.0268921
-0.028319
-0.0299406
-0.0317577
-0.033767
-0.0359603
-0.0383244
-0.0408414
-0.0434892
-0.0462428
-0.049075
-0.0519582
-0.0548654
-0.0577711
-0.0606527
-0.0634906
-0.0662689
-0.0689752
-0.0716006
-0.0741387
-0.0765859
-0.0789404
-0.0812017
-0.0833698
-0.0854456
-0.0874297
-0.0893224
-0.0911239
-0.0928338
-0.0944511
-0.0959745
-0.0974023
-0.0987324
-0.0999626
-0.10109
-0.102113
-0.103029
-0.103836
-0.104531
-0.0224279
-0.0223557
-0.022387
-0.0225235
-0.0227801
-0.0231744
-0.0237193
-0.0244243
-0.0252975
-0.0263465
-0.0275785
-0.0289996
-0.0306137
-0.0324213
-0.0344193
-0.0365992
-0.0389482
-0.0414485
-0.0440784
-0.0468134
-0.0496267
-0.0524911
-0.05538
-0.0582684
-0.0611341
-0.0639576
-0.0667233
-0.069419
-0.0720355
-0.0745667
-0.0770088
-0.0793599
-0.0816192
-0.0837869
-0.0858634
-0.0878492
-0.0897446
-0.0915495
-0.0932633
-0.094885
-0.0964131
-0.0978459
-0.099181
-0.100416
-0.101549
-0.102577
-0.103497
-0.104308
-0.105007
-0.0231366
-0.0230449
-0.0230621
-0.023187
-0.0234332
-0.0238187
-0.024356
-0.0250542
-0.0259209
-0.026963
-0.0281871
-0.0295988
-0.0312014
-0.0329956
-0.0349781
-0.0371404
-0.0394702
-0.04195
-0.0445586
-0.0472718
-0.0500636
-0.0529071
-0.0557762
-0.0586463
-0.0614953
-0.0643042
-0.0670574
-0.0697427
-0.0723509
-0.0748758
-0.0773135
-0.0796618
-0.0819198
-0.0840875
-0.0861651
-0.088153
-0.0900511
-0.0918594
-0.0935771
-0.0952031
-0.0967358
-0.0981732
-0.0995131
-0.100753
-0.10189
-0.102923
-0.103847
-0.104662
-0.105364
-0.0237837
-0.0236735
-0.0236766
-0.0237892
-0.0240236
-0.0243982
-0.0249255
-0.0256143
-0.0264715
-0.0275035
-0.0287162
-0.0301148
-0.0317023
-0.033479
-0.0354417
-0.0375825
-0.0398892
-0.0423448
-0.0449287
-0.0476172
-0.0503848
-0.0532053
-0.0560529
-0.0589035
-0.0617353
-0.0645293
-0.06727
-0.0699452
-0.0725455
-0.0750647
-0.0774985
-0.0798447
-0.082102
-0.0842702
-0.0863493
-0.0883395
-0.0902407
-0.0920525
-0.0937742
-0.0954044
-0.0969415
-0.0983834
-0.0997278
-0.100972
-0.0243677
-0.0242402
-0.0242295
-0.024329
-0.0245503
-0.0249122
-0.0254271
-0.0261037
-0.0269484
-0.027967
-0.0291649
-0.0305467
-0.0321151
-0.0338706
-0.0358096
-0.0379249
-0.0402046
-0.0426323
-0.0451881
-0.0478488
-0.0505897
-0.053385
-0.0562095
-0.0590395
-0.0618532
-0.0646319
-0.0673601
-0.0700253
-0.0726183
-0.0751322
-0.0775628
-0.0799073
-0.0821645
-0.0843337
-0.0864148
-0.0884077
-0.0903122
-0.0921277
-0.0938534
-0.0954879
-0.0970293
-0.0984757
-0.0998245
-0.101073
-0.0248881
-0.0247446
-0.0247203
-0.0248061
-0.0250131
-0.0253603
-0.0258605
-0.0265221
-0.0273513
-0.0283533
-0.0295329
-0.0308943
-0.0324399
-0.0341701
-0.0360816
-0.0381675
-0.0404163
-0.0428125
-0.0453366
-0.0479665
-0.050678
-0.0534459
-0.0562456
-0.0590535
-0.0618483
-0.0646112
-0.0673267
-0.0699821
-0.0725679
-0.0750771
-0.077505
-0.0798485
-0.0821061
-0.0842769
-0.0863604
-0.0883565
-0.0902646
-0.0920841
-0.093814
-0.0954529
-0.0969988
-0.0984496
-0.0998029
-0.101056
-0.0253449
-0.0251868
-0.0251491
-0.0252209
-0.0254124
-0.0257432
-0.0262264
-0.0268703
-0.0276809
-0.028663
-0.0298208
-0.0311581
-0.0326771
-0.0343781
-0.0362582
-0.0383106
-0.0405247
-0.0428855
-0.0453747
-0.0479706
-0.0506498
-0.053388
-0.0561609
-0.0589453
-0.0617201
-0.0644666
-0.067169
-0.0698146
-0.0723934
-0.0748982
-0.0773239
-0.079667
-0.0819257
-0.0840986
-0.0861852
-0.0881848
-0.0900971
-0.091921
-0.0936554
-0.0952989
-0.0968495
-0.0983049
-0.0996627
-0.10092
-0.0257386
-0.0255676
-0.0255171
-0.0255744
-0.0257495
-0.0260622
-0.0265261
-0.0271496
-0.0279385
-0.0288973
-0.0300298
-0.0313393
-0.0328279
-0.0344958
-0.0363404
-0.0383554
-0.0405308
-0.0428525
-0.045303
-0.0478615
-0.0505056
-0.0532115
-0.0559554
-0.0587147
-0.0614682
-0.0641974
-0.0668863
-0.0695219
-0.0720939
-0.0745946
-0.0770185
-0.0793618
-0.0816221
-0.0837978
-0.0858881
-0.087892
-0.0898089
-0.0916377
-0.0933772
-0.0950257
-0.0965813
-0.0980417
-0.0994043
-0.100666
-0.0260708
-0.0258883
-0.0258256
-0.0258683
-0.0260261
-0.0263192
-0.0267616
-0.0273619
-0.028126
-0.0290581
-0.0301617
-0.0314397
-0.032894
-0.0345248
-0.0363298
-0.0383033
-0.0404359
-0.0427146
-0.0451227
-0.0476405
-0.0502462
-0.052917
-0.0556296
-0.0583617
-0.0610925
-0.0638033
-0.066478
-0.0691033
-0.0716684
-0.0741652
-0.0765878
-0.0789318
-0.0811944
-0.0833737
-0.0854684
-0.0874773
-0.0893996
-0.091234
-0.0929791
-0.0946332
-0.0961943
-0.09766
-0.0990278
-0.100295
-0.0263432
-0.0261509
-0.0260766
-0.0261048
-0.0262445
-0.0265166
-0.0269354
-0.02751
-0.0282462
-0.0291482
-0.0302192
-0.0314618
-0.0328778
-0.0344674
-0.0362287
-0.0381564
-0.0402422
-0.0424738
-0.0448355
-0.0473088
-0.0498728
-0.0525054
-0.0551841
-0.0578869
-0.0605931
-0.0632842
-0.0659438
-0.0685582
-0.0711163
-0.0736094
-0.0760309
-0.0783762
-0.0806418
-0.0828254
-0.0849253
-0.0869401
-0.0888686
-0.0907094
-0.0924609
-0.0941214
-0.0956887
-0.0971604
-0.0985339
-0.0998065
-0.0265582
-0.0263578
-0.0262729
-0.0262866
-0.0264078
-0.0266575
-0.0270508
-0.0275969
-0.0283021
-0.0291705
-0.0302052
-0.0314085
-0.0327821
-0.0343264
-0.0360396
-0.0379174
-0.0399519
-0.0421321
-0.0444434
-0.0468682
-0.0493869
-0.051978
-0.0546198
-0.0572907
-0.0599704
-0.0626402
-0.0652835
-0.0678863
-0.070437
-0.0729263
-0.0753471
-0.0776942
-0.0799635
-0.0821522
-0.0842583
-0.0862799
-0.0882156
-0.0900638
-0.0918228
-0.0934905
-0.0950649
-0.0965434
-0.0979234
-0.0992022
-0.0267187
-0.0265118
-0.0264171
-0.0264167
-0.026519
-0.0267453
-0.0271112
-0.0276264
-0.0282976
-0.0291289
-0.0301234
-0.0312833
-0.0326104
-0.034105
-0.0357658
-0.0375891
-0.0395679
-0.0416923
-0.0439487
-0.046321
-0.0487903
-0.0513363
-0.053938
-0.0565743
-0.059225
-0.0618716
-0.0644972
-0.0670874
-0.0696301
-0.0721155
-0.0745358
-0.0768851
-0.0791588
-0.0813536
-0.0834668
-0.0854964
-0.0874405
-0.0892972
-0.0910647
-0.0927409
-0.0943234
-0.0958098
-0.0971973
-0.0984831
-0.0268278
-0.0266161
-0.0265126
-0.0264985
-0.0265818
-0.0267839
-0.0271207
-0.0276026
-0.0282367
-0.0290274
-0.0299778
-0.0310903
-0.0323665
-0.0338069
-0.0354108
-0.0371749
-0.0390934
-0.0411573
-0.0433544
-0.0456696
-0.0480853
-0.0505824
-0.0531403
-0.0557388
-0.0583579
-0.060979
-0.0635852
-0.0661616
-0.0686956
-0.0711768
-0.0735966
-0.0759486
-0.0782274
-0.0804291
-0.0825506
-0.0845894
-0.0865431
-0.0884098
-0.0901872
-0.0918731
-0.0934651
-0.0949605
-0.0963567
-0.0976507
-0.0268889
-0.0266742
-0.026563
-0.0265357
-0.0266
-0.0267772
-0.0270835
-0.0275299
-0.0281239
-0.0288705
-0.029773
-0.0308338
-0.0320545
-0.0334362
-0.0349784
-0.0366786
-0.0385319
-0.0405305
-0.0426634
-0.0449169
-0.0472746
-0.0497184
-0.0522288
-0.0547859
-0.0573704
-0.0599635
-0.0625482
-0.0651093
-0.0676337
-0.0701101
-0.0725294
-0.0748842
-0.0771688
-0.0793784
-0.0815094
-0.0835586
-0.0855235
-0.0874016
-0.0891904
-0.0908876
-0.0924906
-0.0939966
-0.0954028
-0.0967063
-0.0269056
-0.0266896
-0.0265717
-0.0265321
-0.0265777
-0.0267295
-0.0270041
-0.0274129
-0.0279642
-0.0286632
-0.0295137
-0.0305184
-0.0316792
-0.0329974
-0.034473
-0.0361043
-0.0378873
-0.0398155
-0.0418793
-0.0440661
-0.0463611
-0.0487471
-0.0512057
-0.0537177
-0.0562641
-0.0588264
-0.0613873
-0.0639313
-0.0664447
-0.0689156
-0.0713341
-0.0736922
-0.0759831
-0.0782015
-0.0803431
-0.0824042
-0.0843818
-0.086273
-0.0880751
-0.0897853
-0.0914009
-0.0929192
-0.0943371
-0.0956516
-0.0268819
-0.0266661
-0.0265428
-0.0264917
-0.0265189
-0.0266452
-0.0268871
-0.0272566
-0.0277623
-0.0284104
-0.029205
-0.0301492
-0.0312453
-0.0324951
-0.033899
-0.0354562
-0.0371638
-0.0390164
-0.0410058
-0.0431208
-0.045348
-0.0476714
-0.0500737
-0.0525365
-0.0550412
-0.0575694
-0.0601039
-0.0626287
-0.0651296
-0.0675941
-0.0700114
-0.0723727
-0.0746704
-0.0768986
-0.079052
-0.0811266
-0.0831185
-0.0850246
-0.0868417
-0.0885669
-0.0901972
-0.0917296
-0.093161
-0.0944883
-0.0268216
-0.0266075
-0.02648
-0.0264184
-0.0264279
-0.0265288
-0.0267372
-0.0270657
-0.0275234
-0.0281173
-0.028852
-0.0297313
-0.0307579
-0.0319341
-0.0332612
-0.034739
-0.0363658
-0.0381374
-0.0400469
-0.0420849
-0.044239
-0.0464949
-0.0488361
-0.0512452
-0.0537041
-0.0561948
-0.0586999
-0.0612031
-0.0636897
-0.0661465
-0.0685621
-0.0709265
-0.0732315
-0.0754702
-0.0776367
-0.0797261
-0.0817341
-0.083657
-0.0854913
-0.0872335
-0.0888806
-0.0904292
-0.0918762
-0.0932183
-0.0267285
-0.0265177
-0.0263872
-0.0263161
-0.0263088
-0.0263845
-0.0265591
-0.0268452
-0.0272527
-0.0277892
-0.0284601
-0.02927
-0.0302222
-0.0313196
-0.0325644
-0.0339574
-0.0354978
-0.0371828
-0.039007
-0.0409623
-0.0430381
-0.0452211
-0.0474963
-0.0498471
-0.052256
-0.0547053
-0.0571777
-0.0596567
-0.062127
-0.0645747
-0.0669875
-0.0693547
-0.0716673
-0.0739172
-0.0760979
-0.0782037
-0.0802296
-0.0821713
-0.0840248
-0.0857864
-0.0874525
-0.0890197
-0.0904846
-0.0918437
-0.0266066
-0.0264004
-0.0262682
-0.0261888
-0.0261656
-0.0262166
-0.0263571
-0.0265998
-0.0269551
-0.0274312
-0.0280346
-0.0287705
-0.0296433
-0.0306567
-0.0318137
-0.0331162
-0.0345646
-0.0361573
-0.0378905
-0.0397576
-0.0417495
-0.0438543
-0.0460584
-0.048346
-0.0507004
-0.0531043
-0.0555405
-0.0579923
-0.0604439
-0.0628807
-0.0652897
-0.0676593
-0.0699794
-0.0722412
-0.0744371
-0.0765608
-0.0786063
-0.0805689
-0.0824439
-0.0842271
-0.0859147
-0.0875029
-0.088988
-0.0903665
-0.0264596
-0.0262594
-0.0261267
-0.0260402
-0.0260023
-0.0260292
-0.0261358
-0.0263343
-0.0266354
-0.0270483
-0.0275804
-0.0282379
-0.0290263
-0.0299503
-0.0310139
-0.0322201
-0.0335707
-0.0350654
-0.0367019
-0.0384751
-0.0403775
-0.0423988
-0.0445265
-0.046746
-0.0490413
-0.0513956
)
;

boundaryField
{
    movingWall
    {
        type            zeroGradient;
    }
    fixedWalls
    {
        type            zeroGradient;
    }
    frontAndBack
    {
        type            empty;
    }
    procBoundary3to0
    {
        type            processor;
        value           nonuniform List<scalar> 
29
(
-0.0117125
-0.0118764
-0.0130899
-0.0130899
-0.0132852
-0.0135612
-0.0139379
-0.0144326
-0.015061
-0.0158374
-0.0167755
-0.0178882
-0.0191871
-0.020681
-0.0223755
-0.0242717
-0.0263657
-0.0286484
-0.0311054
-0.0337171
-0.0364599
-0.0393069
-0.0422294
-0.0451976
-0.0481827
-0.0511575
-0.0540976
-0.0569821
-0.0597938
)
;
    }
    procBoundary3to1
    {
        type            processor;
        value           nonuniform List<scalar> 
23
(
-0.0625192
-0.0651482
-0.0676744
-0.0700939
-0.0724047
-0.0746068
-0.0780989
-0.0780989
-0.080083
-0.0819641
-0.0837435
-0.0854223
-0.0870012
-0.0884804
-0.0898598
-0.0911387
-0.0936437
-0.0936437
-0.0947263
-0.0957051
-0.0965785
-0.0973451
-0.0980036
)
;
    }
    procBoundary3to2
    {
        type            processor;
        value           nonuniform List<scalar> 
45
(
-0.0537919
-0.0562133
-0.0586436
-0.0610676
-0.0634714
-0.0658427
-0.0681701
-0.0704442
-0.0726563
-0.0747991
-0.076866
-0.0788514
-0.0807501
-0.0825575
-0.0842691
-0.0858809
-0.0873889
-0.0887893
-0.0262912
-0.0260983
-0.0259663
-0.025874
-0.0258225
-0.0258264
-0.0258992
-0.0260529
-0.0262985
-0.0266456
-0.0271029
-0.0276776
-0.0283765
-0.0292055
-0.03017
-0.0312742
-0.0325211
-0.033912
-0.035446
-0.0371197
-0.0389272
-0.0408595
-0.0429056
-0.0450519
-0.0472835
-0.0537919
-0.0495839
)
;
    }
    procBoundary3to5
    {
        type            processor;
        value           nonuniform List<scalar> 
21
(
-0.102114
-0.10315
-0.104079
-0.104897
-0.105603
-0.102114
-0.102219
-0.102206
-0.102075
-0.101825
-0.101458
-0.100975
-0.100377
-0.0996643
-0.0988395
-0.097904
-0.0968597
-0.0957084
-0.0944524
-0.0930937
-0.091635
)
;
    }
    procBoundary3to6
    {
        type            processor;
        value           nonuniform List<scalar> 9(-0.0998199 -0.100981 -0.102033 -0.102975 -0.103803 -0.104516 -0.105113 -0.105592 -0.105953);
    }
}


// ************************************************************************* //
