/*--------------------------------*- C++ -*----------------------------------*\
  =========                 |
  \\      /  F ield         | OpenFOAM: The Open Source CFD Toolbox
   \\    /   O peration     | Website:  https://openfoam.org
    \\  /    A nd           | Version:  9
     \\/     M anipulation  |
\*---------------------------------------------------------------------------*/
FoamFile
{
    format      ascii;
    class       surfaceScalarField;
    location    "2";
    object      phi;
}
// * * * * * * * * * * * * * * * * * * * * * * * * * * * * * * * * * * * * * //

dimensions      [0 3 -1 0 0 0 0];

internalField   nonuniform List<scalar> 
2422
(
-5.63393e-09
2.88823e-07
7.60906e-07
-4.48579e-09
2.93308e-07
-1.87356e-08
7.75156e-07
-4.27887e-08
1.16383e-06
-7.58427e-08
1.47373e-06
-1.16496e-07
1.72122e-06
-1.63081e-07
1.9228e-06
-2.1395e-07
2.09314e-06
-2.67652e-07
2.24381e-06
-3.23e-07
2.38272e-06
-3.7906e-07
2.51432e-06
-4.35093e-07
2.64021e-06
-4.90489e-07
2.76001e-06
-5.44715e-07
2.8721e-06
-5.97282e-07
2.97424e-06
-6.47729e-07
3.06411e-06
-6.95629e-07
3.1395e-06
-7.40601e-07
3.1986e-06
-7.8233e-07
3.24004e-06
-8.2058e-07
3.26299e-06
-8.55211e-07
3.26718e-06
-8.86186e-07
3.2529e-06
-9.13577e-07
3.22098e-06
-9.37556e-07
3.17268e-06
-9.5839e-07
3.10966e-06
-9.76417e-07
3.03387e-06
-9.92029e-07
2.94736e-06
-1.00565e-06
2.85226e-06
-1.0177e-06
2.7506e-06
-1.02861e-06
2.64426e-06
-1.03876e-06
2.53489e-06
-1.04847e-06
2.42385e-06
-1.05804e-06
2.31221e-06
-1.06767e-06
2.20075e-06
2.08996e-06
-3.31418e-09
2.96623e-07
-1.48121e-08
7.86654e-07
-3.5161e-08
1.18418e-06
-6.4029e-08
1.5026e-06
-1.00315e-07
1.75751e-06
-1.42508e-07
1.96499e-06
-1.89007e-07
2.13964e-06
-2.38352e-07
2.29316e-06
-2.89319e-07
2.43369e-06
-3.4094e-07
2.56594e-06
-3.92462e-07
2.69173e-06
-4.43281e-07
2.81083e-06
-4.92887e-07
2.9217e-06
-5.40832e-07
3.02219e-06
-5.86704e-07
3.10998e-06
-6.30133e-07
3.18293e-06
-6.70798e-07
3.23927e-06
-7.08439e-07
3.27768e-06
-7.42872e-07
3.29742e-06
-7.74005e-07
3.29831e-06
-8.01838e-07
3.28074e-06
-8.26469e-07
3.24561e-06
-8.48083e-07
3.19429e-06
-8.66946e-07
3.12853e-06
-8.83385e-07
3.0503e-06
-8.97767e-07
2.96174e-06
-9.1048e-07
2.86497e-06
-9.21914e-07
2.76204e-06
-9.3244e-07
2.65479e-06
-9.4239e-07
2.54484e-06
-9.52054e-07
2.43352e-06
-9.61667e-07
2.32183e-06
-9.71409e-07
2.21049e-06
-9.81409e-07
2.09996e-06
-9.91741e-07
1.99047e-06
-1.00244e-06
1.88206e-06
-1.01351e-06
1.77462e-06
-1.02491e-06
1.66797e-06
-1.0366e-06
1.56187e-06
-1.04851e-06
1.45604e-06
-1.06058e-06
1.35023e-06
-1.07272e-06
1.24421e-06
1.13778e-06
-2.13549e-09
2.98758e-07
-1.08223e-08
7.95341e-07
-2.73514e-08
1.20071e-06
-5.187e-08
1.52712e-06
-8.3598e-08
1.78924e-06
-1.212e-07
2.00259e-06
-1.63143e-07
2.18159e-06
-2.07965e-07
2.33798e-06
-2.54415e-07
2.48014e-06
-3.01493e-07
2.61302e-06
-3.48429e-07
2.73867e-06
-3.94625e-07
2.85703e-06
-4.39597e-07
2.96667e-06
-4.82935e-07
3.06553e-06
-5.24279e-07
3.15132e-06
-5.63314e-07
3.22197e-06
-5.99775e-07
3.27573e-06
-6.33457e-07
3.31136e-06
-6.64225e-07
3.32819e-06
-6.92027e-07
3.32612e-06
-7.16895e-07
3.3056e-06
-7.38945e-07
3.26765e-06
-7.58368e-07
3.21371e-06
-7.75425e-07
3.14558e-06
-7.90421e-07
3.0653e-06
-8.03695e-07
2.97502e-06
-8.15598e-07
2.87688e-06
-8.26475e-07
2.77291e-06
-8.36649e-07
2.66496e-06
-8.46408e-07
2.5546e-06
-8.55994e-07
2.4431e-06
-8.65602e-07
2.33143e-06
-8.75379e-07
2.22027e-06
-8.85422e-07
2.11001e-06
-8.9579e-07
2.00084e-06
-9.06497e-07
1.89276e-06
-9.17533e-07
1.78566e-06
-9.28865e-07
1.6793e-06
-9.40444e-07
1.57344e-06
-9.52212e-07
1.46781e-06
-9.64108e-07
1.36213e-06
-9.76072e-07
1.25617e-06
-9.88046e-07
1.14976e-06
-9.99977e-07
1.04272e-06
-1.01182e-06
9.34975e-07
-1.02354e-06
8.26452e-07
-1.03511e-06
7.17131e-07
-1.0465e-06
6.07025e-07
4.96165e-07
-9.68288e-10
2.99726e-07
-6.80886e-09
8.01181e-07
-1.94348e-08
1.21334e-06
-3.94719e-08
1.54716e-06
-6.64774e-08
1.81624e-06
-9.93136e-08
2.03543e-06
-1.36534e-07
2.21881e-06
-1.76689e-07
2.37813e-06
-2.18502e-07
2.52195e-06
-2.60948e-07
2.65546e-06
-3.03241e-07
2.78096e-06
-3.44786e-07
2.89857e-06
-3.85124e-07
3.00701e-06
-4.23882e-07
3.10428e-06
-4.60751e-07
3.18819e-06
-4.9547e-07
3.25669e-06
-5.27828e-07
3.30809e-06
-5.57672e-07
3.34121e-06
-5.84912e-07
3.35543e-06
-6.09531e-07
3.35074e-06
-6.31587e-07
3.32766e-06
-6.51208e-07
3.28728e-06
-6.68586e-07
3.23109e-06
-6.83966e-07
3.16096e-06
-6.97631e-07
3.07897e-06
-7.09887e-07
2.98727e-06
-7.21042e-07
2.88803e-06
-7.31397e-07
2.78327e-06
-7.41227e-07
2.67479e-06
-7.50773e-07
2.56415e-06
-7.60236e-07
2.45257e-06
-7.69773e-07
2.34097e-06
-7.79499e-07
2.22999e-06
-7.89487e-07
2.11999e-06
-7.99775e-07
2.01113e-06
-8.1037e-07
1.90336e-06
-8.21256e-07
1.79654e-06
-8.32399e-07
1.69045e-06
-8.43754e-07
1.5848e-06
-8.5527e-07
1.47932e-06
-8.66896e-07
1.37375e-06
-8.7858e-07
1.26786e-06
-8.90276e-07
1.16145e-06
-9.01944e-07
1.05439e-06
-9.13547e-07
9.46577e-07
-9.25056e-07
8.37961e-07
-9.36451e-07
7.28526e-07
-9.47715e-07
6.18289e-07
5.07287e-07
2.08711e-10
2.99518e-07
-2.8004e-09
8.0419e-07
-1.14791e-08
1.22202e-06
-2.6936e-08
1.56261e-06
-4.9084e-08
1.83839e-06
-7.70048e-08
2.06335e-06
-1.09357e-07
2.25116e-06
-1.44716e-07
2.41349e-06
-1.81793e-07
2.55903e-06
-2.19537e-07
2.6932e-06
-2.57144e-07
2.81857e-06
-2.94023e-07
2.93545e-06
-3.29736e-07
3.04272e-06
-3.63949e-07
3.1385e-06
-3.964e-07
3.22064e-06
-4.2688e-07
3.28717e-06
-4.5523e-07
3.33644e-06
-4.81345e-07
3.36732e-06
-5.05177e-07
3.37927e-06
-5.26741e-07
3.3723e-06
-5.46113e-07
3.34703e-06
-5.63428e-07
3.30459e-06
-5.78873e-07
3.24654e-06
-5.92676e-07
3.17477e-06
-6.05091e-07
3.09138e-06
-6.16386e-07
2.99857e-06
-6.26828e-07
2.89847e-06
-6.3667e-07
2.79311e-06
-6.46141e-07
2.68426e-06
-6.55437e-07
2.57344e-06
-6.6472e-07
2.46185e-06
-6.74111e-07
2.35036e-06
-6.83696e-07
2.23958e-06
-6.93529e-07
2.12983e-06
-7.03633e-07
2.02123e-06
-7.14007e-07
1.91373e-06
-7.24633e-07
1.80717e-06
-7.35478e-07
1.70129e-06
-7.46505e-07
1.59583e-06
-7.57672e-07
1.49049e-06
-7.68935e-07
1.38501e-06
-7.80255e-07
1.27918e-06
-7.91596e-07
1.17279e-06
-8.02929e-07
1.06572e-06
-8.14227e-07
9.57876e-07
-8.25471e-07
8.49206e-07
-8.36648e-07
7.39702e-07
-8.47747e-07
6.29388e-07
5.18302e-07
1.33056e-09
2.98187e-07
1.159e-09
8.04362e-07
-3.54775e-09
1.22672e-06
-1.43624e-08
1.57343e-06
-3.15463e-08
1.85557e-06
-5.44265e-08
2.08623e-06
-8.17856e-08
2.27852e-06
-1.1224e-07
2.44395e-06
-1.44496e-07
2.59128e-06
-1.7748e-07
2.72619e-06
-2.10373e-07
2.85146e-06
-2.42583e-07
2.96766e-06
-2.73691e-07
3.07383e-06
-3.03399e-07
3.16821e-06
-3.31489e-07
3.24873e-06
-3.57803e-07
3.31348e-06
-3.82232e-07
3.36087e-06
-4.04715e-07
3.38981e-06
-4.25243e-07
3.39979e-06
-4.43856e-07
3.39091e-06
-4.60646e-07
3.36382e-06
-4.7575e-07
3.3197e-06
-4.89347e-07
3.26013e-06
-5.01642e-07
3.18706e-06
-5.12857e-07
3.1026e-06
-5.23223e-07
3.00893e-06
-5.3296e-07
2.90821e-06
-5.42278e-07
2.80243e-06
-5.51358e-07
2.69334e-06
-5.60355e-07
2.58244e-06
-5.6939e-07
2.47088e-06
-5.78556e-07
2.35953e-06
-5.87913e-07
2.24893e-06
-5.97495e-07
2.13941e-06
-6.07314e-07
2.03105e-06
-6.17366e-07
1.92378e-06
-6.27631e-07
1.81743e-06
-6.38082e-07
1.71174e-06
-6.48689e-07
1.60643e-06
-6.59418e-07
1.50122e-06
-6.70238e-07
1.39583e-06
-6.8112e-07
1.29006e-06
-6.9204e-07
1.18371e-06
-7.02978e-07
1.07666e-06
-7.13919e-07
9.68816e-07
-7.24851e-07
8.60138e-07
-7.35768e-07
7.50619e-07
-7.46665e-07
6.40285e-07
5.29179e-07
2.42548e-09
2.95762e-07
5.01834e-09
8.01769e-07
4.27885e-09
1.22746e-06
-1.83908e-09
1.57955e-06
-1.39911e-08
1.86773e-06
-3.17309e-08
2.10397e-06
-5.39917e-08
2.30078e-06
-7.94489e-08
2.46941e-06
-1.06813e-07
2.61865e-06
-1.34993e-07
2.75437e-06
-1.63154e-07
2.87962e-06
-1.90701e-07
2.99521e-06
-2.1723e-07
3.10036e-06
-2.42476e-07
3.19345e-06
-2.66263e-07
3.27252e-06
-2.8848e-07
3.3357e-06
-3.09065e-07
3.38145e-06
-3.27999e-07
3.40874e-06
-3.45306e-07
3.4171e-06
-3.61051e-07
3.40666e-06
-3.75336e-07
3.37811e-06
-3.883e-07
3.33266e-06
-4.00104e-07
3.27194e-06
-4.10932e-07
3.19789e-06
-4.20973e-07
3.11264e-06
-4.30415e-07
3.01837e-06
-4.39438e-07
2.91723e-06
-4.48203e-07
2.81119e-06
-4.56847e-07
2.70199e-06
-4.65485e-07
2.59108e-06
-4.74203e-07
2.4796e-06
-4.83063e-07
2.36839e-06
-4.92104e-07
2.25797e-06
-5.01344e-07
2.14865e-06
-5.10786e-07
2.04049e-06
-5.20423e-07
1.93342e-06
-5.30237e-07
1.82725e-06
-5.40208e-07
1.72171e-06
-5.50312e-07
1.61654e-06
-5.60527e-07
1.51143e-06
-5.70834e-07
1.40614e-06
-5.81213e-07
1.30044e-06
-5.91654e-07
1.19415e-06
-6.02145e-07
1.08715e-06
-6.12682e-07
9.79353e-07
-6.2326e-07
8.70716e-07
-6.3388e-07
7.61239e-07
-6.44543e-07
6.50948e-07
5.39888e-07
3.47499e-09
2.92287e-07
8.77585e-09
7.96468e-07
1.19438e-08
1.22429e-06
1.05059e-08
1.58099e-06
3.4534e-09
1.87478e-06
-9.06858e-09
2.11649e-06
-2.61469e-08
2.31786e-06
-4.65286e-08
2.48979e-06
-6.89432e-08
2.64106e-06
-9.22864e-08
2.77771e-06
-1.15706e-07
2.90304e-06
-1.38604e-07
3.0181e-06
-1.60586e-07
3.12234e-06
-1.81415e-07
3.21428e-06
-2.00954e-07
3.29206e-06
-2.19137e-07
3.35388e-06
-2.35944e-07
3.39826e-06
-2.51396e-07
3.42419e-06
-2.65548e-07
3.43125e-06
-2.78486e-07
3.41959e-06
-2.9032e-07
3.38994e-06
-3.01185e-07
3.34352e-06
-3.11229e-07
3.28198e-06
-3.20606e-07
3.20727e-06
-3.29474e-07
3.12151e-06
-3.3798e-07
3.02688e-06
-3.46259e-07
2.92551e-06
-3.54427e-07
2.81936e-06
-3.62582e-07
2.71014e-06
-3.70796e-07
2.59929e-06
-3.79123e-07
2.48793e-06
-3.87598e-07
2.37686e-06
-3.96239e-07
2.26662e-06
-4.05052e-07
2.15746e-06
-4.14033e-07
2.04947e-06
-4.23172e-07
1.94256e-06
-4.32456e-07
1.83653e-06
-4.4187e-07
1.73113e-06
-4.514e-07
1.62607e-06
-4.61035e-07
1.52107e-06
-4.70766e-07
1.41587e-06
-4.80587e-07
1.31026e-06
-4.90497e-07
1.20406e-06
-5.00495e-07
1.09715e-06
-5.10585e-07
9.89443e-07
-5.20772e-07
8.80903e-07
-5.31061e-07
7.71528e-07
-5.41459e-07
6.61346e-07
5.50403e-07
4.47026e-09
2.87816e-07
1.23882e-08
7.8855e-07
1.93958e-08
1.21729e-06
2.26125e-08
1.57777e-06
2.0659e-08
1.87673e-06
1.34094e-08
2.12374e-06
1.58599e-09
2.32968e-06
-1.36621e-08
2.50503e-06
-3.1082e-08
2.65848e-06
-4.95644e-08
2.79619e-06
-6.82427e-08
2.92172e-06
-8.65093e-08
3.03637e-06
-1.03979e-07
3.13981e-06
-1.20436e-07
3.23074e-06
-1.3578e-07
3.3074e-06
-1.49983e-07
3.36808e-06
-1.63067e-07
3.41134e-06
-1.75091e-07
3.43622e-06
-1.86136e-07
3.4423e-06
-1.96307e-07
3.42977e-06
-2.05721e-07
3.39936e-06
-2.14507e-07
3.35231e-06
-2.22796e-07
3.29027e-06
-2.30717e-07
3.21519e-06
-2.38392e-07
3.12918e-06
-2.4593e-07
3.03442e-06
-2.53421e-07
2.933e-06
-2.60939e-07
2.82688e-06
-2.6854e-07
2.71774e-06
-2.7626e-07
2.60701e-06
-2.84122e-07
2.49579e-06
-2.92135e-07
2.38488e-06
-3.00298e-07
2.27478e-06
-3.08607e-07
2.16577e-06
-3.17051e-07
2.05792e-06
-3.25619e-07
1.95113e-06
-3.34302e-07
1.84521e-06
-3.43093e-07
1.73992e-06
-3.51988e-07
1.63496e-06
-3.60985e-07
1.53006e-06
-3.70087e-07
1.42497e-06
-3.793e-07
1.31947e-06
-3.88634e-07
1.2134e-06
-3.98098e-07
1.10661e-06
-4.07704e-07
9.99049e-07
-4.17465e-07
8.90664e-07
-4.27391e-07
7.81455e-07
-4.37496e-07
6.71451e-07
5.60698e-07
5.40359e-09
2.82413e-07
1.58276e-08
7.78126e-07
2.6572e-08
1.20654e-06
3.43811e-08
1.56996e-06
3.7517e-08
1.8736e-06
3.55584e-08
2.1257e-06
2.90261e-08
2.33621e-06
1.89665e-08
2.51509e-06
6.57956e-09
2.67087e-06
-7.02595e-09
2.8098e-06
-2.09678e-08
2.93566e-06
-3.46269e-08
3.05003e-06
-4.76211e-08
3.15281e-06
-5.97479e-08
3.24286e-06
-7.09477e-08
3.3186e-06
-8.12188e-08
3.37835e-06
-9.06251e-08
3.42075e-06
-9.9258e-08
3.44485e-06
-1.07227e-07
3.45027e-06
-1.14651e-07
3.43719e-06
-1.21654e-07
3.40636e-06
-1.28358e-07
3.35901e-06
-1.34877e-07
3.29679e-06
-1.41316e-07
3.22163e-06
-1.4776e-07
3.13563e-06
-1.5428e-07
3.04094e-06
-1.60926e-07
2.93965e-06
-1.6773e-07
2.83368e-06
-1.74708e-07
2.72472e-06
-1.81862e-07
2.61417e-06
-1.89184e-07
2.50311e-06
-1.9666e-07
2.39235e-06
-2.04273e-07
2.28239e-06
-2.12006e-07
2.1735e-06
-2.19845e-07
2.06576e-06
-2.27778e-07
1.95906e-06
-2.358e-07
1.85324e-06
-2.43912e-07
1.74803e-06
-2.52117e-07
1.64317e-06
-2.60427e-07
1.53837e-06
-2.68855e-07
1.4334e-06
-2.77418e-07
1.32804e-06
-2.86135e-07
1.22211e-06
-2.95028e-07
1.11551e-06
-3.04117e-07
1.00814e-06
-3.1342e-07
8.99967e-07
-3.22956e-07
7.9099e-07
-3.3274e-07
6.81235e-07
5.70746e-07
6.26829e-09
2.76145e-07
1.90682e-08
7.65326e-07
3.34186e-08
1.19219e-06
4.57256e-08
1.55765e-06
5.39056e-08
1.86542e-06
5.72383e-08
2.12237e-06
5.60263e-08
2.33743e-06
5.11824e-08
2.51994e-06
4.38512e-08
2.6782e-06
3.51319e-08
2.81852e-06
2.59179e-08
2.94488e-06
1.68405e-08
3.05911e-06
8.2819e-09
3.16137e-06
4.24116e-10
3.25072e-06
-6.66019e-09
3.32569e-06
-1.30379e-08
3.38473e-06
-1.87999e-08
3.42651e-06
-2.40667e-08
3.45012e-06
-2.8972e-08
3.45517e-06
-3.3651e-08
3.44187e-06
-3.82318e-08
3.41094e-06
-4.28305e-08
3.36361e-06
-4.75453e-08
3.30151e-06
-5.24539e-08
3.22654e-06
-5.76116e-08
3.14078e-06
-6.30505e-08
3.04638e-06
-6.87819e-08
2.94538e-06
-7.47985e-08
2.8397e-06
-8.10787e-08
2.731e-06
-8.75912e-08
2.62068e-06
-9.42997e-08
2.50982e-06
-1.01168e-07
2.39922e-06
-1.08163e-07
2.28939e-06
-1.15256e-07
2.1806e-06
-1.22429e-07
2.07293e-06
-1.29671e-07
1.9663e-06
-1.3698e-07
1.86055e-06
-1.44364e-07
1.75541e-06
-1.51836e-07
1.65064e-06
-1.59417e-07
1.54595e-06
-1.67131e-07
1.44112e-06
-1.75007e-07
1.33591e-06
-1.83075e-07
1.23018e-06
-1.91365e-07
1.1238e-06
-1.99906e-07
-2.08721e-07
-2.17836e-07
-2.27272e-07
7.05885e-09
2.69086e-07
2.20875e-08
7.50298e-07
3.98864e-08
1.17439e-06
5.65654e-08
1.54097e-06
6.9713e-08
1.85227e-06
7.83079e-08
2.11377e-06
8.24192e-08
2.33331e-06
8.28098e-08
2.51955e-06
8.05504e-08
2.68046e-06
7.672e-08
2.82235e-06
7.22201e-08
2.94938e-06
6.76973e-08
3.06363e-06
6.35436e-08
3.16552e-06
5.99415e-08
3.25432e-06
5.6909e-08
3.32872e-06
5.43852e-08
3.38726e-06
5.22427e-08
3.42865e-06
5.03293e-08
3.45203e-06
4.84877e-08
3.45701e-06
4.65683e-08
3.44379e-06
4.44376e-08
3.41307e-06
4.19855e-08
3.36606e-06
3.91285e-08
3.30436e-06
3.58126e-08
3.22985e-06
3.20129e-08
3.14458e-06
2.77317e-08
3.05066e-06
2.29951e-08
2.95012e-06
1.78475e-08
2.84485e-06
1.23456e-08
2.7365e-06
6.55231e-09
2.62647e-06
5.30697e-10
2.51584e-06
-5.66002e-09
2.40541e-06
-1.19718e-08
2.2957e-06
-1.83669e-08
2.18699e-06
-2.48211e-08
2.07938e-06
-3.13234e-08
1.97281e-06
-3.78757e-08
1.8671e-06
-4.44913e-08
1.76203e-06
-5.11929e-08
1.65734e-06
-5.80104e-08
1.55277e-06
-6.4979e-08
1.44808e-06
-7.21373e-08
1.34307e-06
-7.95257e-08
1.23757e-06
1.13145e-06
7.77086e-09
2.61315e-07
2.48658e-08
7.33203e-07
4.59307e-08
1.15333e-06
6.68248e-08
1.52008e-06
8.48319e-08
1.83426e-06
9.86315e-08
2.09997e-06
1.08047e-07
2.3239e-06
1.13674e-07
2.51392e-06
1.16492e-07
2.67764e-06
1.17548e-07
2.82129e-06
1.17746e-07
2.94918e-06
1.17749e-07
3.06363e-06
1.17959e-07
3.16531e-06
1.18555e-07
3.25373e-06
1.19554e-07
3.32772e-06
1.2086e-07
3.38595e-06
1.22323e-07
3.42719e-06
1.23763e-07
3.45059e-06
1.25001e-07
3.45578e-06
1.25873e-07
3.44292e-06
1.26239e-07
3.4127e-06
1.25993e-07
3.36631e-06
1.25065e-07
3.30529e-06
1.23422e-07
3.23149e-06
1.21067e-07
3.14694e-06
1.18034e-07
3.05369e-06
1.14383e-07
2.95377e-06
1.10193e-07
2.84904e-06
1.05556e-07
2.74114e-06
1.00563e-07
2.63147e-06
9.53036e-08
2.5211e-06
8.98571e-08
2.41086e-06
8.42885e-08
2.30127e-06
7.86454e-08
2.19264e-06
7.29575e-08
2.08507e-06
6.72368e-08
1.97853e-06
6.14788e-08
1.87286e-06
5.56648e-08
1.76784e-06
4.97645e-08
1.66324e-06
4.3739e-08
1.5588e-06
3.75434e-08
1.45428e-06
3.11293e-08
1.34949e-06
2.44473e-08
1.24425e-06
1.13845e-06
8.40095e-09
2.52914e-07
2.73867e-08
7.14217e-07
5.15119e-08
1.1292e-06
7.64341e-08
1.49516e-06
9.91605e-08
1.81154e-06
1.18078e-07
2.08105e-06
1.32756e-07
2.30922e-06
1.43604e-07
2.50307e-06
1.51494e-07
2.66975e-06
1.57427e-07
2.81536e-06
1.62305e-07
2.9443e-06
1.66803e-07
3.05913e-06
1.7134e-07
3.16077e-06
1.76101e-07
3.24897e-06
1.81094e-07
3.32273e-06
1.86209e-07
3.38083e-06
1.91269e-07
3.42213e-06
1.96072e-07
3.44579e-06
2.00417e-07
3.45143e-06
2.04125e-07
3.43921e-06
2.07049e-07
3.40978e-06
2.09085e-07
3.36427e-06
2.10174e-07
3.3042e-06
2.10299e-07
3.23137e-06
2.09489e-07
3.14775e-06
2.07807e-07
3.05537e-06
2.05344e-07
2.95623e-06
2.02212e-07
2.85217e-06
1.98531e-07
2.74482e-06
1.94423e-07
2.63557e-06
1.90003e-07
2.52552e-06
1.85369e-07
2.41549e-06
1.80603e-07
2.30603e-06
1.75763e-07
2.19748e-06
1.70884e-07
2.08995e-06
1.65982e-07
1.98343e-06
1.6105e-07
1.87779e-06
1.56066e-07
1.77283e-06
1.50992e-07
1.66832e-06
1.45781e-07
1.56401e-06
1.40381e-07
1.45968e-06
1.34734e-07
1.35513e-06
1.28782e-07
1.2502e-06
1.14477e-06
8.94678e-09
2.43967e-07
2.96366e-08
6.93527e-07
5.65953e-08
1.10224e-06
8.53297e-08
1.46642e-06
1.12603e-07
1.78426e-06
1.36521e-07
2.05714e-06
1.56394e-07
2.28935e-06
1.7243e-07
2.48704e-06
1.85375e-07
2.65681e-06
1.96171e-07
2.80456e-06
2.05706e-07
2.93477e-06
2.1467e-07
3.05017e-06
2.23498e-07
3.15195e-06
2.32388e-07
3.24008e-06
2.41347e-07
3.31377e-06
2.50253e-07
3.37193e-06
2.5891e-07
3.41347e-06
2.67094e-07
3.4376e-06
2.74584e-07
3.44394e-06
2.81184e-07
3.43261e-06
2.86741e-07
3.40422e-06
2.91149e-07
3.35987e-06
2.94355e-07
3.301e-06
2.9636e-07
3.22936e-06
2.9721e-07
3.1469e-06
2.96995e-07
3.05559e-06
2.95833e-07
2.95739e-06
2.93866e-07
2.85414e-06
2.91242e-07
2.74745e-06
2.88111e-07
2.63871e-06
2.8461e-07
2.52902e-06
2.80858e-07
2.41924e-06
2.76953e-07
2.30994e-06
2.72965e-07
2.20146e-06
2.68937e-07
2.09398e-06
2.64887e-07
1.98748e-06
2.60809e-07
1.88187e-06
2.56677e-07
1.77696e-06
2.52449e-07
1.67254e-06
2.48073e-07
1.56838e-06
2.43486e-07
1.46427e-06
2.38624e-07
1.36e-06
2.3342e-07
1.25541e-06
1.15038e-06
9.40699e-09
2.3456e-07
3.16051e-08
6.71329e-07
6.11516e-08
1.0727e-06
9.34548e-08
1.43412e-06
1.2507e-07
1.75265e-06
1.5384e-07
2.02837e-06
1.78813e-07
2.26437e-06
1.99984e-07
2.46586e-06
2.17954e-07
2.63884e-06
2.3359e-07
2.78893e-06
2.47759e-07
2.9206e-06
2.61158e-07
3.03677e-06
2.74243e-07
3.13886e-06
2.87229e-07
3.22709e-06
3.00127e-07
3.30087e-06
3.1281e-07
3.35925e-06
3.25068e-07
3.40121e-06
3.36658e-07
3.42601e-06
3.47338e-07
3.43326e-06
3.56899e-07
3.42305e-06
3.65175e-07
3.39595e-06
3.72058e-07
3.35298e-06
3.77498e-07
3.29556e-06
3.81506e-07
3.22536e-06
3.84145e-07
3.14426e-06
3.85525e-07
3.05421e-06
3.8579e-07
2.95713e-06
3.85106e-07
2.85482e-06
3.83648e-07
2.7489e-06
3.81591e-07
2.64076e-06
3.79095e-07
2.53152e-06
3.763e-07
2.42204e-06
3.73317e-07
2.31292e-06
3.70231e-07
2.20455e-06
3.67094e-07
2.09711e-06
3.63927e-07
1.99065e-06
3.60728e-07
1.88507e-06
3.57469e-07
1.78022e-06
3.54104e-07
1.67591e-06
3.50576e-07
1.57191e-06
3.46816e-07
1.46803e-06
3.42753e-07
1.36406e-06
3.38313e-07
1.25985e-06
1.15527e-06
9.78118e-09
2.24779e-07
3.32851e-08
6.47825e-07
6.51569e-08
1.04083e-06
1.0076e-07
1.39852e-06
1.36482e-07
1.71692e-06
1.69922e-07
1.99492e-06
1.99871e-07
2.23443e-06
2.26101e-07
2.43964e-06
2.49052e-07
2.61589e-06
2.69498e-07
2.76848e-06
2.88272e-07
2.90182e-06
3.06075e-07
3.01896e-06
3.23384e-07
3.12155e-06
3.40432e-07
3.21004e-06
3.57244e-07
3.28406e-06
3.73694e-07
3.3428e-06
3.89561e-07
3.38535e-06
4.04587e-07
3.41099e-06
4.18512e-07
3.41934e-06
4.31109e-07
3.41045e-06
4.42201e-07
3.38486e-06
4.51672e-07
3.34351e-06
4.59474e-07
3.28775e-06
4.65622e-07
3.21921e-06
4.70191e-07
3.13969e-06
4.73309e-07
3.05109e-06
4.75138e-07
2.9553e-06
4.75867e-07
2.85409e-06
4.75696e-07
2.74908e-06
4.74821e-07
2.64164e-06
4.73423e-07
2.53292e-06
4.71663e-07
2.4238e-06
4.69669e-07
2.31491e-06
4.67539e-07
2.20668e-06
4.65334e-07
2.09932e-06
4.63083e-07
1.9929e-06
4.60787e-07
1.88736e-06
4.58419e-07
1.78259e-06
4.55931e-07
1.67839e-06
4.53263e-07
1.57458e-06
4.50341e-07
1.47095e-06
4.47087e-07
1.36731e-06
4.43421e-07
1.26352e-06
1.15943e-06
1.00699e-08
2.14709e-07
3.46723e-08
6.23223e-07
6.85931e-08
1.00691e-06
1.07202e-07
1.35991e-06
1.46763e-07
1.67736e-06
1.8466e-07
1.95703e-06
2.19431e-07
2.19965e-06
2.50619e-07
2.40845e-06
2.78488e-07
2.58802e-06
3.03703e-07
2.74327e-06
3.2705e-07
2.87848e-06
3.49226e-07
2.99679e-06
3.70724e-07
3.10005e-06
3.91803e-07
3.18896e-06
4.12507e-07
3.26336e-06
4.32714e-07
3.32259e-06
4.52201e-07
3.36586e-06
4.70696e-07
3.39249e-06
4.87924e-07
3.40211e-06
5.0364e-07
3.39473e-06
5.17653e-07
3.37084e-06
5.29837e-07
3.33133e-06
5.40139e-07
3.27745e-06
5.48576e-07
3.21077e-06
5.5523e-07
3.13303e-06
5.6024e-07
3.04608e-06
5.63785e-07
2.95175e-06
5.66071e-07
2.85181e-06
5.67317e-07
2.74783e-06
5.67742e-07
2.64121e-06
5.67547e-07
2.53311e-06
5.6691e-07
2.42443e-06
5.65979e-07
2.31585e-06
5.64863e-07
2.2078e-06
5.63636e-07
2.10055e-06
5.62337e-07
1.9942e-06
5.60969e-07
1.88873e-06
5.59511e-07
1.78405e-06
5.57914e-07
1.67999e-06
5.56116e-07
1.57638e-06
5.5404e-07
1.47302e-06
5.51603e-07
1.36975e-06
5.48719e-07
1.2664e-06
1.16284e-06
1.02745e-08
2.04435e-07
3.57656e-08
5.97732e-07
7.14479e-08
9.71223e-07
1.12749e-07
1.31861e-06
1.55852e-07
1.63426e-06
1.97956e-07
1.91492e-06
2.37363e-07
2.16025e-06
2.73381e-07
2.37243e-06
3.06085e-07
2.55531e-06
3.36016e-07
2.71334e-06
3.63897e-07
2.8506e-06
3.90409e-07
2.97028e-06
4.16064e-07
3.0744e-06
4.41144e-07
3.16388e-06
4.65716e-07
3.23879e-06
4.89673e-07
3.29863e-06
5.12791e-07
3.34274e-06
5.3479e-07
3.37049e-06
5.55382e-07
3.38152e-06
5.74304e-07
3.37581e-06
5.91349e-07
3.3538e-06
6.06378e-07
3.3163e-06
6.19329e-07
3.2645e-06
6.30216e-07
3.19988e-06
6.39122e-07
3.12413e-06
6.46193e-07
3.03901e-06
6.51617e-07
2.94633e-06
6.55617e-07
2.84781e-06
6.58427e-07
2.74502e-06
6.60284e-07
2.63936e-06
6.61407e-07
2.53199e-06
6.61995e-07
2.42385e-06
6.62208e-07
2.31563e-06
6.62175e-07
2.20783e-06
6.6198e-07
2.10074e-06
6.61672e-07
1.9945e-06
6.61263e-07
1.88914e-06
6.60735e-07
1.78457e-06
6.60045e-07
1.68068e-06
6.59127e-07
1.5773e-06
6.57905e-07
1.47425e-06
6.56291e-07
1.37136e-06
6.54195e-07
1.2685e-06
1.16551e-06
1.03972e-08
1.94037e-07
3.65669e-08
5.71562e-07
7.37146e-08
9.34075e-07
1.17373e-07
1.27495e-06
1.63693e-07
1.58794e-06
2.09721e-07
1.8689e-06
2.53542e-07
2.11643e-06
2.94232e-07
2.33174e-06
3.31666e-07
2.51788e-06
3.66244e-07
2.67876e-06
3.9861e-07
2.81823e-06
4.29421e-07
2.93946e-06
4.59197e-07
3.04462e-06
4.88248e-07
3.13483e-06
5.16667e-07
3.21037e-06
5.44364e-07
3.27094e-06
5.71124e-07
3.31598e-06
5.96664e-07
3.34495e-06
6.20681e-07
3.3575e-06
6.42899e-07
3.35359e-06
6.63092e-07
3.33361e-06
6.81104e-07
3.29829e-06
6.96861e-07
3.24874e-06
7.10368e-07
3.18638e-06
7.21706e-07
3.11279e-06
7.31018e-07
3.0297e-06
7.38502e-07
2.93885e-06
7.44387e-07
2.84192e-06
7.48923e-07
2.74048e-06
7.52358e-07
2.63592e-06
7.54932e-07
2.52942e-06
7.56856e-07
2.42192e-06
7.58312e-07
2.31418e-06
7.59439e-07
2.2067e-06
7.6034e-07
2.09984e-06
7.61072e-07
1.99377e-06
7.61659e-07
1.88855e-06
7.62089e-07
1.78414e-06
7.62322e-07
1.68045e-06
7.62298e-07
1.57732e-06
7.61937e-07
1.47461e-06
7.61152e-07
1.37215e-06
7.5985e-07
1.2698e-06
1.16743e-06
1.04409e-08
1.83596e-07
3.70808e-08
5.44922e-07
7.53924e-08
8.95763e-07
1.21059e-07
1.22928e-06
1.70243e-07
1.53876e-06
2.19879e-07
1.81926e-06
2.67856e-07
2.06845e-06
3.13026e-07
2.28657e-06
3.55057e-07
2.47585e-06
3.94194e-07
2.63962e-06
4.30986e-07
2.78144e-06
4.66052e-07
2.9044e-06
4.99913e-07
3.01076e-06
5.32903e-07
3.10184e-06
5.65145e-07
3.17812e-06
5.96573e-07
3.23951e-06
6.26986e-07
3.28557e-06
6.561e-07
3.31584e-06
6.83606e-07
3.32999e-06
7.09209e-07
3.32799e-06
7.32667e-07
3.31015e-06
7.53805e-07
3.27715e-06
7.72531e-07
3.23002e-06
7.88838e-07
3.17007e-06
8.02796e-07
3.09883e-06
8.14545e-07
3.01795e-06
8.24281e-07
2.92911e-06
8.3224e-07
2.83396e-06
8.38678e-07
2.73404e-06
8.43857e-07
2.63074e-06
8.48029e-07
2.52524e-06
8.51422e-07
2.41853e-06
8.54231e-07
2.31137e-06
8.56614e-07
2.20432e-06
8.58686e-07
2.09777e-06
8.60519e-07
1.99194e-06
8.62148e-07
1.88692e-06
8.6357e-07
1.78272e-06
8.64752e-07
1.67927e-06
8.65638e-07
1.57644e-06
8.6615e-07
1.47409e-06
8.66203e-07
1.3721e-06
8.657e-07
1.2703e-06
1.16859e-06
1.04093e-08
1.73187e-07
3.73144e-08
5.18017e-07
7.64858e-08
8.56592e-07
1.23798e-07
1.18197e-06
1.75469e-07
1.48709e-06
2.28364e-07
1.76637e-06
2.80202e-07
2.01661e-06
3.29624e-07
2.23715e-06
3.7609e-07
2.42938e-06
4.19675e-07
2.59604e-06
4.60818e-07
2.74029e-06
5.00086e-07
2.86513e-06
5.37991e-07
2.97286e-06
5.74888e-07
3.06494e-06
6.10929e-07
3.14208e-06
6.46078e-07
3.20436e-06
6.80151e-07
3.2515e-06
7.12872e-07
3.28312e-06
7.43924e-07
3.29894e-06
7.73002e-07
3.29891e-06
7.99842e-07
3.28331e-06
8.2425e-07
3.25274e-06
8.46114e-07
3.20815e-06
8.65406e-07
3.15078e-06
8.82182e-07
3.08206e-06
8.96574e-07
3.00356e-06
9.08771e-07
2.91691e-06
9.19007e-07
2.82373e-06
9.27544e-07
2.72551e-06
9.34649e-07
2.62364e-06
9.40586e-07
2.51931e-06
9.45597e-07
2.41352e-06
9.4989e-07
2.30707e-06
9.53641e-07
2.20057e-06
9.56977e-07
2.09443e-06
9.59988e-07
1.98893e-06
9.62719e-07
1.88419e-06
9.65179e-07
1.78026e-06
9.67344e-07
1.6771e-06
9.69163e-07
1.57462e-06
9.70567e-07
1.47269e-06
9.71468e-07
1.37119e-06
9.71774e-07
1.27e-06
1.16898e-06
1.03063e-08
1.62881e-07
3.72774e-08
4.91046e-07
7.70047e-08
8.16865e-07
1.25589e-07
1.13338e-06
1.7935e-07
1.43332e-06
2.35121e-07
1.71059e-06
2.90489e-07
1.96124e-06
3.43897e-07
2.18374e-06
3.946e-07
2.37868e-06
4.42495e-07
2.54814e-06
4.87897e-07
2.69489e-06
5.31302e-07
2.82173e-06
5.73205e-07
2.93095e-06
6.13973e-07
3.02418e-06
6.53788e-07
3.10227e-06
6.92645e-07
3.1655e-06
7.30383e-07
3.21376e-06
7.66737e-07
3.24676e-06
8.01392e-07
3.26429e-06
8.34029e-07
3.26628e-06
8.64368e-07
3.25297e-06
8.9219e-07
3.22492e-06
9.1736e-07
3.18298e-06
9.39828e-07
3.12831e-06
9.59631e-07
3.06225e-06
9.76882e-07
2.98631e-06
9.9176e-07
2.90203e-06
1.00449e-06
2.81099e-06
1.01534e-06
2.71466e-06
1.02458e-06
2.6144e-06
1.03247e-06
2.51142e-06
1.03926e-06
2.40672e-06
1.0452e-06
2.30114e-06
1.05044e-06
2.19532e-06
1.05516e-06
2.08972e-06
1.05944e-06
1.98465e-06
1.06335e-06
1.88028e-06
1.06691e-06
1.7767e-06
1.0701e-06
1.67391e-06
1.07289e-06
1.57183e-06
1.07521e-06
1.47037e-06
1.07698e-06
1.36942e-06
1.07811e-06
1.26887e-06
1.16859e-06
1.01366e-08
1.52744e-07
3.69812e-08
4.64201e-07
7.69635e-08
7.76883e-07
1.26441e-07
1.08391e-06
1.81874e-07
1.37789e-06
2.40111e-07
1.65236e-06
2.98638e-07
1.90272e-06
3.55726e-07
2.12665e-06
4.10431e-07
2.32398e-06
4.62467e-07
2.4961e-06
5.12011e-07
2.64535e-06
5.59475e-07
2.77426e-06
6.0532e-07
2.88511e-06
6.49919e-07
2.97958e-06
6.93479e-07
3.05871e-06
7.36029e-07
3.12295e-06
7.77434e-07
3.17235e-06
8.17446e-07
3.20675e-06
8.55754e-07
3.22598e-06
8.92031e-07
3.23e-06
9.25978e-07
3.21902e-06
9.57357e-07
3.19354e-06
9.86003e-07
3.15434e-06
1.01184e-06
3.10247e-06
1.03488e-06
3.03921e-06
1.05522e-06
2.96597e-06
1.07301e-06
2.88424e-06
1.08847e-06
2.79553e-06
1.10186e-06
2.70127e-06
1.11345e-06
2.60282e-06
1.1235e-06
2.50136e-06
1.13228e-06
2.39794e-06
1.14002e-06
2.2934e-06
1.14693e-06
2.18842e-06
1.15316e-06
2.08349e-06
1.15882e-06
1.97898e-06
1.16401e-06
1.8751e-06
1.16874e-06
1.77197e-06
1.17303e-06
1.66962e-06
1.17684e-06
1.56802e-06
1.18012e-06
1.4671e-06
1.18278e-06
1.36676e-06
1.18475e-06
1.2669e-06
1.16741e-06
9.90483e-09
1.42839e-07
3.6439e-08
4.37667e-07
7.63808e-08
7.36941e-07
1.26369e-07
1.03392e-06
1.83044e-07
1.32122e-06
2.43307e-07
1.59209e-06
3.04585e-07
1.84144e-06
3.65005e-07
2.06623e-06
4.23435e-07
2.26555e-06
4.79409e-07
2.44013e-06
5.32951e-07
2.59181e-06
5.84375e-07
2.72284e-06
6.34096e-07
2.83539e-06
6.82479e-07
2.9312e-06
7.29752e-07
3.01143e-06
7.75975e-07
3.07673e-06
8.21045e-07
3.12728e-06
8.64734e-07
3.16306e-06
9.06739e-07
3.18397e-06
9.46729e-07
3.19001e-06
9.84392e-07
3.18136e-06
1.01946e-06
3.15847e-06
1.05175e-06
3.12205e-06
1.08115e-06
3.07307e-06
1.10764e-06
3.01272e-06
1.1313e-06
2.94232e-06
1.15224e-06
2.86329e-06
1.17069e-06
2.77708e-06
1.18687e-06
2.68509e-06
1.20104e-06
2.58864e-06
1.21349e-06
2.48892e-06
1.22447e-06
2.38696e-06
1.23422e-06
2.28365e-06
1.24296e-06
2.17968e-06
1.25086e-06
2.07559e-06
1.25806e-06
1.97178e-06
1.26464e-06
1.86852e-06
1.27065e-06
1.76595e-06
1.27611e-06
1.66415e-06
1.28101e-06
1.56312e-06
1.28529e-06
1.46281e-06
1.2889e-06
1.36315e-06
1.29174e-06
1.26405e-06
1.16542e-06
9.61611e-09
1.33223e-07
3.56649e-08
4.11618e-07
7.52787e-08
6.97327e-07
1.25397e-07
9.83801e-07
1.82869e-07
1.26374e-06
2.44695e-07
1.53027e-06
3.08281e-07
1.77785e-06
3.71641e-07
2.00287e-06
4.33478e-07
2.20371e-06
4.93145e-07
2.38046e-06
5.50508e-07
2.53444e-06
6.05772e-07
2.66757e-06
6.59285e-07
2.78187e-06
7.11396e-07
2.87908e-06
7.62345e-07
2.96049e-06
8.12219e-07
3.02685e-06
8.60948e-07
3.07855e-06
9.08327e-07
3.11568e-06
9.54067e-07
3.13823e-06
9.97837e-07
3.14624e-06
1.03931e-06
3.13988e-06
1.0782e-06
3.11957e-06
1.1143e-06
3.08596e-06
1.14745e-06
3.03992e-06
1.17761e-06
2.98256e-06
1.20481e-06
2.91512e-06
1.22917e-06
2.83894e-06
1.25085e-06
2.7554e-06
1.27008e-06
2.66586e-06
1.28711e-06
2.57161e-06
1.3022e-06
2.47383e-06
1.31561e-06
2.37354e-06
1.3276e-06
2.27166e-06
1.33839e-06
2.16889e-06
1.34815e-06
2.06583e-06
1.35703e-06
1.9629e-06
1.36515e-06
1.8604e-06
1.37257e-06
1.75854e-06
1.37931e-06
1.65741e-06
1.38538e-06
1.55705e-06
1.39075e-06
1.45745e-06
1.39535e-06
1.35855e-06
1.39912e-06
1.26028e-06
1.16256e-06
9.27538e-09
1.23948e-07
3.46739e-08
3.8622e-07
7.36811e-08
6.5832e-07
1.2355e-07
9.33933e-07
1.81369e-07
1.20592e-06
2.44273e-07
1.46737e-06
3.0969e-07
1.71243e-06
3.75558e-07
1.937e-06
4.40436e-07
2.13883e-06
5.03507e-07
2.31739e-06
5.64479e-07
2.47347e-06
6.2343e-07
2.60862e-06
6.80634e-07
2.72467e-06
7.36404e-07
2.82331e-06
7.90984e-07
2.90591e-06
8.44482e-07
2.97336e-06
8.96858e-07
3.02618e-06
9.47936e-07
3.06461e-06
9.97442e-07
3.08873e-06
1.04505e-06
3.09863e-06
1.09043e-06
3.09451e-06
1.13326e-06
3.07674e-06
1.17331e-06
3.04591e-06
1.2104e-06
3.00283e-06
1.24444e-06
2.94852e-06
1.27543e-06
2.88413e-06
1.30345e-06
1.32863e-06
1.35119e-06
1.37134e-06
1.38935e-06
1.40546e-06
1.41994e-06
1.43299e-06
1.44483e-06
1.4556e-06
1.46543e-06
1.4744e-06
1.48256e-06
1.48992e-06
1.49646e-06
1.50214e-06
1.5069e-06
8.88767e-09
3.34812e-08
7.16137e-08
1.20859e-07
1.78569e-07
2.42048e-07
3.08789e-07
3.76691e-07
4.44199e-07
5.1034e-07
5.74667e-07
6.37124e-07
6.97893e-07
7.5724e-07
8.15397e-07
8.72487e-07
9.28497e-07
9.83278e-07
1.03658e-06
1.08807e-06
1.13743e-06
1.18432e-06
1.22846e-06
1.26966e-06
1.30778e-06
)
;

boundaryField
{
    movingWall
    {