/*--------------------------------*- C++ -*----------------------------------*\
  =========                 |
  \\      /  F ield         | OpenFOAM: The Open Source CFD Toolbox
   \\    /   O peration     | Website:  https://openfoam.org
    \\  /    A nd           | Version:  9
     \\/     M anipulation  |
\*---------------------------------------------------------------------------*/
FoamFile
{
    format      ascii;
    class       volVectorField;
    location    "2";
    object      U;
}
// * * * * * * * * * * * * * * * * * * * * * * * * * * * * * * * * * * * * * //

dimensions      [0 1 -1 0 0 0 0];

internalField   nonuniform List<vector> 
1250
(
(-0.000131457 0.0286247 0)
(-0.00110338 0.0753054 0)
(-9.34717e-05 0.0291317 0)
(-0.000887338 0.0768658 0)
(-0.00281214 0.115267 0)
(-0.00570804 0.145818 0)
(-0.00943615 0.170191 0)
(-0.0138422 0.190052 0)
(-0.0187553 0.206872 0)
(-0.0240173 0.221798 0)
(-0.0294964 0.235607 0)
(-0.035088 0.248733 0)
(-0.0407103 0.261326 0)
(-0.0462977 0.27334 0)
(-0.051794 0.284608 0)
(-0.0571486 0.294907 0)
(-0.0623137 0.303998 0)
(-0.0672446 0.311663 0)
(-0.0719003 0.317716 0)
(-0.0762452 0.322017 0)
(-0.0802512 0.32448 0)
(-0.083899 0.325072 0)
(-0.0871795 0.323819 0)
(-0.0900946 0.320796 0)
(-0.0926566 0.316128 0)
(-0.094888 0.309974 0)
(-0.0968197 0.302525 0)
(-0.0984889 0.293986 0)
(-0.0999373 0.284568 0)
(-0.101208 0.274473 0)
(-0.102344 0.26389 0)
(-0.103386 0.252987 0)
(-0.10437 0.2419 0)
(-0.105326 0.230741 0)
(-0.106281 0.219589 0)
(-0.107252 0.208498 0)
(-5.51462e-05 0.0295222 0)
(-0.000666403 0.0781557 0)
(-0.00225388 0.11749 0)
(-0.00474349 0.148919 0)
(-0.00803847 0.174043 0)
(-0.0120043 0.194497 0)
(-0.0164791 0.211745 0)
(-0.0213056 0.226954 0)
(-0.0263487 0.240926 0)
(-0.0315 0.254119 0)
(-0.0366751 0.266705 0)
(-0.0418076 0.278651 0)
(-0.0468433 0.289799 0)
(-0.0517346 0.299931 0)
(-0.0564386 0.308812 0)
(-0.0609158 0.316227 0)
(-0.0651311 0.321994 0)
(-0.0690547 0.325982 0)
(-0.0726641 0.32811 0)
(-0.075945 0.328356 0)
(-0.0788926 0.326755 0)
(-0.0815119 0.323392 0)
(-0.0838173 0.318403 0)
(-0.085832 0.311955 0)
(-0.0875861 0.304245 0)
(-0.0891152 0.295483 0)
(-0.0904577 0.285882 0)
(-0.0916532 0.275646 0)
(-0.0927402 0.264961 0)
(-0.0937544 0.253991 0)
(-0.0947272 0.24287 0)
(-0.0956848 0.231701 0)
(-0.0966481 0.22056 0)
(-0.0976326 0.209494 0)
(-0.0986474 0.198528 0)
(-0.099699 0.187668 0)
(-0.100788 0.176907 0)
(-0.101913 0.166226 0)
(-0.103069 0.155602 0)
(-0.104251 0.145009 0)
(-0.105452 0.134421 0)
(-0.106664 0.123816 0)
(-0.107881 0.113172 0)
(-1.71391e-05 0.0297949 0)
(-0.000443304 0.0791661 0)
(-0.00168467 0.119337 0)
(-0.00375355 0.151593 0)
(-0.00659712 0.177449 0)
(-0.0101029 0.198492 0)
(-0.0141198 0.216173 0)
(-0.0184929 0.231668 0)
(-0.0230849 0.245802 0)
(-0.0277837 0.259058 0)
(-0.0325025 0.271631 0)
(-0.0371743 0.283505 0)
(-0.0417463 0.294531 0)
(-0.0461744 0.304497 0)
(-0.0504203 0.313174 0)
(-0.05445 0.32035 0)
(-0.0582339 0.32585 0)
(-0.061748 0.329546 0)
(-0.0649749 0.331368 0)
(-0.067905 0.3313 0)
(-0.070537 0.329387 0)
(-0.0728785 0.325723 0)
(-0.0749453 0.320451 0)
(-0.0767603 0.313747 0)
(-0.0783526 0.305813 0)
(-0.079755 0.296863 0)
(-0.0810026 0.287111 0)
(-0.0821309 0.27676 0)
(-0.0831738 0.265995 0)
(-0.0841621 0.254976 0)
(-0.0851226 0.243833 0)
(-0.0860771 0.232663 0)
(-0.0870427 0.221537 0)
(-0.0880316 0.210498 0)
(-0.0890513 0.199565 0)
(-0.0901051 0.188742 0)
(-0.091193 0.178015 0)
(-0.0923128 0.167366 0)
(-0.0934599 0.156769 0)
(-0.0946291 0.146196 0)
(-0.0958141 0.135622 0)
(-0.0970088 0.125024 0)
(-0.0982074 0.114382 0)
(-0.0994037 0.10368 0)
(-0.100594 0.092909 0)
(-0.101773 0.0820622 0)
(-0.102938 0.0711369 0)
(-0.104086 0.0601341 0)
(-0.105216 0.0490565 0)
(1.99854e-05 0.0299501 0)
(-0.000220675 0.0798933 0)
(-0.00111037 0.120797 0)
(-0.00274737 0.153823 0)
(-0.00512417 0.18039 0)
(-0.00815239 0.202018 0)
(-0.0116939 0.220136 0)
(-0.0155978 0.23592 0)
(-0.0197253 0.250218 0)
(-0.0239614 0.263537 0)
(-0.0282166 0.276094 0)
(-0.0324233 0.287893 0)
(-0.0365302 0.298796 0)
(-0.0404965 0.308601 0)
(-0.0442884 0.317084 0)
(-0.0478771 0.324036 0)
(-0.0512386 0.329289 0)
(-0.0543544 0.33272 0)
(-0.0572119 0.334265 0)
(-0.0598055 0.333918 0)
(-0.0621372 0.33173 0)
(-0.0642164 0.327804 0)
(-0.0660595 0.322288 0)
(-0.0676889 0.315366 0)
(-0.0691315 0.307244 0)
(-0.0704174 0.298138 0)
(-0.0715778 0.288263 0)
(-0.0726438 0.277821 0)
(-0.0736446 0.266996 0)
(-0.0746063 0.255942 0)
(-0.0755511 0.244786 0)
(-0.0764969 0.233622 0)
(-0.0774571 0.222514 0)
(-0.0784412 0.211502 0)
(-0.0794545 0.200601 0)
(-0.080499 0.189809 0)
(-0.0815739 0.179114 0)
(-0.0826767 0.168492 0)
(-0.0838031 0.157918 0)
(-0.0849483 0.147363 0)
(-0.0861069 0.1368 0)
(-0.0872738 0.126208 0)
(-0.0884441 0.115567 0)
(-0.0896134 0.104862 0)
(-0.0907777 0.094083 0)
(-0.0919339 0.0832252 0)
(-0.0930794 0.0722863 0)
(-0.0942127 0.0612678 0)
(-0.0953322 0.0501734 0)
(5.54009e-05 0.0299878 0)
(-1.01022e-06 0.0803358 0)
(-0.00053601 0.121863 0)
(-0.00173348 0.1556 0)
(-0.00363135 0.182851 0)
(-0.00616723 0.20506 0)
(-0.00921813 0.223618 0)
(-0.0126389 0.239699 0)
(-0.0162905 0.254165 0)
(-0.0200552 0.267548 0)
(-0.0238411 0.28009 0)
(-0.02758 0.291814 0)
(-0.0312216 0.302599 0)
(-0.0347283 0.312249 0)
(-0.0380707 0.320548 0)
(-0.0412251 0.327295 0)
(-0.044173 0.332322 0)
(-0.0469007 0.335516 0)
(-0.0494004 0.336816 0)
(-0.0516701 0.336224 0)
(-0.0537144 0.333798 0)
(-0.055544 0.329648 0)
(-0.0571755 0.323927 0)
(-0.0586299 0.316824 0)
(-0.0599319 0.308547 0)
(-0.0611083 0.299314 0)
(-0.0621862 0.289342 0)
(-0.0631921 0.278831 0)
(-0.0641505 0.267961 0)
(-0.0650829 0.256886 0)
(-0.0660071 0.245725 0)
(-0.0669374 0.23457 0)
(-0.0678841 0.223482 0)
(-0.0688539 0.212495 0)
(-0.0698505 0.201623 0)
(-0.0708748 0.19086 0)
(-0.0719257 0.180192 0)
(-0.0730005 0.169594 0)
(-0.0740955 0.159039 0)
(-0.0752065 0.148499 0)
(-0.0763293 0.137947 0)
(-0.0774596 0.127361 0)
(-0.0785936 0.116721 0)
(-0.0797281 0.106013 0)
(-0.0808602 0.0952295 0)
(-0.0819877 0.0843642 0)
(-0.0831088 0.073416 0)
(-0.0842228 0.062387 0)
(-0.0853285 0.0512811 0)
(9.02004e-05 0.0299104 0)
(0.000215174 0.0804944 0)
(3.32305e-05 0.122533 0)
(-0.000720565 0.156916 0)
(-0.00213022 0.18482 0)
(-0.0041616 0.207603 0)
(-0.00670895 0.226607 0)
(-0.00963462 0.242993 0)
(-0.0128004 0.257634 0)
(-0.0160866 0.271086 0)
(-0.019399 0.283616 0)
(-0.0226684 0.295269 0)
(-0.0258456 0.305939 0)
(-0.0288958 0.315444 0)
(-0.0317936 0.323574 0)
(-0.0345203 0.330133 0)
(-0.0370626 0.33496 0)
(-0.0394116 0.337944 0)
(-0.0415635 0.339032 0)
(-0.0435198 0.338231 0)
(-0.0452872 0.335604 0)
(-0.0468773 0.331267 0)
(-0.0483061 0.325378 0)
(-0.0495933 0.318127 0)
(-0.0507609 0.309727 0)
(-0.0518318 0.300397 0)
(-0.0528292 0.290351 0)
(-0.053775 0.279789 0)
(-0.0546888 0.26889 0)
(-0.0555877 0.257802 0)
(-0.0564856 0.246643 0)
(-0.057393 0.2355 0)
(-0.0583175 0.224432 0)
(-0.0592637 0.213468 0)
(-0.0602338 0.202621 0)
(-0.0612279 0.191884 0)
(-0.0622446 0.181239 0)
(-0.0632814 0.170662 0)
(-0.0643355 0.160123 0)
(-0.0654034 0.149596 0)
(-0.0664818 0.139053 0)
(-0.0675678 0.128473 0)
(-0.0686586 0.117835 0)
(-0.069752 0.107128 0)
(-0.0708463 0.0963429 0)
(-0.0719401 0.0854743 0)
(-0.0730325 0.0745218 0)
(-0.0741232 0.0634878 0)
(-0.0752119 0.0523767 0)
(0.000123116 0.0297218 0)
(0.000425535 0.0803724 0)
(0.000593336 0.122805 0)
(0.000283293 0.157763 0)
(-0.000632473 0.186289 0)
(-0.00214963 0.209637 0)
(-0.00418267 0.229091 0)
(-0.00660298 0.245791 0)
(-0.00927466 0.260617 0)
(-0.0120766 0.274146 0)
(-0.0149124 0.28667 0)
(-0.0177118 0.298257 0)
(-0.0204263 0.308821 0)
(-0.0230234 0.318191 0)
(-0.0254818 0.326167 0)
(-0.0277873 0.332558 0)
(-0.0299313 0.337209 0)
(-0.0319095 0.340013 0)
(-0.0337222 0.340922 0)
(-0.0353736 0.339948 0)
(-0.0368721 0.337157 0)
(-0.03823 0.332669 0)
(-0.0394626 0.326647 0)
(-0.0405876 0.319283 0)
(-0.0416241 0.31079 0)
(-0.0425913 0.301388 0)
(-0.043508 0.29129 0)
(-0.0443915 0.280694 0)
(-0.045257 0.269777 0)
(-0.0461172 0.258685 0)
(-0.0469821 0.247532 0)
(-0.0478591 0.236404 0)
(-0.048753 0.225354 0)
(-0.0496666 0.214412 0)
(-0.0506009 0.203587 0)
(-0.0515554 0.192871 0)
(-0.0525287 0.182245 0)
(-0.0535189 0.171685 0)
(-0.0545235 0.161161 0)
(-0.0555403 0.150645 0)
(-0.0565671 0.140111 0)
(-0.0576019 0.129537 0)
(-0.0586433 0.118905 0)
(-0.0596902 0.108201 0)
(-0.0607417 0.097418 0)
(-0.0617974 0.086551 0)
(-0.0628571 0.0755997 0)
(-0.0639211 0.0645668 0)
(-0.0649896 0.0534568 0)
(0.000153948 0.029426 0)
(0.000627463 0.079976 0)
(0.00113869 0.122683 0)
(0.00127088 0.158141 0)
(0.000851389 0.187251 0)
(-0.000145558 0.211152 0)
(-0.00165557 0.23106 0)
(-0.00356198 0.248085 0)
(-0.00573253 0.263108 0)
(-0.00804555 0.276723 0)
(-0.0104028 0.28925 0)
(-0.0127326 0.300779 0)
(-0.0149866 0.311246 0)
(-0.0171346 0.320494 0)
(-0.0191586 0.328333 0)
(-0.0210488 0.334577 0)
(-0.022801 0.339077 0)
(-0.0244154 0.341731 0)
(-0.0258955 0.342494 0)
(-0.0272483 0.341381 0)
(-0.0284839 0.338462 0)
(-0.0296145 0.33386 0)
(-0.0306547 0.327739 0)
(-0.0316199 0.320293 0)
(-0.0325261 0.311736 0)
(-0.033389 0.302286 0)
(-0.0342228 0.292156 0)
(-0.0350405 0.281542 0)
(-0.0358528 0.270619 0)
(-0.0366682 0.259529 0)
(-0.0374932 0.248386 0)
(-0.0383319 0.237272 0)
(-0.0391871 0.22624 0)
(-0.0400597 0.215316 0)
(-0.0409497 0.20451 0)
(-0.0418562 0.193812 0)
(-0.042778 0.183202 0)
(-0.0437136 0.172656 0)
(-0.0446614 0.162144 0)
(-0.0456202 0.151639 0)
(-0.0465889 0.141115 0)
(-0.0475667 0.130549 0)
(-0.0485534 0.119924 0)
(-0.0495488 0.109227 0)
(-0.0505531 0.0984505 0)
(-0.0515667 0.0875903 0)
(-0.0525902 0.0766461 0)
(-0.0536243 0.0656208 0)
(-0.0546697 0.0545189 0)
(0.000182519 0.0290276 0)
(0.000819491 0.0793131 0)
(0.00166483 0.122172 0)
(0.00223377 0.158052 0)
(0.00231036 0.187701 0)
(0.00183744 0.212142 0)
(0.00085636 0.232507 0)
(-0.00052939 0.249868 0)
(-0.00219303 0.265101 0)
(-0.00401361 0.278815 0)
(-0.00589103 0.291355 0)
(-0.00775212 0.302838 0)
(-0.0095485 0.313219 0)
(-0.0112514 0.322358 0)
(-0.012846 0.330076 0)
(-0.0143263 0.336196 0)
(-0.0156925 0.340571 0)
(-0.0169483 0.343104 0)
(-0.018101 0.343754 0)
(-0.0191598 0.342536 0)
(-0.020136 0.339524 0)
(-0.0210419 0.334843 0)
(-0.021891 0.328656 0)
(-0.0226965 0.321159 0)
(-0.0234713 0.312564 0)
(-0.0242272 0.303089 0)
(-0.0249743 0.292945 0)
(-0.0257212 0.282328 0)
(-0.0264743 0.271408 0)
(-0.0272383 0.260328 0)
(-0.0280161 0.249198 0)
(-0.028809 0.238098 0)
(-0.0296176 0.227082 0)
(-0.0304413 0.216174 0)
(-0.0312793 0.205383 0)
(-0.0321303 0.194699 0)
(-0.0329934 0.184102 0)
(-0.0338676 0.173568 0)
(-0.0347522 0.163067 0)
(-0.035647 0.152572 0)
(-0.0365521 0.142058 0)
(-0.0374679 0.131502 0)
(-0.0383951 0.120887 0)
(-0.0393347 0.110201 0)
(-0.0402879 0.0994364 0)
(-0.0412559 0.0885887 0)
(-0.0422398 0.0776579 0)
(-0.0432409 0.0666468 0)
(-0.0442606 0.0555602 0)
(0.000208612 0.0285327 0)
(0.00100025 0.0783934 0)
(0.00216776 0.121282 0)
(0.0031646 0.157499 0)
(0.00373354 0.187642 0)
(0.00378565 0.212603 0)
(0.00333773 0.233426 0)
(0.00247765 0.251135 0)
(0.00132505 0.266592 0)
(-3.79961e-07 0.28042 0)
(-0.0013974 0.292986 0)
(-0.0027913 0.304434 0)
(-0.00413313 0.314741 0)
(-0.00539508 0.323786 0)
(-0.00656499 0.331402 0)
(-0.00764045 0.337419 0)
(-0.00862511 0.341695 0)
(-0.00952674 0.344137 0)
(-0.0103555 0.344704 0)
(-0.0111228 0.343416 0)
(-0.0118411 0.340345 0)
(-0.0125227 0.335618 0)
(-0.0131798 0.329397 0)
(-0.0138235 0.321878 0)
(-0.0144636 0.313271 0)
(-0.0151081 0.303793 0)
(-0.0157632 0.293654 0)
(-0.0164332 0.283046 0)
(-0.0171205 0.272139 0)
(-0.0178258 0.261073 0)
(-0.018549 0.249959 0)
(-0.0192887 0.238875 0)
(-0.0200433 0.227872 0)
(-0.0208109 0.216978 0)
(-0.0215898 0.206199 0)
(-0.0223788 0.195525 0)
(-0.0231769 0.184939 0)
(-0.0239838 0.174414 0)
(-0.0247998 0.163923 0)
(-0.0256255 0.153439 0)
(-0.0264622 0.142935 0)
(-0.0273115 0.132392 0)
(-0.0281751 0.121791 0)
(-0.0290551 0.11112 0)
(-0.0299537 0.100372 0)
(-0.0308728 0.0895427 0)
(-0.0318141 0.0786318 0)
(-0.0327795 0.0676421 0)
(-0.0337707 0.0565782 0)
(0.000232049 0.0279477 0)
(0.00116845 0.0772292 0)
(0.0026438 0.120024 0)
(0.00405653 0.156491 0)
(0.0051108 0.187075 0)
(0.005686 0.212534 0)
(0.00577288 0.233814 0)
(0.00544178 0.251882 0)
(0.00480344 0.267579 0)
(0.003975 0.281537 0)
(0.00305831 0.294144 0)
(0.00212967 0.30557 0)
(0.00123899 0.315818 0)
(0.000414247 0.324785 0)
(-0.000335451 0.332316 0)
(-0.00101076 0.338251 0)
(-0.00161767 0.342453 0)
(-0.00216796 0.344832 0)
(-0.00267471 0.345348 0)
(-0.00315143 0.344021 0)
(-0.00361141 0.340925 0)
(-0.00406705 0.336184 0)
(-0.00452925 0.32996 0)
(-0.00500706 0.322446 0)
(-0.00550729 0.313853 0)
(-0.00603448 0.304393 0)
(-0.00659091 0.294275 0)
(-0.00717681 0.283689 0)
(-0.00779073 0.272804 0)
(-0.00842995 0.261759 0)
(-0.00909099 0.250662 0)
(-0.0097701 0.239594 0)
(-0.0104637 0.228604 0)
(-0.0111685 0.217721 0)
(-0.0118823 0.206951 0)
(-0.0126034 0.196285 0)
(-0.0133311 0.185707 0)
(-0.0140658 0.17519 0)
(-0.0148084 0.164708 0)
(-0.0155608 0.154235 0)
(-0.0163251 0.143744 0)
(-0.017104 0.133215 0)
(-0.0179005 0.122631 0)
(-0.0187177 0.11198 0)
(-0.0195586 0.101255 0)
(-0.0204257 0.0904496 0)
(-0.0213215 0.0795653 0)
(-0.0222484 0.0686041 0)
(-0.0232084 0.0575704 0)
(0.000252711 0.0272798 0)
(0.001323 0.0758344 0)
(0.00308956 0.118413 0)
(0.00490315 0.155038 0)
(0.0064325 0.186007 0)
(0.00752578 0.211938 0)
(0.00814661 0.23367 0)
(0.008346 0.252105 0)
(0.00822394 0.26806 0)
(0.00789357 0.282165 0)
(0.00745674 0.29483 0)
(0.00699135 0.30625 0)
(0.00654855 0.316454 0)
(0.00615615 0.325357 0)
(0.00582243 0.332821 0)
(0.00554422 0.338695 0)
(0.005312 0.342848 0)
(0.00511107 0.345191 0)
(0.00492572 0.345686 0)
(0.00474046 0.344352 0)
(0.00454099 0.341262 0)
(0.00431493 0.336538 0)
(0.00405243 0.33034 0)
(0.00374643 0.32286 0)
(0.00339285 0.314303 0)
(0.00299047 0.304881 0)
(0.00254067 0.2948 0)
(0.00204698 0.284249 0)
(0.00151453 0.273395 0)
(0.000949426 0.262376 0)
(0.00035813 0.251301 0)
(-0.000253223 0.240248 0)
(-0.000879144 0.229271 0)
(-0.00151514 0.218397 0)
(-0.00215809 0.207633 0)
(-0.00280619 0.196974 0)
(-0.00345897 0.186401 0)
(-0.00411718 0.175891 0)
(-0.00478265 0.165418 0)
(-0.00545803 0.154955 0)
(-0.00614661 0.144479 0)
(-0.00685209 0.133967 0)
(-0.00757851 0.123405 0)
(-0.00832994 0.112779 0)
(0.000270524 0.0265367 0)
(0.00146297 0.0742244 0)
(0.00350206 0.116465 0)
(0.00569853 0.153156 0)
(0.00768944 0.184447 0)
(0.00929272 0.210816 0)
(0.0104441 0.232993 0)
(0.0111736 0.251804 0)
(0.0115686 0.268032 0)
(0.0117366 0.282304 0)
(0.0117787 0.295045 0)
(0.0117742 0.306476 0)
(0.0117759 0.31665 0)
(0.0118118 0.325507 0)
(0.0118901 0.332922 0)
(0.0120058 0.338756 0)
(0.012146 0.342882 0)
(0.0122936 0.345215 0)
(0.0124304 0.345717 0)
(0.0125389 0.344405 0)
(0.0126038 0.341352 0)
(0.0126126 0.336675 0)
(0.0125564 0.330532 0)
(0.0124298 0.32311 0)
(0.0122313 0.314613 0)
(0.0119626 0.305249 0)
(0.0116286 0.295222 0)
(0.0112362 0.284719 0)
(0.0107941 0.273904 0)
(0.0103115 0.262917 0)
(0.00979772 0.251867 0)
(0.00926126 0.240832 0)
(0.00870945 0.229867 0)
(0.00814804 0.219 0)
(0.00758095 0.208242 0)
(0.00701028 0.197586 0)
(0.00643642 0.187017 0)
(0.00585818 0.176514 0)
(0.00527308 0.166049 0)
(0.00467761 0.155598 0)
(0.00406754 0.145138 0)
(0.00343816 0.134647 0)
(0.0027845 0.124109 0)
(0.00210159 0.113512 0)
(0.000285454 0.0257263 0)
(0.00158765 0.0724163 0)
(0.00387869 0.114201 0)
(0.00643731 0.15086 0)
(0.00887304 0.182406 0)
(0.0109751 0.209179 0)
(0.0126509 0.231787 0)
(0.0139081 0.250981 0)
(0.0148194 0.267497 0)
(0.0154854 0.281955 0)
(0.0160052 0.294791 0)
(0.0164591 0.30625 0)
(0.0169018 0.316412 0)
(0.0173624 0.325239 0)
(0.0178491 0.332623 0)
(0.0183556 0.338435 0)
(0.0188668 0.342556 0)
(0.019363 0.344903 0)
(0.0198237 0.345439 0)
(0.0202296 0.344178 0)
(0.0205642 0.341189 0)
(0.0208148 0.336587 0)
(0.020973 0.330526 0)
(0.021035 0.323189 0)
(0.0210015 0.314774 0)
(0.0208768 0.305488 0)
(0.0206689 0.295531 0)
(0.0203879 0.285087 0)
(0.0200457 0.274323 0)
(0.0196546 0.263375 0)
(0.0192264 0.252353 0)
(0.0187721 0.241338 0)
(0.0183007 0.230385 0)
(0.0178194 0.219526 0)
(0.0173328 0.208771 0)
(0.0168436 0.198118 0)
(0.016352 0.187553 0)
(0.0158567 0.177054 0)
(0.0153546 0.166598 0)
(0.0148414 0.156161 0)
(0.0143121 0.145718 0)
(0.0137611 0.13525 0)
(0.0131825 0.124741 0)
(0.0125704 0.114178 0)
(0.000297503 0.0248571 0)
(0.00169649 0.0704281 0)
(0.00421728 0.111641 0)
(0.0071147 0.148172 0)
(0.00997533 0.179902 0)
(0.0125616 0.207034 0)
(0.014753 0.230058 0)
(0.0165332 0.249636 0)
(0.0179589 0.266455 0)
(0.0191215 0.281119 0)
(0.0201172 0.29407 0)
(0.021027 0.305577 0)
(0.0219072 0.315744 0)
(0.0227888 0.324556 0)
(0.0236806 0.331925 0)
(0.0245755 0.337734 0)
(0.0254566 0.341871 0)
(0.0263023 0.344255 0)
(0.0270897 0.344848 0)
(0.0277977 0.343664 0)
(0.0284086 0.340767 0)
(0.0289093 0.336268 0)
(0.0292916 0.330314 0)
(0.029553 0.323085 0)
(0.0296957 0.314775 0)
(0.0297266 0.305586 0)
(0.0296563 0.295715 0)
(0.0294979 0.285345 0)
(0.0292661 0.274641 0)
(0.028976 0.263739 0)
(0.028642 0.252751 0)
(0.0282773 0.241759 0)
(0.0278928 0.23082 0)
(0.027497 0.219968 0)
(0.0270954 0.209217 0)
(0.0266913 0.198567 0)
(0.0262851 0.188004 0)
(0.0258752 0.177511 0)
(0.0254582 0.167064 0)
(0.0250292 0.156641 0)
(0.0245825 0.146218 0)
(0.0241116 0.135776 0)
(0.0236098 0.1253 0)
(0.0230707 0.114775 0)
(0.00030671 0.0239376 0)
(0.00178916 0.0682791 0)
(0.00451609 0.10881 0)
(0.00772656 0.145114 0)
(0.0109891 0.176953 0)
(0.0140418 0.204396 0)
(0.0167368 0.227814 0)
(0.0190331 0.247774 0)
(0.0209694 0.264909 0)
(0.0226263 0.279797 0)
(0.0240958 0.292885 0)
(0.0254587 0.304458 0)
(0.0267732 0.314648 0)
(0.0280722 0.323461 0)
(0.0293658 0.330832 0)
(0.030647 0.336654 0)
(0.0318976 0.340826 0)
(0.0330941 0.343267 0)
(0.0342118 0.343941 0)
(0.0352277 0.342858 0)
(0.0361226 0.340078 0)
(0.0368828 0.335706 0)
(0.0375003 0.329885 0)
(0.037973 0.322788 0)
(0.0383048 0.314604 0)
(0.0385043 0.305531 0)
(0.0385844 0.295763 0)
(0.0385607 0.285481 0)
(0.0384507 0.274848 0)
(0.038272 0.264001 0)
(0.0380415 0.253053 0)
(0.0377744 0.242088 0)
(0.0374835 0.231166 0)
(0.0371787 0.220323 0)
(0.0368666 0.209577 0)
(0.0365512 0.198928 0)
(0.0362331 0.188369 0)
(0.0359109 0.177881 0)
(0.0355808 0.167444 0)
(0.0352376 0.157036 0)
(0.0348748 0.146636 0)
(0.0344854 0.136223 0)
(0.0340619 0.125782 0)
(0.0335971 0.115301 0)
(0.000313142 0.0229763 0)
(0.00186548 0.0659891 0)
(0.00477381 0.105732 0)
(0.0082694 0.141712 0)
(0.0119078 0.17358 0)
(0.0154059 0.201281 0)
(0.0185893 0.225064 0)
(0.0213922 0.245402 0)
(0.0238334 0.262862 0)
(0.0259813 0.277992 0)
(0.0279219 0.291238 0)
(0.029735 0.302898 0)
(0.0314804 0.313127 0)
(0.0331935 0.321959 0)
(0.0348859 0.329346 0)
(0.0365513 0.335198 0)
(0.0381711 0.33942 0)
(0.0397204 0.341938 0)
(0.0411725 0.342713 0)
(0.0425027 0.341753 0)
(0.0436905 0.339113 0)
(0.0447209 0.334892 0)
(0.0455857 0.329227 0)
(0.0462831 0.322284 0)
(0.0468179 0.314248 0)
(0.0472002 0.30531 0)
(0.0474448 0.295662 0)
(0.0475694 0.285482 0)
(0.0475938 0.274932 0)
(0.0475379 0.26415 0)
(0.0474209 0.25325 0)
(0.0472601 0.242318 0)
(0.0470701 0.231417 0)
(0.0468621 0.220586 0)
(0.0466443 0.209845 0)
(0.0464212 0.1992 0)
(0.046194 0.188644 0)
(0.0459616 0.178163 0)
(0.04572 0.167737 0)
(0.0454637 0.157346 0)
(0.045186 0.14697 0)
(0.0448791 0.136589 0)
(0.044535 0.126188 0)
(0.0441456 0.115754 0)
(0.000316896 0.0219818 0)
(0.00192548 0.0635789 0)
(0.00498958 0.102436 0)
(0.00874042 0.137994 0)
(0.0127258 0.169809 0)
(0.0166448 0.197708 0)
(0.0202983 0.221825 0)
(0.0235953 0.242529 0)
(0.0265338 0.26032 0)
(0.0291679 0.275708 0)
(0.0315761 0.289131 0)
(0.0338362 0.300899 0)
(0.0360093 0.311187 0)
(0.038133 0.320053 0)
(0.0402214 0.32747 0)
(0.0422694 0.333365 0)
(0.0442583 0.337653 0)
(0.0461625 0.340263 0)
(0.0479536 0.341157 0)
(0.0496052 0.34034 0)
(0.0510951 0.33786 0)
(0.0524073 0.333812 0)
(0.0535326 0.328325 0)
(0.0544693 0.321559 0)
(0.0552225 0.313691 0)
(0.0558032 0.304908 0)
(0.0562277 0.295398 0)
(0.0565153 0.285335 0)
(0.0566879 0.274882 0)
(0.0567674 0.264176 0)
(0.056775 0.253333 0)
(0.0567301 0.24244 0)
(0.056649 0.231565 0)
(0.0565446 0.22075 0)
(0.0564262 0.210018 0)
(0.0562994 0.199379 0)
(0.0561662 0.188828 0)
(0.0560257 0.178355 0)
(0.0558742 0.167942 0)
(0.055706 0.15757 0)
(0.0555142 0.14722 0)
(0.0552906 0.136874 0)
(0.0550266 0.126516 0)
(0.0547136 0.116133 0)
(0.000318096 0.0209627 0)
(0.00196933 0.0610692 0)
(0.00516296 0.0989487 0)
(0.00913754 0.133991 0)
(0.0134384 0.165668 0)
(0.0177506 0.193702 0)
(0.0218523 0.218111 0)
(0.0256279 0.239165 0)
(0.0290535 0.257289 0)
(0.0321674 0.27295 0)
(0.0350389 0.286569 0)
(0.0377425 0.298464 0)
(0.0403398 0.308828 0)
(0.0428709 0.317744 0)
(0.0453524 0.325206 0)
(0.0477812 0.331157 0)
(0.0501394 0.335523 0)
(0.0524007 0.338239 0)
(0.0545356 0.339268 0)
(0.0565161 0.33861 0)
(0.0583181 0.336311 0)
(0.0599243 0.332455 0)
(0.0613244 0.327167 0)
(0.0625159 0.320597 0)
(0.0635039 0.312917 0)
(0.0642999 0.304309 0)
(0.064921 0.294954 0)
(0.0653879 0.285025 0)
(0.0657239 0.274683 0)
(0.0659527 0.264066 0)
(0.0660974 0.253289 0)
(0.0661792 0.242446 0)
(0.0662161 0.231603 0)
(0.0662228 0.220809 0)
(0.0662099 0.210091 0)
(0.0661841 0.19946 0)
(0.0661483 0.188918 0)
(0.0661022 0.178455 0)
(0.0660425 0.168057 0)
(0.0659637 0.157706 0)
(0.0658586 0.147385 0)
(0.065719 0.137077 0)
(0.0655357 0.126765 0)
(0.0652996 0.116437 0)
(0.000316884 0.0199273 0)
(0.00199737 0.0584811 0)
(0.00529396 0.0952999 0)
(0.00945941 0.129735 0)
(0.0140418 0.161189 0)
(0.018716 0.189288 0)
(0.0232406 0.213944 0)
(0.0274759 0.235326 0)
(0.0313758 0.253779 0)
(0.0349612 0.269723 0)
(0.0382905 0.283555 0)
(0.0414335 0.295597 0)
(0.0444514 0.306056 0)
(0.0473865 0.315037 0)
(0.0502585 0.322556 0)
(0.0530664 0.328574 0)
(0.0557938 0.333029 0)
(0.0584144 0.335863 0)
(0.060898 0.337039 0)
(0.0632149 0.336556 0)
(0.0653395 0.334452 0)
(0.0672524 0.330807 0)
(0.0689421 0.325736 0)
(0.0704049 0.319382 0)
(0.0716454 0.31191 0)
(0.0726749 0.303494 0)
(0.0735107 0.294313 0)
(0.0741745 0.284536 0)
(0.0746906 0.27432 0)
(0.0750842 0.263805 0)
(0.07538 0.253108 0)
(0.0756007 0.242323 0)
(0.0757663 0.231523 0)
(0.0758928 0.220757 0)
(0.0759924 0.210057 0)
(0.0760732 0.19944 0)
(0.076139 0.18891 0)
(0.0761904 0.17846 0)
(0.0762248 0.16808 0)
(0.0762368 0.157754 0)
(0.0762195 0.147465 0)
(0.0761645 0.137197 0)
(0.0760624 0.126935 0)
(0.0759039 0.116667 0)
(0.000313424 0.0188836 0)
(0.0020101 0.0558356 0)
(0.00538299 0.0915195 0)
(0.00970539 0.125259 0)
(0.0145331 0.156404 0)
(0.0195353 0.184496 0)
(0.0244536 0.209347 0)
(0.0291263 0.231028 0)
(0.0334846 0.249803 0)
(0.0375308 0.266035 0)
(0.041311 0.280096 0)
(0.0448883 0.292302 0)
(0.0483229 0.302874 0)
(0.0516586 0.311934 0)
(0.0549182 0.319522 0)
(0.0581035 0.325618 0)
(0.0612 0.330171 0)
(0.0641821 0.333132 0)
(0.0670192 0.334465 0)
(0.0696801 0.334167 0)
(0.0721376 0.332273 0)
(0.0743704 0.328853 0)
(0.076365 0.324016 0)
(0.0781164 0.317896 0)
(0.0796279 0.31065 0)
(0.0809101 0.302447 0)
(0.0819802 0.293457 0)
(0.0828601 0.283849 0)
(0.0835747 0.273776 0)
(0.0841503 0.263379 0)
(0.0846128 0.252775 0)
(0.0849865 0.242061 0)
(0.0852928 0.231312 0)
(0.0855494 0.220584 0)
(0.0857701 0.209911 0)
(0.0859642 0.199314 0)
(0.086137 0.1888 0)
(0.08629 0.178369 0)
(0.0864213 0.16801 0)
(0.0865262 0.157711 0)
(0.0865981 0.147458 0)
(0.0866285 0.137234 0)
(0.0866084 0.127026 0)
(0.0865279 0.116821 0)
(0.000307892 0.0178393 0)
(0.00200812 0.0531534 0)
(0.00543086 0.0876378 0)
(0.00987558 0.120601 0)
(0.0149105 0.151352 0)
(0.0202035 0.179361 0)
(0.025483 0.204349 0)
(0.0305668 0.226292 0)
(0.0353642 0.245373 0)
(0.039858 0.261896 0)
(0.0440801 0.276197 0)
(0.0480858 0.288584 0)
(0.0519325 0.299284 0)
(0.0556652 0.308439 0)
(0.0593094 0.316108 0)
(0.0628703 0.322289 0)
(0.0663356 0.326947 0)
(0.0696811 0.330041 0)
(0.072876 0.331538 0)
(0.0758884 0.331435 0)
(0.0786892 0.329761 0)
(0.081255 0.32658 0)
(0.0835703 0.321991 0)
(0.085628 0.316121 0)
(0.0874299 0.309119 0)
(0.0889852 0.301145 0)
(0.0903105 0.292366 0)
(0.0914272 0.282945 0)
(0.0923604 0.273033 0)
(0.0931369 0.26277 0)
(0.0937837 0.252274 0)
(0.0943262 0.241645 0)
(0.0947873 0.230961 0)
(0.0951862 0.22028 0)
(0.0955381 0.209643 0)
(0.095854 0.199074 0)
(0.0961405 0.188584 0)
(0.0964002 0.178176 0)
(0.0966324 0.167844 0)
(0.0968331 0.157577 0)
(0.0969962 0.147362 0)
(0.0971136 0.137187 0)
(0.0971764 0.127036 0)
(0.0971746 0.116898 0)
(0.000300475 0.0168019 0)
(0.00199217 0.0504547 0)
(0.00543873 0.0836854 0)
(0.00997074 0.115797 0)
(0.0151733 0.14607 0)
(0.0207171 0.173918 0)
(0.0263215 0.198979 0)
(0.0317864 0.221143 0)
(0.0369998 0.24051 0)
(0.0419248 0.257318 0)
(0.0465776 0.271868 0)
(0.0510042 0.284449 0)
(0.0552577 0.295293 0)
(0.0593833 0.304555 0)
(0.0634091 0.312315 0)
(0.0673435 0.318588 0)
(0.0711772 0.323357 0)
(0.0748875 0.326588 0)
(0.0784445 0.328255 0)
(0.0818153 0.328352 0)
(0.0849693 0.326905 0)
(0.0878812 0.323972 0)
(0.090533 0.319643 0)
(0.0929152 0.314038 0)
(0.0950274 0.307295 0)
(0.0968772 0.299569 0)
(0.0984796 0.291018 0)
(0.0998552 0.281802 0)
(0.101029 0.27207 0)
(0.102027 0.261958 0)
(0.102878 0.251588 0)
(0.103607 0.241059 0)
(0.104239 0.230454 0)
(0.104794 0.219834 0)
(0.10529 0.209244 0)
(0.105738 0.198712 0)
(0.106147 0.188255 0)
(0.10652 0.177877 0)
(0.106858 0.167577 0)
(0.107159 0.157348 0)
(0.107416 0.147177 0)
(0.107623 0.137054 0)
(0.10777 0.126965 0)
(0.107848 0.116899 0)
(0.000291364 0.0157782 0)
(0.00196306 0.0477592 0)
(0.00540807 0.0796924 0)
(0.00999229 0.110885 0)
(0.0153216 0.1406 0)
(0.0210738 0.168207 0)
(0.0269633 0.193275 0)
(0.0327751 0.215611 0)
(0.0383776 0.235233 0)
(0.0437138 0.252317 0)
(0.0487836 0.267117 0)
(0.0536216 0.279903 0)
(0.0582755 0.290904 0)
(0.0627894 0.300286 0)
(0.0671933 0.308145 0)
(0.0714989 0.314518 0)
(0.0757001 0.3194 0)
(0.0797765 0.32277 0)
(0.083699 0.324608 0)
(0.0874347 0.324908 0)
(0.0909517 0.323694 0)
(0.0942223 0.321016 0)
(0.0972261 0.316957 0)
(0.0999511 0.311628 0)
(0.102394 0.305159 0)
(0.10456 0.297695 0)
(0.106463 0.289391 0)
(0.108121 0.280398 0)
(0.109558 0.270864 0)
(0.110801 0.260923 0)
(0.111877 0.250697 0)
(0.112814 0.240286 0)
(0.113635 0.229775 0)
(0.114363 0.219231 0)
(0.115017 0.208701 0)
(0.11561 0.198218 0)
(0.116151 0.187803 0)
(0.116647 0.177465 0)
(0.117098 0.167205 0)
(0.117504 0.157019 0)
(0.11786 0.146899 0)
(0.118159 0.136833 0)
(0.118393 0.126811 0)
(0.118553 0.116822 0)
(0.000280754 0.0147746 0)
(0.00192168 0.0450858 0)
(0.00534061 0.0756889 0)
(0.00994222 0.105902 0)
(0.0153565 0.134983 0)
(0.0212727 0.16227 0)
(0.0274041 0.187274 0)
(0.0335246 0.209726 0)
(0.0394848 0.229569 0)
(0.0452084 0.246911 0)
(0.050678 0.261959 0)
(0.0559158 0.274956 0)
(0.0609621 0.286124 0)
(0.0658588 0.295636 0)
(0.070637 0.303603 0)
(0.0753112 0.310078 0)
(0.0798787 0.315076 0)
(0.0843219 0.318586 0)
(0.088613 0.320593 0)
(0.0927195 0.321097 0)
(0.0966082 0.320116 0)
(0.10025 0.317697 0)
(0.103621 0.313915 0)
(0.106707 0.308871 0)
(0.109501 0.302688 0)
(0.112006 0.295502 0)
(0.114233 0.28746 0)
(0.116198 0.27871 0)
(0.117924 0.269392 0)
(0.119436 0.259642 0)
(0.120761 0.249578 0)
(0.121927 0.239304 0)
(0.122958 0.228906 0)
(0.123879 0.218454 0)
(0.124708 0.207999 0)
(0.12546 0.197579 0)
(0.126147 0.187218 0)
(0.126776 0.17693 0)
(0.12735 0.16672 0)
(0.127869 0.156586 0)
(0.128329 0.146522 0)
(0.128725 0.136521 0)
(0.12905 0.126571 0)
(0.129295 0.116664 0)
(0.000268834 0.0137971 0)
(0.00186893 0.0424523 0)
(0.00523827 0.071704 0)
(0.00982298 0.100887 0)
(0.01528 0.129265 0)
(0.0213137 0.156154 0)
(0.0276408 0.181019 0)
(0.0340277 0.203526 0)
(0.0403099 0.223547 0)
(0.0463928 0.241122 0)
(0.0522416 0.256409 0)
(0.0578645 0.269618 0)
(0.0632934 0.28096 0)
(0.0685663 0.29061 0)
(0.0737141 0.298691 0)
(0.078754 0.305273 0)
(0.0836863 0.310386 0)
(0.0884965 0.314033 0)
(0.0931589 0.316207 0)
(0.0976412 0.316911 0)
(0.10191 0.316161 0)
(0.105934 0.314002 0)
(0.109687 0.3105 0)
(0.113151 0.305748 0)
(0.116317 0.299861 0)
(0.119183 0.292966 0)
(0.121758 0.285202 0)
(0.124056 0.27671 0)
(0.126096 0.267629 0)
(0.127904 0.258089 0)
(0.129504 0.248208 0)
(0.130924 0.238091 0)
(0.132189 0.227825 0)
(0.133323 0.217483 0)
(0.134347 0.207121 0)
(0.135276 0.19678 0)
(0.136125 0.186488 0)
(0.1369 0.176262 0)
(0.137608 0.166113 0)
(0.13825 0.15604 0)
(0.138823 0.146042 0)
(0.139323 0.136112 0)
(0.139743 0.126242 0)
(0.140077 0.116422 0)
(0.000255789 0.0128513 0)
(0.00180574 0.0398759 0)
(0.00510308 0.067766 0)
(0.00963735 0.0958781 0)
(0.0150948 0.123489 0)
(0.0211982 0.149905 0)
(0.027672 0.174557 0)
(0.0342791 0.197054 0)
(0.040843 0.217201 0)
(0.0472524 0.234977 0)
(0.0534555 0.250486 0)
(0.0594458 0.263903 0)
(0.0652449 0.275421 0)
(0.0708856 0.285213 0)
(0.0763977 0.293412 0)
(0.0817996 0.300103 0)
(0.0870949 0.30533 0)
(0.0922719 0.30911 0)
(0.0973072 0.311445 0)
(0.10217 0.312343 0)
(0.106826 0.311821 0)
(0.111242 0.309918 0)
(0.115391 0.306697 0)
(0.11925 0.302241 0)
(0.122808 0.296656 0)
(0.126058 0.290062 0)
(0.129006 0.28259 0)
(0.131663 0.274374 0)
(0.134045 0.265547 0)
(0.136175 0.256237 0)
(0.138078 0.24656 0)
(0.139779 0.236621 0)
(0.141303 0.226509 0)
(0.142675 0.216298 0)
(0.143916 0.206047 0)
(0.145043 0.195802 0)
(0.146071 0.185595 0)
(0.14701 0.175447 0)
(0.147866 0.165371 0)
(0.148642 0.155372 0)
(0.149338 0.14545 0)
(0.14995 0.1356 0)
(0.150474 0.125817 0)
(0.150902 0.116093 0)
(0.0002418 0.0119419 0)
(0.00173307 0.0373725 0)
(0.00493716 0.0639024 0)
(0.00938834 0.090913 0)
(0.0148039 0.117701 0)
(0.0209281 0.143573 0)
(0.0274969 0.167936 0)
(0.0342743 0.190353 0)
(0.0410752 0.210571 0)
(0.0477739 0.228508 0)
(0.054302 0.244215 0)
(0.0606382 0.257828 0)
(0.0667926 0.26952 0)
(0.0727911 0.279456 0)
(0.0786608 0.287775 0)
(0.0844207 0.294574 0)
(0.0900766 0.299912 0)
(0.0956199 0.303818 0)
(0.10103 0.306306 0)
(0.106276 0.30739 0)
(0.111326 0.307087 0)
(0.116144 0.305436 0)
(0.120701 0.302491 0)
(0.124972 0.298332 0)
(0.128939 0.293054 0)
(0.132596 0.286769 0)
)
;

boundaryField
{
    movingWall
    {
        type            fixedValue;