/*--------------------------------*- C++ -*----------------------------------*\
  =========                 |
  \\      /  F ield         | OpenFOAM: The Open Source CFD Toolbox
   \\    /   O peration     | Website:  https://openfoam.org
    \\  /    A nd           | Version:  9
     \\/     M anipulation  |
\*---------------------------------------------------------------------------*/
FoamFile
{
    format      ascii;
    class       volScalarField;
    location    "2.5";
    object      p;
}
// * * * * * * * * * * * * * * * * * * * * * * * * * * * * * * * * * * * * * //

dimensions      [0 2 -2 0 0 0 0];

internalField   nonuniform List<scalar> 
10000
(
3.28691e-08
1.78535e-05
2.76665e-05
2.55469e-05
8.45237e-06
-2.4471e-05
-7.26008e-05
-0.000134656
-0.000209161
-0.000294669
-0.000389902
-0.000493832
-0.000605707
-0.000725061
-0.000851676
-0.000985561
-0.0011269
-0.00127598
-0.00143316
-0.00159879
-0.00177317
-0.00195651
-0.00214886
-0.00235012
-0.00255996
-0.00277784
-0.00300294
-0.00323418
-0.00347017
-0.00370922
-0.00394932
-0.00418813
-0.00442299
-0.00465092
-0.00486864
-0.00507265
-0.00525921
-0.00542445
-0.00556442
-0.00567522
-0.00575302
-0.00579429
-0.00579581
-0.00575487
-0.00566937
-0.00553794
-0.00536009
-0.00513627
-0.00486802
-0.00455797
-0.00420997
-0.00382892
-0.00342065
-0.00299287
-0.00255348
-0.00211137
-0.00167608
-0.00125749
-0.000865585
-0.000510119
-0.000200346
5.53206e-05
0.000249605
0.000376649
0.000432247
0.000414027
0.000321562
0.000156407
-7.79488e-05
-0.000376227
-0.000731596
-0.0011358
-0.00157971
-0.00205357
-0.00254735
-0.00305117
-0.00355563
-0.00405208
-0.00453288
-0.00499154
-0.00542286
-0.0058229
-0.00618898
-0.00651961
-0.00681431
-0.00707347
-0.0072982
-0.00749008
-0.00765103
-0.00778308
-0.00788823
-0.00796833
-0.00802496
-0.0080595
-0.0080732
-0.00806762
-0.0080453
-0.008011
-0.00797227
-0.00794191
-1.77659e-05
1.10789e-07
5.85713e-06
-2.36269e-07
-1.90423e-05
-5.13402e-05
-9.68904e-05
-0.000154879
-0.000224262
-0.000303956
-0.000392958
-0.000490437
-0.00059574
-0.000708486
-0.000828462
-0.000955652
-0.00109019
-0.00123229
-0.00138226
-0.00154037
-0.00170688
-0.00188195
-0.00206565
-0.00225788
-0.00245834
-0.00266654
-0.00288178
-0.00310308
-0.00332918
-0.00355854
-0.00378934
-0.0040194
-0.00424628
-0.00446721
-0.00467912
-0.00487873
-0.00506249
-0.00522675
-0.00536773
-0.00548168
-0.00556494
-0.00561403
-0.00562582
-0.00559761
-0.00552729
-0.00541343
-0.0052554
-0.00505351
-0.00480907
-0.00452452
-0.00420346
-0.00385049
-0.00347098
-0.00307196
-0.00266124
-0.00224729
-0.0018392
-0.0014464
-0.00107844
-0.000744676
-0.000453981
-0.000214417
-3.29572e-05
8.47889e-05
0.000134804
0.000114836
2.45031e-05
-0.000134676
-0.000359332
-0.000644384
-0.000983249
-0.00136812
-0.00179023
-0.00224032
-0.0027089
-0.00318665
-0.00366474
-0.00413506
-0.0045905
-0.00502504
-0.00543388
-0.00581341
-0.00616118
-0.00647583
-0.00675696
-0.00700495
-0.0072208
-0.007406
-0.00756232
-0.00769165
-0.00779592
-0.00787695
-0.00793642
-0.00797586
-0.00799679
-0.00800091
-0.0079906
-0.00796956
-0.007942
-0.00791152
-2.7643e-05
-5.64335e-06
1.24247e-08
-7.28958e-06
-2.66964e-05
-5.86267e-05
-0.000102812
-0.000158512
-0.000224818
-0.000300798
-0.00038558
-0.000478439
-0.000578845
-0.000686422
-0.000801015
-0.000922631
-0.00105141
-0.00118757
-0.00133141
-0.00148321
-0.00164325
-0.00181171
-0.00198867
-0.0021741
-0.00236777
-0.00256929
-0.00277803
-0.00299315
-0.00321352
-0.00343774
-0.00366413
-0.00389068
-0.00411508
-0.0043347
-0.00454661
-0.00474762
-0.00493429
-0.00510302
-0.00525007
-0.00537169
-0.00546418
-0.00552402
-0.00554798
-0.00553324
-0.00547753
-0.00537925
-0.0052376
-0.00505267
-0.00482556
-0.00455851
-0.00425491
-0.00391842
-0.00355566
-0.00317272
-0.00277716
-0.00237734
-0.00198221
-0.00160112
-0.00124352
-0.000918699
-0.000635474
-0.000401883
-0.000224884
-0.000110083
-6.15043e-05
-8.14127e-05
-0.000170204
-0.000326376
-0.000546579
-0.000825753
-0.00115734
-0.00153356
-0.00194577
-0.00238473
-0.00284107
-0.00330565
-0.00376979
-0.00422561
-0.00466623
-0.0050859
-0.00548005
-0.00584535
-0.0061796
-0.00648165
-0.00675128
-0.006989
-0.00719595
-0.00737368
-0.00752399
-0.00764883
-0.00775014
-0.00782978
-0.00788943
-0.00793064
-0.00795485
-0.00796346
-0.00795827
-0.00794182
-0.00791455
-0.00787271
-2.56223e-05
3.46585e-07
6.75892e-06
-9.82718e-07
-2.08024e-05
-5.27239e-05
-9.62814e-05
-0.00015065
-0.000214924
-0.000288213
-0.000369716
-0.000458778
-0.000554918
-0.000657846
-0.000767461
-0.000883821
-0.00100711
-0.00113762
-0.00127568
-0.00142163
-0.0015758
-0.00173845
-0.00190975
-0.00208974
-0.00227831
-0.00247519
-0.00267988
-0.00289167
-0.0031096
-0.0033324
-0.00355854
-0.00378613
-0.00401298
-0.00423654
-0.00445395
-0.00466203
-0.00485734
-0.00503622
-0.00519485
-0.00532935
-0.00543586
-0.00551066
-0.00555031
-0.00555176
-0.00551251
-0.0054307
-0.00530529
-0.00513615
-0.00492416
-0.00467147
-0.00438157
-0.0040566
-0.00370434
-0.00333067
-0.00294297
-0.00254956
-0.00215941
-0.00178191
-0.00142661
-0.00110291
-0.00081976
-0.000585346
-0.000406784
-0.000289833
-0.000238659
-0.000255645
-0.000341277
-0.000494101
-0.000710777
-0.000986214
-0.00131378
-0.0016856
-0.00209285
-0.00252634
-0.00297637
-0.00343381
-0.00388993
-0.00433683
-0.00476768
-0.00517682
-0.00555987
-0.00591366
-0.00623628
-0.00652679
-0.0067852
-0.00701229
-0.00720942
-0.00737833
-0.007521
-0.00763951
-0.00773591
-0.0078121
-0.00786982
-0.00791051
-0.0079354
-0.00794545
-0.00794178
-0.00792578
-0.00789481
-0.00783992
-8.30704e-06
1.91827e-05
2.54215e-05
1.68247e-05
-3.84029e-06
-3.62635e-05
-7.97736e-05
-0.000133432
-0.000196291
-0.00026747
-0.000346202
-0.000431882
-0.000524099
-0.000622644
-0.000727493
-0.000838786
-0.0009568
-0.00108191
-0.00121454
-0.00135514
-0.00150415
-0.00166193
-0.0018288
-0.00200492
-0.00219035
-0.00238497
-0.00258845
-0.00280025
-0.00301957
-0.00324529
-0.003476
-0.00370993
-0.00394493
-0.00417848
-0.00440771
-0.00462936
-0.00483986
-0.00503539
-0.00521192
-0.00536531
-0.00549143
-0.00558628
-0.0056461
-0.00566754
-0.0056478
-0.00558473
-0.00547703
-0.00532435
-0.00512739
-0.00488779
-0.00460785
-0.00429394
-0.00394964
-0.00358168
-0.00319768
-0.00280602
-0.00241577
-0.00203645
-0.00167778
-0.00134936
-0.00106036
-0.000819246
-0.000633385
-0.000508809
-0.00044994
-0.000459392
-0.000537837
-0.00068396
-0.000894496
-0.00116436
-0.00148686
-0.001854
-0.0022568
-0.00268574
-0.00313109
-0.00358335
-0.00403363
-0.00447386
-0.00489712
-0.00529775
-0.00567137
-0.00601499
-0.00632674
-0.00660603
-0.00685311
-0.00706903
-0.00725542
-0.00741428
-0.00754785
-0.00765841
-0.00774816
-0.00781914
-0.00787309
-0.00791141
-0.00793511
-0.00794475
-0.00794079
-0.00792377
-0.00788865
-0.00782261
2.57778e-05
5.20858e-05
5.68189e-05
4.65695e-05
2.43847e-05
-9.17255e-06
-5.32563e-05
-0.000106821
-0.000168872
-0.00023852
-0.000315025
-0.000397833
-0.000486611
-0.000581238
-0.000681794
-0.000788536
-0.000901868
-0.0010223
-0.0011504
-0.00128677
-0.00143201
-0.00158667
-0.00175123
-0.00192606
-0.00211141
-0.00230737
-0.00251381
-0.00273035
-0.00295637
-0.00319089
-0.00343258
-0.0036797
-0.00393011
-0.0041812
-0.00442996
-0.00467294
-0.00490633
-0.005126
-0.00532758
-0.00550659
-0.00565851
-0.00577897
-0.00586385
-0.00590945
-0.00591262
-0.00587095
-0.00578287
-0.00564779
-0.00546624
-0.00523976
-0.00497085
-0.00466442
-0.00432537
-0.00396015
-0.00357629
-0.00318225
-0.00278721
-0.00240085
-0.00203309
-0.0016938
-0.00139245
-0.00113784
-0.000937706
-0.00079847
-0.000724934
-0.000720076
-0.000784895
-0.000918344
-0.00111735
-0.00137695
-0.00169046
-0.0020498
-0.00244584
-0.00286882
-0.00330872
-0.00375575
-0.00420072
-0.0046352
-0.00505209
-0.00544553
-0.00581107
-0.00614569
-0.00644763
-0.00671642
-0.00695256
-0.00715734
-0.00733266
-0.00748084
-0.00760439
-0.00770585
-0.00778764
-0.00785194
-0.00790059
-0.00793496
-0.00795593
-0.00796372
-0.00795835
-0.00793967
-0.0079011
-0.0078272
7.68313e-05
9.94356e-05
0.000101235
8.83881e-05
6.39082e-05
2.85439e-05
-1.6728e-05
-7.07896e-05
-0.000132612
-0.000201304
-0.000276161
-0.000356695
-0.000442662
-0.000534052
-0.000631078
-0.000734151
-0.000843842
-0.000960843
-0.00108593
-0.00121991
-0.0013636
-0.00151778
-0.00168319
-0.00186045
-0.00205004
-0.00225227
-0.00246725
-0.00269479
-0.00293438
-0.00318514
-0.00344576
-0.00371445
-0.00398894
-0.00426643
-0.00454364
-0.00481678
-0.00508167
-0.00533375
-0.00556822
-0.00578013
-0.00596455
-0.00611667
-0.00623196
-0.00630638
-0.00633644
-0.00631944
-0.00625355
-0.00613797
-0.00597303
-0.00576017
-0.00550193
-0.00520265
-0.00486748
-0.00450285
-0.00411626
-0.00371621
-0.00331198
-0.00291342
-0.00253066
-0.00217385
-0.00185283
-0.0015768
-0.00135397
-0.00119127
-0.00109402
-0.00106573
-0.0011079
-0.00121992
-0.0013991
-0.00164073
-0.0019383
-0.00228376
-0.00266791
-0.00308076
-0.00351205
-0.0039516
-0.00438981
-0.00481794
-0.00522845
-0.00561518
-0.00597344
-0.00630004
-0.00659321
-0.00685244
-0.00707845
-0.00727266
-0.00743722
-0.00757475
-0.00768802
-0.00777987
-0.00785296
-0.00790968
-0.00795198
-0.00798132
-0.00799849
-0.00800354
-0.00799619
-0.00797585
-0.00793504
-0.00785701
0.000144456
0.000161058
0.000158527
0.000142114
0.000114563
7.67449e-05
2.97142e-05
-2.53842e-05
-8.75187e-05
-0.000155825
-0.000229659
-0.000308621
-0.000392576
-0.000481658
-0.00057625
-0.000676955
-0.000784563
-0.0009
-0.0010243
-0.00115854
-0.00130383
-0.00146125
-0.00163183
-0.00181649
-0.00201598
-0.00223089
-0.0024615
-0.0027078
-0.00296936
-0.0032453
-0.00353424
-0.00383421
-0.00414268
-0.00445653
-0.00477204
-0.00508499
-0.00539068
-0.00568406
-0.00595978
-0.00621242
-0.00643654
-0.0066269
-0.00677858
-0.00688716
-0.00694884
-0.00696065
-0.00692051
-0.00682738
-0.00668138
-0.0064838
-0.00623712
-0.00594541
-0.00561372
-0.0052484
-0.00485692
-0.00444777
-0.00403028
-0.00361443
-0.00321054
-0.00282907
-0.00248024
-0.00217373
-0.0019183
-0.00172153
-0.00158941
-0.00152618
-0.00153403
-0.00161302
-0.00176106
-0.00197393
-0.00224547
-0.00256784
-0.00293191
-0.00332759
-0.00374438
-0.00417177
-0.00459971
-0.005019
-0.00542162
-0.00580094
-0.00615189
-0.00647096
-0.00675618
-0.00700696
-0.00722383
-0.00740847
-0.00756317
-0.00769072
-0.00779417
-0.00787661
-0.00794098
-0.00798987
-0.00802544
-0.00804926
-0.00806215
-0.00806412
-0.00805473
-0.00803316
-0.00799161
-0.00791302
0.000227913
0.000236441
0.000228296
0.00020739
0.000176063
0.000135214
8.59195e-05
2.92951e-05
-3.3677e-05
-0.000102203
-0.000175728
-0.000253972
-0.000336947
-0.00042497
-0.000518633
-0.000618783
-0.000726478
-0.000842943
-0.000969526
-0.00110765
-0.00125877
-0.00142433
-0.0016057
-0.00180412
-0.00202065
-0.00225612
-0.00251099
-0.00278533
-0.00307872
-0.00339016
-0.00371807
-0.00406016
-0.00441352
-0.00477452
-0.00513893
-0.00550196
-0.00585831
-0.00620235
-0.00652819
-0.00682986
-0.00710145
-0.00733727
-0.00753201
-0.0076809
-0.00777985
-0.00782558
-0.00781577
-0.00774914
-0.00762554
-0.00744601
-0.00721299
-0.00693018
-0.00660246
-0.00623602
-0.0058382
-0.0054174
-0.00498293
-0.00454483
-0.0041136
-0.00369994
-0.0033145
-0.00296745
-0.00266824
-0.00242516
-0.00224508
-0.00213314
-0.00209247
-0.00212407
-0.00222669
-0.00239688
-0.00262912
-0.00291601
-0.00324868
-0.00361712
-0.00401069
-0.00441861
-0.00483039
-0.00523632
-0.0056278
-0.00599763
-0.00634018
-0.00665146
-0.00692908
-0.00717217
-0.00738115
-0.00755754
-0.0077037
-0.00782254
-0.00791728
-0.00799123
-0.00804756
-0.00808912
-0.00811826
-0.00813671
-0.00814544
-0.00814451
-0.00813344
-0.00811133
-0.00807055
-0.00799456
0.000326197
0.000324746
0.000309871
0.000283576
0.000247908
0.000203552
0.000151561
9.29524e-05
2.86001e-05
-4.08176e-05
-0.000114881
-0.000193471
-0.000276796
-0.000365397
-0.000460127
-0.000562131
-0.000672796
-0.000793707
-0.000926598
-0.00107329
-0.00123566
-0.00141554
-0.00161468
-0.00183468
-0.00207688
-0.00234229
-0.00263149
-0.00294454
-0.0032809
-0.00363934
-0.00401789
-0.00441384
-0.00482372
-0.00524331
-0.00566774
-0.00609156
-0.00650886
-0.00691336
-0.00729862
-0.00765813
-0.00798552
-0.00827467
-0.00851989
-0.00871607
-0.00885879
-0.00894449
-0.00897056
-0.00893546
-0.00883871
-0.00868108
-0.0084648
-0.00819319
-0.00787086
-0.00750372
-0.00709888
-0.00666455
-0.00620992
-0.00574501
-0.00528041
-0.00482704
-0.00439592
-0.00399778
-0.00364273
-0.00333995
-0.00309731
-0.00292104
-0.00281547
-0.00278279
-0.00282295
-0.00293358
-0.00311009
-0.00334588
-0.00363259
-0.00396053
-0.00431911
-0.00469738
-0.0050845
-0.00547021
-0.00584528
-0.00620183
-0.00653351
-0.00683568
-0.00710537
-0.0073412
-0.00754325
-0.00771274
-0.00785196
-0.00796375
-0.00805142
-0.00811841
-0.00816806
-0.00820344
-0.0082271
-0.00824099
-0.00824623
-0.00824302
-0.00823097
-0.00820921
-0.0081706
-0.00809974
0.000437992
0.000424729
0.000402008
0.000369935
0.000329332
0.000281056
0.000225993
0.000164951
9.86326e-05
2.75419e-05
-4.8091e-05
-0.000128362
-0.000213722
-0.000304993
-0.000403349
-0.000510291
-0.000627603
-0.000757294
-0.000901547
-0.00106265
-0.00124292
-0.00144464
-0.00166994
-0.00192074
-0.00219862
-0.00250471
-0.0028396
-0.00320321
-0.00359473
-0.00401254
-0.00445417
-0.00491632
-0.00539484
-0.00588484
-0.00638074
-0.00687638
-0.00736518
-0.00784027
-0.00829461
-0.0087212
-0.00911319
-0.00946406
-0.00976775
-0.0100188
-0.0102125
-0.0103449
-0.0104131
-0.0104153
-0.0103507
-0.0102196
-0.0100239
-0.00976666
-0.00945199
-0.00908545
-0.0086738
-0.00822495
-0.00774786
-0.00725239
-0.00674911
-0.00624909
-0.00576364
-0.00530399
-0.00488097
-0.00450468
-0.00418409
-0.00392671
-0.00373828
-0.0036225
-0.00358081
-0.00361231
-0.00371375
-0.00387965
-0.00410259
-0.00437347
-0.00468206
-0.00501741
-0.00536843
-0.00572441
-0.00607545
-0.00641288
-0.00672952
-0.00701989
-0.00728022
-0.00750846
-0.00770406
-0.00786785
-0.00800168
-0.00810828
-0.00819085
-0.00825284
-0.0082977
-0.00832863
-0.00834835
-0.00835901
-0.00836192
-0.00835747
-0.00834541
-0.00832499
-0.00828976
-0.00822595
0.00056152
0.000534888
0.00050343
0.000464946
0.000419093
0.000366616
0.000308128
0.000244185
0.000175234
0.000101534
2.30645e-05
-6.05422e-05
-0.000150041
-0.000246594
-0.000351763
-0.000467471
-0.000595964
-0.000739742
-0.000901496
-0.00108402
-0.0012901
-0.00152247
-0.00178363
-0.00207576
-0.00240059
-0.00275926
-0.00315223
-0.00357914
-0.00403875
-0.0045289
-0.00504649
-0.00558749
-0.00614701
-0.00671939
-0.0072983
-0.00787687
-0.00844785
-0.00900373
-0.00953695
-0.01004
-0.0105055
-0.0109267
-0.011297
-0.0116107
-0.0118627
-0.0120489
-0.0121658
-0.0122114
-0.0121845
-0.0120851
-0.0119145
-0.0116754
-0.0113714
-0.0110077
-0.0105905
-0.0101272
-0.0096266
-0.00909811
-0.00855218
-0.00799988
-0.00745268
-0.00692223
-0.00641999
-0.00595697
-0.00554328
-0.00518785
-0.004898
-0.00467918
-0.00453467
-0.00446542
-0.00446994
-0.00454436
-0.00468259
-0.0048766
-0.00511683
-0.00539268
-0.00569302
-0.00600678
-0.00632345
-0.00663352
-0.00692887
-0.00720301
-0.00745119
-0.0076704
-0.00785928
-0.00801795
-0.00814775
-0.00825095
-0.00833052
-0.00838976
-0.00843206
-0.00846068
-0.00847846
-0.00848768
-0.00848982
-0.00848548
-0.00847458
-0.00845652
-0.0084257
-0.00837019
0.000694674
0.000653098
0.000612155
0.000566852
0.000515513
0.000458574
0.000396338
0.000328975
0.000256595
0.000179144
9.62836e-05
7.31091e-06
-8.89015e-05
-0.000193926
-0.000309773
-0.000438865
-0.000583972
-0.000748144
-0.000934618
-0.00114672
-0.00138773
-0.00166077
-0.00196865
-0.00231375
-0.0026978
-0.00312184
-0.00358601
-0.00408952
-0.00463056
-0.00520628
-0.00581281
-0.00644533
-0.00709813
-0.00776472
-0.00843801
-0.0091104
-0.00977396
-0.0104206
-0.0110422
-0.0116307
-0.0121784
-0.0126781
-0.0131228
-0.0135066
-0.0138239
-0.0140704
-0.0142423
-0.0143372
-0.0143535
-0.0142908
-0.01415
-0.0139332
-0.0136437
-0.0132858
-0.0128653
-0.0123892
-0.0118655
-0.0113034
-0.0107128
-0.0101046
-0.0094904
-0.00888197
-0.0082913
-0.00773015
-0.00720977
-0.00674047
-0.00633129
-0.00598962
-0.00572085
-0.00552814
-0.00541223
-0.00537134
-0.00540126
-0.00549553
-0.00564579
-0.00584217
-0.00607386
-0.00632968
-0.0065986
-0.00687032
-0.00713571
-0.00738712
-0.00761859
-0.00782595
-0.00800675
-0.00816016
-0.00828669
-0.008388
-0.00846653
-0.00852528
-0.00856743
-0.00859615
-0.00861427
-0.00862414
-0.00862738
-0.00862474
-0.00861631
-0.00860163
-0.00857603
-0.00852946
0.000834719
0.000776761
0.000725704
0.000673325
0.000616306
0.00055471
0.000488367
0.000416961
0.000340183
0.000257588
0.000168448
7.16533e-05
-3.43633e-05
-0.000151659
-0.000282768
-0.000430672
-0.000598729
-0.00079058
-0.00101004
-0.00126095
-0.00154705
-0.00187182
-0.00223826
-0.00264881
-0.00310508
-0.00360781
-0.00415669
-0.00475032
-0.00538617
-0.00606057
-0.00676882
-0.00750518
-0.00826308
-0.0090352
-0.00981363
-0.0105901
-0.0113559
-0.0121023
-0.0128209
-0.0135029
-0.0141404
-0.0147257
-0.0152515
-0.0157116
-0.0161002
-0.0164126
-0.0166448
-0.016794
-0.0168584
-0.0168371
-0.0167306
-0.0165404
-0.0162692
-0.015921
-0.0155007
-0.0150146
-0.0144702
-0.0138758
-0.013241
-0.0125762
-0.0118927
-0.0112022
-0.0105171
-0.00984955
-0.00921183
-0.00861551
-0.00807131
-0.00758862
-0.00717515
-0.00683658
-0.00657626
-0.00639504
-0.00629116
-0.00626037
-0.00629608
-0.00638978
-0.00653144
-0.00671014
-0.00691463
-0.00713394
-0.00735791
-0.00757763
-0.00778577
-0.00797673
-0.00814672
-0.00829363
-0.0084169
-0.00851724
-0.00859639
-0.00865677
-0.00870109
-0.00873239
-0.00875329
-0.00876609
-0.00877246
-0.00877324
-0.00876866
-0.00875837
-0.00873858
-0.00870108
0.000978308
0.000902683
0.000841039
0.000781387
0.000718585
0.000652126
0.000581242
0.00050503
0.000422667
0.000333241
0.000235559
0.000128028
8.56663e-06
-0.000125436
-0.000277109
-0.000450057
-0.00064827
-0.000876002
-0.00113764
-0.00143752
-0.00177978
-0.00216812
-0.00260564
-0.00309465
-0.00363649
-0.00423143
-0.00487852
-0.00557561
-0.00631931
-0.00710503
-0.0079271
-0.00877886
-0.0096528
-0.0105407
-0.0114339
-0.0123233
-0.0131997
-0.0140536
-0.0148761
-0.015658
-0.0163911
-0.0170672
-0.0176789
-0.0182198
-0.0186837
-0.0190659
-0.0193622
-0.0195695
-0.0196856
-0.0197095
-0.0196409
-0.0194814
-0.0192328
-0.0188984
-0.0184826
-0.0179908
-0.0174296
-0.0168068
-0.016131
-0.015412
-0.0146604
-0.0138879
-0.0131064
-0.0123286
-0.0115672
-0.0108349
-0.0101439
-0.00950547
-0.00892966
-0.00842486
-0.00799735
-0.00765104
-0.00738725
-0.00720457
-0.00709895
-0.00706393
-0.00709095
-0.00716992
-0.00728981
-0.00743925
-0.00760719
-0.00778345
-0.00795919
-0.00812716
-0.0082819
-0.00841975
-0.00853871
-0.00863826
-0.00871911
-0.00878283
-0.00883158
-0.0088678
-0.00889388
-0.00891193
-0.00892352
-0.0089295
-0.00893014
-0.0089252
-0.00891162
-0.0088829
0.00112145
0.00102713
0.00095444
0.00088744
0.000818774
0.000747203
0.000671236
0.000589271
0.000499883
0.000401608
0.000292716
0.000171056
3.39554e-05
-0.000121822
-0.000300064
-0.000505044
-0.000741405
-0.00101402
-0.00132782
-0.00168756
-0.00209766
-0.00256193
-0.0030834
-0.00366408
-0.00430484
-0.00500529
-0.00576369
-0.00657699
-0.00744079
-0.00834951
-0.00929642
-0.0102739
-0.0112734
-0.0122858
-0.0133016
-0.0143111
-0.0153041
-0.0162709
-0.0172019
-0.0180878
-0.0189196
-0.0196894
-0.0203894
-0.0210129
-0.0215541
-0.0220077
-0.0223698
-0.0226369
-0.022807
-0.0228784
-0.0228507
-0.022725
-0.0225028
-0.0221866
-0.0217801
-0.0212879
-0.0207157
-0.0200703
-0.0193593
-0.0185918
-0.0177774
-0.016927
-0.0160521
-0.0151653
-0.0142795
-0.0134078
-0.0125637
-0.01176
-0.0110089
-0.0103216
-0.00970723
-0.00917327
-0.00872454
-0.00836315
-0.00808838
-0.00789665
-0.00778173
-0.00773518
-0.0077468
-0.00780536
-0.00789924
-0.00801711
-0.00814855
-0.00828449
-0.00841754
-0.00854212
-0.00865445
-0.0087524
-0.0088353
-0.00890359
-0.00895851
-0.00900181
-0.00903535
-0.00906087
-0.00907971
-0.00909263
-0.00909984
-0.00910111
-0.00909401
-0.00907349
0.00125957
0.00114551
0.00106157
0.000987213
0.000912592
0.000835587
0.000753847
0.000664964
0.000566824
0.000457334
0.000334148
0.000194482
3.50031e-05
-0.000148218
-0.000359675
-0.000604338
-0.000887512
-0.00121465
-0.00159116
-0.00202213
-0.00251212
-0.00306487
-0.00368315
-0.00436849
-0.00512109
-0.00593973
-0.00682172
-0.00776293
-0.00875788
-0.00979984
-0.010881
-0.0119926
-0.0131251
-0.0142686
-0.0154125
-0.0165464
-0.0176597
-0.018742
-0.0197832
-0.0207739
-0.0217049
-0.0225681
-0.0233557
-0.0240612
-0.0246787
-0.025203
-0.0256301
-0.0259569
-0.026181
-0.0263007
-0.0263151
-0.0262257
-0.026033
-0.0257392
-0.0253469
-0.0248602
-0.0242837
-0.0236232
-0.0228854
-0.0220779
-0.0212094
-0.0202897
-0.0193295
-0.0183405
-0.0173354
-0.0163275
-0.0153306
-0.0143588
-0.0134261
-0.0125458
-0.0117304
-0.0109905
-0.010335
-0.0097701
-0.00929903
-0.00892205
-0.00863627
-0.00843585
-0.00831241
-0.00825558
-0.00825375
-0.00829479
-0.00836683
-0.0084589
-0.00856143
-0.00866657
-0.00876837
-0.00886269
-0.00894706
-0.00902043
-0.0090828
-0.00913493
-0.00917792
-0.00921294
-0.00924094
-0.00926243
-0.00927747
-0.00928574
-0.00928529
-0.00927222
0.00138715
0.00125277
0.00115747
0.00107577
0.000995066
0.000912195
0.000823814
0.000726606
0.000617685
0.000494254
0.000353278
0.000191268
4.16547e-06
-0.000212703
-0.000464569
-0.000757109
-0.00109626
-0.00148801
-0.00193812
-0.00245187
-0.0030338
-0.00368741
-0.00441498
-0.00521737
-0.00609392
-0.00704238
-0.00805895
-0.00913829
-0.0102737
-0.0114572
-0.0126798
-0.0139317
-0.0152022
-0.0164803
-0.0177549
-0.0190147
-0.0202485
-0.0214455
-0.0225955
-0.0236887
-0.024716
-0.0256692
-0.026541
-0.0273247
-0.0280148
-0.0286064
-0.0290956
-0.0294795
-0.0297557
-0.0299227
-0.029979
-0.0299272
-0.0297663
-0.0294979
-0.0291246
-0.0286492
-0.0280757
-0.0274088
-0.0266537
-0.0258171
-0.0249061
-0.0239293
-0.0228961
-0.021817
-0.0207039
-0.0195695
-0.0184275
-0.0172925
-0.0161795
-0.0151037
-0.0140801
-0.0131227
-0.0122442
-0.0114551
-0.0107635
-0.0101741
-0.00968846
-0.0093045
-0.0090168
-0.00881695
-0.00869422
-0.00863635
-0.00863037
-0.0086635
-0.00872388
-0.0088011
-0.0088866
-0.00897377
-0.0090579
-0.00913599
-0.00920644
-0.00926865
-0.00932271
-0.00936898
-0.00940784
-0.00943937
-0.00946339
-0.00947939
-0.00948571
-0.00947933
0.00149833
0.00134323
0.00123654
0.00114753
0.00106057
0.000971269
0.000875177
0.000767982
0.000645947
0.0005055
0.000342849
0.00015374
-6.66694e-05
-0.00032383
-0.000623724
-0.000972713
-0.00137731
-0.00184393
-0.00237858
-0.00298656
-0.00367217
-0.00443847
-0.00528705
-0.00621787
-0.00722922
-0.00831765
-0.00947806
-0.0107038
-0.0119868
-0.0133178
-0.0146865
-0.0160818
-0.0174922
-0.0189056
-0.0203101
-0.0216937
-0.0230449
-0.0243526
-0.0256064
-0.0267965
-0.027914
-0.028951
-0.0299004
-0.030756
-0.0315126
-0.0321658
-0.0327119
-0.0331483
-0.033473
-0.0336848
-0.0337836
-0.0337674
-0.0336386
-0.0333979
-0.0330472
-0.0325886
-0.0320251
-0.0313603
-0.0305984
-0.0297446
-0.0288047
-0.0277855
-0.026695
-0.0255422
-0.0243375
-0.0230924
-0.0218199
-0.0205342
-0.0192507
-0.0179855
-0.0167555
-0.0155773
-0.0144672
-0.0134401
-0.0125088
-0.0116836
-0.0109712
-0.0103745
-0.00989227
-0.00951952
-0.00924763
-0.00906518
-0.00895884
-0.00891442
-0.00891781
-0.00895587
-0.00901706
-0.00909178
-0.00917259
-0.00925401
-0.00933235
-0.00940532
-0.00947161
-0.00953055
-0.0095817
-0.00962458
-0.0096586
-0.00968299
-0.00969624
-0.00969586
0.00158658
0.00141064
0.00129266
0.00119639
0.00110291
0.00100645
0.000901368
0.000782266
0.000644492
0.000483636
0.000295086
7.37706e-05
-0.000185971
-0.000490385
-0.000846192
-0.00126039
-0.00173998
-0.00229167
-0.00292154
-0.00363472
-0.00443508
-0.005325
-0.00630515
-0.0073744
-0.00852976
-0.00976642
-0.0110778
-0.0124559
-0.013891
-0.0153726
-0.0168889
-0.0184278
-0.0199766
-0.0215224
-0.0230526
-0.0245546
-0.0260168
-0.0274278
-0.0287774
-0.0300559
-0.0312549
-0.0323668
-0.0333851
-0.034304
-0.035119
-0.0358261
-0.0364223
-0.0369052
-0.0372732
-0.0375254
-0.0376619
-0.037681
-0.0375843
-0.0373725
-0.037047
-0.0366095
-0.0360621
-0.0354076
-0.0346489
-0.03379
-0.032835
-0.0317894
-0.0306592
-0.0294517
-0.0281755
-0.0268403
-0.0254578
-0.024041
-0.0226045
-0.0211647
-0.0197392
-0.0183464
-0.0170055
-0.0157352
-0.0145532
-0.013475
-0.0125135
-0.0116774
-0.0109713
-0.010395
-0.00994352
-0.00960774
-0.00937511
-0.00923078
-0.0091588
-0.0091433
-0.00916947
-0.00922433
-0.00929705
-0.00937915
-0.00946429
-0.00954798
-0.00962717
-0.0096998
-0.00976439
-0.00981972
-0.00986466
-0.00989805
-0.00991848
-0.00992361
0.00164494
0.00144834
0.0013193
0.00121577
0.00111539
0.0010109
0.000895341
0.000762173
0.000605773
0.000420839
0.000201895
-5.69897e-05
-0.000362313
-0.000721111
-0.0011408
-0.00162893
-0.00219287
-0.00283948
-0.0035747
-0.00440329
-0.00532845
-0.00635165
-0.00747242
-0.00868833
-0.0099949
-0.0113858
-0.0128529
-0.0143864
-0.0159753
-0.0176074
-0.0192698
-0.020949
-0.0226314
-0.0243035
-0.0259518
-0.0275638
-0.0291275
-0.0306317
-0.0320664
-0.0334225
-0.0346921
-0.0358682
-0.0369448
-0.0379171
-0.038781
-0.0395334
-0.0401716
-0.040694
-0.0410992
-0.0413867
-0.0415564
-0.0416079
-0.0415416
-0.0413586
-0.0410598
-0.0406464
-0.04012
-0.0394824
-0.0387358
-0.0378826
-0.036926
-0.0358694
-0.0347174
-0.0334752
-0.0321493
-0.0307475
-0.0292794
-0.027756
-0.0261908
-0.0245988
-0.0229976
-0.0214062
-0.0198454
-0.0183369
-0.0169024
-0.0155627
-0.0143368
-0.0132401
-0.0122841
-0.0114748
-0.0108127
-0.0102928
-0.0099048
-0.00963454
-0.00946504
-0.00937803
-0.00935543
-0.00938043
-0.00943833
-0.00951694
-0.00960667
-0.00970026
-0.00979243
-0.00987934
-0.00995823
-0.0100269
-0.0100836
-0.0101267
-0.0101544
-0.010165
0.00166614
0.00144938
0.00130958
0.00119878
0.00109104
0.000977467
0.000849742
0.000700136
0.000522007
0.000309122
5.51041e-05
-0.000246857
-0.000604097
-0.00102441
-0.00151583
-0.00208636
-0.00274359
-0.00349432
-0.00434418
-0.00529728
-0.00635596
-0.00752052
-0.00878913
-0.0101578
-0.0116205
-0.0131691
-0.0147937
-0.016483
-0.0182242
-0.0200037
-0.0218073
-0.0236204
-0.0254285
-0.0272175
-0.0289738
-0.0306845
-0.0323378
-0.033923
-0.0354305
-0.0368518
-0.0381797
-0.0394081
-0.0405319
-0.0415468
-0.0424496
-0.0432379
-0.0439098
-0.044464
-0.0448997
-0.0452168
-0.0454153
-0.0454951
-0.0454569
-0.0453013
-0.0450292
-0.0446415
-0.0441393
-0.0435237
-0.042796
-0.0419578
-0.0410109
-0.0399574
-0.0388
-0.0375422
-0.0361884
-0.0347441
-0.0332164
-0.0316142
-0.0299485
-0.0282327
-0.0264827
-0.0247172
-0.0229571
-0.0212258
-0.0195478
-0.0179485
-0.0164523
-0.0150817
-0.0138555
-0.0127875
-0.0118853
-0.0111499
-0.0105755
-0.0101501
-0.00985725
-0.00967705
-0.00958842
-0.00957061
-0.00960454
-0.00967369
-0.00976447
-0.00986618
-0.00997072
-0.0100721
-0.0101659
-0.0102487
-0.0103179
-0.0103713
-0.0104068
-0.0104229
0.00164277
0.00140667
0.00125649
0.00113838
0.00102268
0.000898833
0.000757094
0.000588512
0.0003854
0.000140567
-0.000153286
-0.000503849
-0.000919271
-0.00140804
-0.00197873
-0.00263963
-0.00339839
-0.00426154
-0.00523417
-0.00631954
-0.00751882
-0.00883094
-0.0102525
-0.0117778
-0.013399
-0.015106
-0.0168872
-0.0187295
-0.0206185
-0.0225391
-0.024476
-0.0264136
-0.0283368
-0.030231
-0.0320826
-0.0338789
-0.0356085
-0.0372612
-0.038828
-0.0403015
-0.0416752
-0.0429439
-0.0441033
-0.0451502
-0.0460821
-0.0468972
-0.0475944
-0.048173
-0.0486326
-0.0489735
-0.0491958
-0.0492999
-0.0492865
-0.0491563
-0.0489099
-0.048548
-0.0480715
-0.047481
-0.0467771
-0.0459607
-0.0450324
-0.0439933
-0.0428446
-0.041588
-0.040226
-0.0387618
-0.0372001
-0.0355471
-0.0338111
-0.0320029
-0.0301361
-0.0282274
-0.0262967
-0.0243675
-0.0224656
-0.0206194
-0.018858
-0.01721
-0.015702
-0.014356
-0.0131883
-0.0122078
-0.0114154
-0.0108037
-0.0103583
-0.0100595
-0.00988386
-0.00980693
-0.00980497
-0.0098565
-0.00994319
-0.0100501
-0.0101658
-0.0102813
-0.0103903
-0.0104878
-0.0105702
-0.0106346
-0.0106785
-0.0107006
0.00156746
0.00131315
0.00115306
0.00102752
0.000903185
0.000767747
0.000610017
0.00041981
0.000188384
-9.24251e-05
-0.000430838
-0.000835407
-0.00131504
-0.00187885
-0.0025358
-0.00329433
-0.00416192
-0.00514465
-0.00624681
-0.00747054
-0.00881566
-0.0102795
-0.0118568
-0.0135401
-0.0153194
-0.0171828
-0.0191168
-0.0211064
-0.0231358
-0.0251885
-0.0272482
-0.0292986
-0.0313241
-0.03331
-0.035243
-0.0371106
-0.0389023
-0.0406084
-0.0422212
-0.0437338
-0.045141
-0.0464384
-0.0476228
-0.0486917
-0.0496436
-0.0504772
-0.0511921
-0.0517882
-0.0522656
-0.0526247
-0.0528661
-0.0529904
-0.0529984
-0.0528907
-0.0526681
-0.0523312
-0.0518804
-0.0513163
-0.0506389
-0.0498485
-0.0489451
-0.0479288
-0.0467996
-0.0455578
-0.044204
-0.0427396
-0.0411668
-0.0394892
-0.0377123
-0.0358436
-0.0338937
-0.0318766
-0.0298097
-0.027715
-0.025618
-0.0235482
-0.0215378
-0.0196203
-0.017829
-0.0161946
-0.0147427
-0.0134918
-0.0124515
-0.0116217
-0.0109926
-0.0105465
-0.0102591
-0.0101031
-0.0100502
-0.0100734
-0.0101489
-0.0102569
-0.0103814
-0.0105102
-0.0106343
-0.010747
-0.0108433
-0.0109194
-0.0109726
-0.0110016
0.0014331
0.00116198
0.000992537
0.000859424
0.000725678
0.000577233
0.000401454
0.000186931
-7.61362e-05
-0.000396877
-0.000784418
-0.00124813
-0.00179762
-0.00244249
-0.00319196
-0.00405443
-0.00503703
-0.00614513
-0.00738197
-0.00874837
-0.0102425
-0.01186
-0.0135935
-0.0154335
-0.017368
-0.0193831
-0.0214633
-0.0235919
-0.0257518
-0.0279253
-0.0300952
-0.0322448
-0.0343584
-0.0364215
-0.0384211
-0.0403457
-0.0421852
-0.0439313
-0.045577
-0.0471167
-0.0485461
-0.0498619
-0.0510617
-0.052144
-0.0531078
-0.0539528
-0.0546789
-0.0552866
-0.0557763
-0.0561488
-0.0564049
-0.0565455
-0.0565714
-0.0564834
-0.0562822
-0.0559683
-0.0555423
-0.0550042
-0.0543541
-0.0535918
-0.0527168
-0.0517284
-0.050626
-0.0494087
-0.0480758
-0.0466268
-0.045062
-0.0433825
-0.0415908
-0.0396914
-0.0376915
-0.0356015
-0.0334355
-0.0312124
-0.0289559
-0.0266945
-0.0244615
-0.0222936
-0.0202292
-0.0183067
-0.0165611
-0.0150213
-0.0137077
-0.0126296
-0.011785
-0.0111604
-0.0107333
-0.0104746
-0.0103521
-0.0103332
-0.0103883
-0.0104914
-0.0106215
-0.0107622
-0.0109011
-0.0110293
-0.0111402
-0.0112289
-0.0112923
-0.0113293
0.00123302
0.000946785
0.000768572
0.000627709
0.000483726
0.000320807
0.000124902
-0.000116603
-0.000414542