/*--------------------------------*- C++ -*----------------------------------*\
  =========                 |
  \\      /  F ield         | OpenFOAM: The Open Source CFD Toolbox
   \\    /   O peration     | Website:  https://openfoam.org
    \\  /    A nd           | Version:  9
     \\/     M anipulation  |
\*---------------------------------------------------------------------------*/
FoamFile
{
    format      ascii;
    class       surfaceScalarField;
    location    "2.5";
    object      phi;
}
// * * * * * * * * * * * * * * * * * * * * * * * * * * * * * * * * * * * * * //

dimensions      [0 3 -1 0 0 0 0];

internalField   nonuniform List<scalar> 
19800
(
8.64968e-11
-8.67982e-11
8.72107e-10
-7.85612e-10
2.22766e-09
-1.35556e-09
3.89387e-09
-1.66623e-09
5.66042e-09
-1.76656e-09
7.3736e-09
-1.71316e-09
8.92719e-09
-1.55359e-09
1.02526e-08
-1.32545e-09
1.13096e-08
-1.05699e-09
1.20783e-08
-7.68648e-10
1.25528e-08
-4.74567e-10
1.27365e-08
-1.83692e-10
1.26375e-08
9.9033e-11
1.22651e-08
3.72423e-10
1.16274e-08
6.37677e-10
1.07294e-08
8.97958e-10
9.57173e-09
1.15769e-09
8.14984e-09
1.4219e-09
6.45413e-09
1.69571e-09
4.47027e-09
1.98384e-09
2.17998e-09
2.2903e-09
-4.38101e-10
2.61808e-09
-3.4072e-09
2.96909e-09
-6.75124e-09
3.34403e-09
-1.04937e-08
3.74245e-09
-1.46564e-08
4.16272e-09
-1.92585e-08
4.60215e-09
-2.43155e-08
5.057e-09
-2.98381e-08
5.52252e-09
-3.5831e-08
5.99298e-09
-4.22927e-08
6.46169e-09
-4.92138e-08
6.92107e-09
-5.65765e-08
7.36264e-09
-6.43536e-08
7.77715e-09
-7.25083e-08
8.15466e-09
-8.0993e-08
8.48471e-09
-8.97495e-08
8.75649e-09
-9.87085e-08
8.95903e-09
-1.0779e-07
9.08146e-09
-1.16903e-07
9.11328e-09
-1.25948e-07
9.04461e-09
-1.34814e-07
8.86652e-09
-1.43386e-07
8.57127e-09
-1.51538e-07
8.15267e-09
-1.59145e-07
7.60628e-09
-1.66074e-07
6.92976e-09
-1.72197e-07
6.12306e-09
-1.77386e-07
5.18867e-09
-1.81518e-07
4.13203e-09
-1.8448e-07
2.96207e-09
-1.86171e-07
1.69045e-09
-1.86505e-07
3.34284e-10
-1.85393e-07
-1.1118e-09
-1.82799e-07
-2.59436e-09
-1.7869e-07
-4.10911e-09
-1.73062e-07
-5.62789e-09
-1.65938e-07
-7.12348e-09
-1.57371e-07
-8.5674e-09
-1.47441e-07
-9.93039e-09
-1.36257e-07
-1.11832e-08
-1.2396e-07
-1.22974e-08
-1.10713e-07
-1.32466e-08
-9.67064e-08
-1.40069e-08
-8.21481e-08
-1.45584e-08
-6.72622e-08
-1.48858e-08
-5.22826e-08
-1.49796e-08
-3.74463e-08
-1.48363e-08
-2.29874e-08
-1.44589e-08
-9.12987e-09
-1.38575e-08
3.91896e-09
-1.30488e-08
1.5975e-08
-1.20561e-08
2.68808e-08
-1.09058e-08
3.65122e-08
-9.63135e-09
4.47799e-08
-8.26775e-09
5.16318e-08
-6.85192e-09
5.70521e-08
-5.4203e-09
6.106e-08
-4.00786e-09
6.37067e-08
-2.64667e-09
6.50713e-08
-1.36461e-09
6.52559e-08
-1.84575e-10
6.43797e-08
8.76142e-10
6.25736e-08
1.8061e-09
5.9974e-08
2.59964e-09
5.67177e-08
3.25631e-09
5.29372e-08
3.78049e-09
4.87567e-08
4.18048e-09
4.42892e-08
4.46751e-09
3.96347e-08
4.65452e-09
3.48798e-08
4.75485e-09
3.00992e-08
4.7806e-09
2.53584e-08
4.74084e-09
2.0719e-08
4.6394e-09
1.62466e-08
4.47242e-09
1.20208e-08
4.22577e-09
8.14812e-09
3.87269e-09
4.77483e-09
3.37329e-09
2.09418e-09
2.68065e-09
3.3345e-10
1.76073e-09
-3.2313e-10
6.56581e-10
-3.23128e-10
7.85325e-10
-8.72126e-10
2.96504e-09
-2.9653e-09
6.13678e-09
-4.52728e-09
9.86952e-09
-5.39898e-09
1.37702e-08
-5.66719e-09
1.75175e-08
-5.46051e-09
2.08678e-08
-4.90392e-09
2.36478e-08
-4.10539e-09
2.57424e-08
-3.15161e-09
2.70824e-08
-2.10864e-09
2.76319e-08
-1.0241e-09
2.73771e-08
7.10564e-11
2.63193e-08
1.15689e-09
2.44629e-08
2.22878e-09
2.18129e-08
3.28773e-09
1.83684e-08
4.34243e-09
1.41203e-08
5.40573e-09
9.04958e-09
6.49267e-09
3.12669e-09
7.6186e-09
-3.68704e-09
8.79758e-09
-1.14379e-08
1.00411e-08
-2.01771e-08
1.13573e-08
-2.99582e-08
1.27502e-08
-4.08336e-08
1.42194e-08
-5.28517e-08
1.57605e-08
-6.60536e-08
1.73646e-08
-8.04701e-08
1.90186e-08
-9.61188e-08
2.07058e-08
-1.13002e-07
2.24054e-08
-1.31102e-07
2.40934e-08
-1.50383e-07
2.57426e-08
-1.70785e-07
2.73226e-08
-1.92223e-07
2.88007e-08
-2.14587e-07
3.0142e-08
-2.37743e-07
3.13101e-08
-2.61526e-07
3.22678e-08
-2.85748e-07
3.2978e-08
-3.10193e-07
3.34042e-08
-3.34623e-07
3.35119e-08
-3.58779e-07
3.32691e-08
-3.82382e-07
3.26476e-08
-4.05139e-07
3.16236e-08
-4.26746e-07
3.01786e-08
-4.46894e-07
2.83006e-08
-4.65272e-07
2.59843e-08
-4.81575e-07
2.32319e-08
-4.95505e-07
2.00534e-08
-5.06784e-07
1.64675e-08
-5.15153e-07
1.25016e-08
-5.20385e-07
8.19361e-09
-5.22285e-07
3.59036e-09
-5.207e-07
-1.25046e-09
-5.155e-07
-6.31165e-09
-5.06625e-07
-1.14693e-08
-4.94066e-07
-1.66682e-08
-4.77866e-07
-2.18281e-08
-4.58126e-07
-2.68638e-08
-4.35006e-07
-3.16874e-08
-4.08726e-07
-3.62101e-08
-3.79565e-07
-4.03443e-08
-3.47856e-07
-4.40059e-08
-3.13986e-07
-4.71168e-08
-2.78385e-07
-4.96077e-08
-2.41523e-07
-5.14202e-08
-2.039e-07
-5.25098e-08
-1.66031e-07
-5.28477e-08
-1.28445e-07
-5.24227e-08
-9.16611e-08
-5.12429e-08
-5.6183e-08
-4.93356e-08
-2.24841e-08
-4.67478e-08
9.00474e-09
-4.35449e-08
3.79077e-08
-3.98088e-08
6.39098e-08
-3.56334e-08
8.67679e-08
-3.11259e-08
1.06315e-07
-2.6399e-08
1.22462e-07
-2.1567e-08
1.35196e-07
-1.67418e-08
1.44578e-07
-1.20294e-08
1.50739e-07
-7.52515e-09
1.53865e-07
-3.31091e-09
1.54194e-07
5.47043e-10
1.52e-07
4.0006e-09
1.47581e-07
7.01886e-09
1.41249e-07
9.58827e-09
1.33318e-07
1.17114e-08
1.24094e-07
1.34046e-08
1.13866e-07
1.4695e-08
1.02904e-07
1.56167e-08
9.14523e-08
1.62065e-08
7.97343e-08
1.64985e-08
6.79569e-08
1.65183e-08
5.632e-08
1.62763e-08
4.50311e-08
1.57613e-08
3.43223e-08
1.49346e-08
2.44682e-08
1.37268e-08
1.57986e-08
1.2043e-08
8.69359e-09
9.78562e-09
3.54697e-09
6.90735e-09
6.78739e-10
3.52482e-09
3.55612e-10
1.36335e-09
-2.23548e-09
4.54797e-09
-6.14994e-09
8.89882e-09
-8.87812e-09
1.38491e-08
-1.03492e-08
1.89013e-08
-1.07194e-08
2.36421e-08
-1.02014e-08
2.77466e-08
-9.0084e-09
3.09723e-08
-7.33102e-09
3.31479e-08
-5.32722e-09
3.416e-08
-3.12079e-09
3.3939e-08
-8.0305e-10
3.24463e-08
1.56368e-09
2.96607e-08
3.94247e-09
2.55713e-08
6.31827e-09
2.01665e-08
8.69247e-09
1.34297e-08
1.10793e-08
5.33427e-09
1.35012e-08
-4.15786e-09
1.59848e-08
-1.50965e-08
1.85572e-08
-2.75417e-08
2.12428e-08
-4.15608e-08
2.40602e-08
-5.72245e-08
2.70211e-08
-7.46029e-08
3.01285e-08
-9.37598e-08
3.33764e-08
-1.14749e-07
3.67494e-08
-1.37607e-07
4.0223e-08
-1.62352e-07
4.3764e-08
-1.88978e-07
4.7331e-08
-2.17447e-07
5.0875e-08
-2.47694e-07
5.434e-08
-2.79615e-07
5.7664e-08
-3.13072e-07
6.07798e-08
-3.47888e-07
6.36163e-08
-3.83846e-07
6.60996e-08
-4.2069e-07
6.81547e-08
-4.58129e-07
6.97072e-08
-4.95836e-07
7.06849e-08
-5.33452e-07
7.10201e-08
-5.70591e-07
7.06508e-08
-6.06845e-07
6.95232e-08
-6.4179e-07
6.75927e-08
-6.74993e-07
6.48261e-08
-7.06016e-07
6.12021e-08
-7.34429e-07
5.67131e-08
-7.5981e-07
5.13657e-08
-7.81759e-07
4.51809e-08
-7.99901e-07
3.81952e-08
-8.13893e-07
3.04602e-08
-8.23435e-07
2.20427e-08
-8.28268e-07
1.30273e-08
-8.28208e-07
3.52975e-09
-8.23054e-07
-6.40406e-09
-8.12756e-07
-1.66098e-08
-7.97277e-07
-2.69481e-08
-7.7666e-07
-3.72851e-08
-7.51016e-07
-4.74721e-08
-7.20527e-07
-5.73535e-08
-6.85443e-07
-6.67707e-08
-6.46088e-07
-7.5565e-08
-6.02852e-07
-8.35809e-08
-5.56188e-07
-9.067e-08
-5.0661e-07
-9.66945e-08
-4.54686e-07
-1.01532e-07
-4.01027e-07
-1.05079e-07
-3.4628e-07
-1.07256e-07
-2.91118e-07
-1.0801e-07
-2.36223e-07
-1.07317e-07
-1.82278e-07
-1.05188e-07
-1.29948e-07
-1.01666e-07
-7.98667e-08
-9.68287e-08
-3.26245e-08
-9.07871e-08
1.12492e-08
-8.36825e-08
5.12987e-08
-7.56829e-08
8.71463e-08
-6.69735e-08
1.18511e-07
-5.77634e-08
1.45205e-07
-4.82612e-08
1.67142e-07
-3.86784e-08
1.84331e-07
-2.92189e-08
1.96877e-07
-2.00715e-08
2.0497e-07
-1.14037e-08
2.08874e-07
-3.35693e-09
2.08917e-07
3.95787e-09
2.05472e-07
1.04639e-08
1.98947e-07
1.61134e-08
1.89766e-07
2.08918e-08
1.78359e-07
2.48119e-08
1.65145e-07
2.79088e-08
1.50528e-07
3.02339e-08
1.34889e-07
3.18459e-08
1.18586e-07
3.28017e-08
1.01959e-07
3.31447e-08
8.53418e-08
3.28936e-08
6.90719e-08
3.20312e-08
5.35111e-08
3.04953e-08
3.90611e-08
2.81768e-08
2.61729e-08
2.49311e-08
1.53421e-08
2.06164e-08
7.07905e-09
1.51704e-08
1.8451e-09
8.75877e-09
2.20071e-09
1.69155e-09
-3.92702e-09
5.45895e-09
-9.91738e-09
1.0425e-08
-1.38441e-08
1.59013e-08
-1.58256e-08
2.13158e-08
-1.61338e-08
2.61998e-08
-1.50854e-08
3.01818e-08
-1.29903e-08
3.29769e-08
-1.01261e-08
3.43754e-08
-6.72577e-09
3.42292e-08
-2.97456e-09
3.24373e-08
9.88815e-10
2.89325e-08
5.06852e-09
2.36683e-08
9.20668e-09
1.66089e-08
1.33776e-08
7.71989e-09
1.75815e-08
-3.03812e-09
2.18373e-08
-1.57136e-08
2.61767e-08
-3.03659e-08
3.06371e-08
-4.70645e-08
3.52559e-08
-6.58868e-08
4.0065e-08
-8.69139e-08
4.50873e-08
-1.10225e-07
5.03325e-08
-1.35893e-07
5.57965e-08
-1.63976e-07
6.1459e-08
-1.94511e-07
6.72846e-08
-2.2751e-07
7.3222e-08
-2.62952e-07
7.92058e-08
-3.00778e-07
8.51571e-08
-3.40888e-07
9.0985e-08
-3.83136e-07
9.65883e-08
-4.2733e-07
1.01857e-07
-4.73226e-07
1.06676e-07
-5.20533e-07
1.10924e-07
-5.68915e-07
1.14481e-07
-6.17987e-07
1.17227e-07
-6.67326e-07
1.19047e-07
-7.16475e-07
1.19834e-07
-7.64947e-07
1.19492e-07
-8.12236e-07
1.17939e-07
-8.5782e-07
1.15107e-07
-9.01176e-07
1.10948e-07
-9.41782e-07
1.05432e-07
-9.7913e-07
9.85505e-08
-1.01273e-06
9.03164e-08
-1.04213e-06
8.07643e-08
-1.0669e-06
6.99506e-08
-1.08666e-06
5.79533e-08
-1.10107e-06
4.48715e-08
-1.10985e-06
3.08236e-08
-1.11277e-06
1.59421e-08
-1.10971e-06
4.71025e-10
-1.10046e-06
-1.56498e-08
-1.08507e-06
-3.20065e-08
-1.06353e-06
-4.84798e-08
-1.03596e-06
-6.48554e-08
-1.00252e-06
-8.0913e-08
-9.6345e-07
-9.64263e-08
-9.19054e-07
-1.11166e-07
-8.69713e-07
-1.24905e-07
-8.15874e-07
-1.3742e-07
-7.58046e-07
-1.48498e-07
-6.96798e-07
-1.57942e-07
-6.32757e-07
-1.65573e-07
-5.66595e-07
-1.71242e-07
-4.99024e-07
-1.74827e-07
-4.30786e-07
-1.76248e-07
-3.6264e-07
-1.75463e-07
-2.95351e-07
-1.72477e-07
-2.29675e-07
-1.67342e-07
-1.66343e-07
-1.60161e-07
-1.06047e-07
-1.51083e-07
-4.94257e-08
-1.40303e-07
2.95001e-09
-1.28059e-07
5.05979e-08
-1.14621e-07
9.31183e-08
-1.00284e-07
1.30219e-07
-8.53624e-08
1.61716e-07
-7.01751e-08
1.87533e-07
-5.50356e-08
2.07703e-07
-4.02412e-08
2.22362e-07
-2.60631e-08
2.31742e-07
-1.27373e-08
2.36162e-07
-4.61433e-10
2.36002e-07
1.06235e-08
2.31705e-07
2.041e-08
2.23749e-07
2.88479e-08
2.12634e-07
3.59276e-08
1.98865e-07
4.16772e-08
1.82947e-07
4.61525e-08
1.65367e-07
4.94253e-08
1.466e-07
5.15689e-08
1.27103e-07
5.26419e-08
1.07325e-07
5.26711e-08
8.77208e-08
5.16357e-08
6.87606e-08
4.94556e-08
5.09483e-08
4.59891e-08
3.48314e-08
4.10481e-08
2.10054e-08
3.44424e-08
1.01116e-08
2.60643e-08
2.83795e-09
1.60324e-08
5.03866e-09
1.81347e-09
-5.74047e-09
5.76243e-09
-1.38663e-08
1.08199e-08
-1.89017e-08
1.62051e-08
-2.12107e-08
2.12924e-08
-2.12212e-08
2.55802e-08
-1.93732e-08
2.86709e-08
-1.60811e-08
3.02558e-08
-1.1711e-08
3.01002e-08
-6.57022e-09
2.80299e-08
-9.04252e-10
2.39168e-08
5.10197e-09
1.76656e-08
1.13196e-08
9.20233e-09
1.767e-08
-1.53676e-09
2.41167e-08
-1.46131e-08
3.06578e-08
-3.00918e-08
3.73159e-08
-4.8045e-08
4.41299e-08
-6.8553e-08
5.1145e-08
-9.17019e-08
5.84047e-08
-1.1758e-07
6.59436e-08
-1.46274e-07
7.37811e-08
-1.77859e-07
8.19174e-08
-2.12393e-07
9.03308e-08
-2.49911e-07
9.89764e-08
-2.90412e-07
1.07786e-07
-3.33859e-07
1.16668e-07
-3.80166e-07
1.25513e-07
-4.29199e-07
1.3419e-07
-4.80767e-07
1.42553e-07
-5.34624e-07
1.50445e-07
-5.90466e-07
1.57699e-07
-6.47931e-07
1.64142e-07
-7.06608e-07
1.696e-07
-7.66032e-07
1.73905e-07
-8.25699e-07
1.76894e-07
-8.85071e-07
1.78418e-07
-9.43583e-07
1.78345e-07
-1.00065e-06
1.76562e-07
-1.05569e-06
1.72979e-07
-1.10812e-06
1.67534e-07
-1.15736e-06
1.60191e-07
-1.20287e-06
1.50941e-07
-1.24412e-06
1.39806e-07
-1.28064e-06
1.26835e-07
-1.31199e-06
1.12106e-07
-1.33776e-06
9.57222e-08
-1.35762e-06
7.78131e-08
-1.37128e-06
5.85317e-08
-1.37851e-06
3.80535e-08
-1.37914e-06
1.65798e-08
-1.37301e-06
-5.65993e-09
-1.36016e-06
-2.85075e-08
-1.34053e-06
-5.16374e-08
-1.3142e-06
-7.48065e-08
-1.28131e-06
-9.77438e-08
-1.24206e-06
-1.20166e-07
-1.1967e-06
-1.41783e-07
-1.14557e-06
-1.62302e-07
-1.08904e-06
-1.81429e-07
-1.02758e-06
-1.9888e-07
-9.61702e-07
-2.14378e-07
-8.91978e-07
-2.27666e-07
-8.19041e-07
-2.3851e-07
-7.43575e-07
-2.46708e-07
-6.66307e-07
-2.52095e-07
-5.88002e-07
-2.54553e-07
-5.09451e-07
-2.54014e-07
-4.31459e-07
-2.50469e-07
-3.54833e-07
-2.43968e-07
-2.80369e-07
-2.34625e-07
-2.08832e-07
-2.2262e-07
-1.40945e-07
-2.08191e-07
-7.73689e-08
-1.91634e-07
-1.8695e-08
-1.73295e-07
3.45797e-08
-1.53559e-07
8.20536e-08
-1.32836e-07
1.23433e-07
-1.11555e-07
1.58541e-07
-9.01434e-08
1.87315e-07
-6.90148e-08
2.09806e-07
-4.85548e-08
2.26179e-07
-2.91097e-08
2.36693e-07
-1.09754e-08
2.41705e-07
5.61151e-09
2.41639e-07
2.04759e-08
2.36982e-07
3.35047e-08
2.28263e-07
4.46466e-08
2.16038e-07
5.39027e-08
2.00873e-07
6.13167e-08
1.8334e-07
6.69591e-08
1.64e-07
7.09089e-08
1.43409e-07
7.32328e-08
1.22117e-07
7.39628e-08
1.00677e-07
7.30756e-08
7.96552e-08
7.04773e-08
5.9646e-08
6.59983e-08
4.12862e-08
5.94078e-08
2.52737e-08
5.04549e-08
1.2393e-08
3.8945e-08
3.56561e-09
2.48598e-08
8.60427e-09
1.77489e-09
-7.51534e-09
5.55019e-09
-1.76416e-08
1.0222e-08
-2.35735e-08
1.49552e-08
-2.59439e-08
1.90947e-08
-2.53608e-08
2.21235e-08
-2.2402e-08
2.36334e-08
-1.7591e-08
2.33042e-08
-1.13818e-08
2.08867e-08
-4.1527e-09
1.61874e-08
3.79504e-09
9.05526e-09
1.22341e-08
-6.30831e-10
2.10057e-08
-1.29729e-08
3.00121e-08
-2.80632e-08
3.9207e-08
-4.5991e-08
4.85856e-08
-6.68475e-08
5.81724e-08
-9.07275e-08
6.80099e-08
-1.17728e-07
7.8146e-08
-1.47948e-07
8.86239e-08
-1.81476e-07
9.94722e-08
-2.18392e-07
1.10697e-07
-2.58753e-07
1.22278e-07
-3.02586e-07
1.34163e-07
-3.49878e-07
1.46269e-07
-4.00572e-07
1.5848e-07
-4.54556e-07
1.70652e-07
-5.11659e-07
1.82616e-07
-5.71647e-07
1.94178e-07
-6.34223e-07
2.05129e-07
-6.99024e-07
2.15246e-07
-7.65624e-07
2.24299e-07
-8.33544e-07
2.32061e-07
-9.02251e-07
2.38307e-07
-9.71173e-07
2.42827e-07
-1.03971e-06
2.45428e-07
-1.10723e-06
2.45939e-07
-1.1731e-06
2.4422e-07
-1.2367e-06
2.4016e-07
-1.2974e-06
2.33683e-07
-1.35462e-06
2.24749e-07
-1.40778e-06
2.13352e-07
-1.45636e-06
1.99523e-07
-1.49988e-06
1.83326e-07
-1.53791e-06
1.6486e-07
-1.57005e-06
1.44251e-07
-1.59598e-06
1.21655e-07
-1.61542e-06
9.72528e-08
-1.62814e-06
7.12514e-08
-1.63397e-06
4.38785e-08
-1.63278e-06
1.53895e-08
-1.62448e-06
-1.39623e-08
-1.60908e-06
-4.39063e-08
-1.5866e-06
-7.41164e-08
-1.55712e-06
-1.04284e-07
-1.52078e-06
-1.34084e-07
-1.47777e-06
-1.63177e-07
-1.42833e-06
-1.91219e-07
-1.37278e-06
-2.17857e-07
-1.31147e-06
-2.42739e-07
-1.24483e-06
-2.6552e-07
-1.17335e-06
-2.85861e-07
-1.09757e-06
-3.03445e-07
-1.0181e-06
-3.17976e-07
-9.35611e-07
-3.29197e-07
-8.50816e-07
-3.3689e-07
-7.6448e-07
-3.40889e-07
-6.77403e-07
-3.41091e-07
-5.90414e-07
-3.37458e-07
-5.04355e-07
-3.30026e-07
-4.20071e-07
-3.1891e-07
-3.38389e-07
-3.04302e-07
-2.60105e-07
-2.86474e-07
-1.85968e-07
-2.65771e-07
-1.16661e-07
-2.42603e-07
-5.27857e-08
-2.17434e-07
5.14965e-09
-1.90772e-07
5.6745e-08
-1.6315e-07
1.0171e-07
-1.35109e-07
1.39879e-07
-1.07183e-07
1.71204e-07
-7.988e-08
1.95759e-07
-5.36651e-08
2.13732e-07
-2.89479e-08
2.25415e-07
-6.07155e-09
2.31193e-07
1.46976e-08
2.31529e-07
3.31688e-08
2.2695e-07
4.92262e-08
2.18027e-07
6.28251e-08
2.05366e-07
7.39778e-08
1.89589e-07
8.27366e-08
1.71325e-07
8.91726e-08
1.51207e-07
9.33504e-08
1.2987e-07
9.53008e-08
1.07949e-07
9.49958e-08
8.60988e-08
9.23279e-08
6.49965e-08
8.71007e-08
4.53676e-08
7.90367e-08
2.80132e-08
6.78092e-08
1.38567e-08
5.31016e-08
4.02068e-09
3.46958e-08
1.2625e-08
1.60875e-09
-9.12411e-09
4.90091e-09
-2.09338e-08
8.756e-09
-2.74285e-08
1.23251e-08
-2.9513e-08
1.495e-08
-2.79856e-08
1.61158e-08
-2.35678e-08
1.54172e-08
-1.68924e-08
1.2533e-08
-8.49762e-09
7.20671e-09
1.17357e-09
-7.68528e-10
1.17703e-08
-1.15631e-08
2.30287e-08
-2.53218e-08
3.47644e-08
-4.21732e-08
4.68635e-08
-6.22372e-08
5.92709e-08
-8.56294e-08
7.19778e-08
-1.12464e-07
8.50075e-08
-1.42856e-07
9.84009e-08
-1.76911e-07
1.12202e-07
-2.14731e-07
1.26443e-07
-2.56396e-07
1.41137e-07
-3.01963e-07
1.56264e-07
-3.51452e-07
1.71768e-07
-4.0484e-07
1.87551e-07
-4.62049e-07
2.03478e-07
-5.22941e-07
2.19372e-07
-5.87311e-07
2.35022e-07
-6.54883e-07
2.50188e-07
-7.2531e-07
2.64606e-07
-7.98176e-07
2.77995e-07
-8.72999e-07
2.90069e-07
-9.49239e-07
3.00539e-07
-1.02631e-06
3.09128e-07
-1.10357e-06
3.15574e-07
-1.18038e-06
3.19639e-07
-1.25607e-06
3.21118e-07
-1.32998e-06
3.19842e-07
-1.40144e-06
3.1568e-07
-1.46982e-06
3.08546e-07
-1.53454e-06
2.98397e-07
-1.59502e-06
2.85231e-07
-1.65075e-06
2.69088e-07
-1.70128e-06
2.50048e-07
-1.74618e-06
2.28227e-07
-1.78509e-06
2.03771e-07
-1.8177e-06
1.76858e-07
-1.84374e-06
1.47692e-07
-1.86298e-06
1.16501e-07
-1.87527e-06
8.35336e-08
-1.88045e-06
4.90614e-08
-1.87844e-06
1.33817e-08
-1.86918e-06
-2.32252e-08
-1.85266e-06
-6.04248e-08
-1.82891e-06
-9.78683e-08
-1.79799e-06
-1.35204e-07
-1.76001e-06
-1.72061e-07
-1.71513e-06
-2.08057e-07
-1.66355e-06
-2.42795e-07
-1.60554e-06
-2.75873e-07
-1.5414e-06
-3.06882e-07
-1.4715e-06
-3.35415e-07
-1.39629e-06
-3.61074e-07
-1.31626e-06
-3.83475e-07
-1.23197e-06
-4.02259e-07
-1.14407e-06
-4.17101e-07
-1.05324e-06
-4.27722e-07
-9.60229e-07
-4.33899e-07
-8.65844e-07
-4.35476e-07
-7.70928e-07
-4.32374e-07
-6.76353e-07
-4.24601e-07
-5.83009e-07
-4.12255e-07
-4.91782e-07
-3.95529e-07
-4.03542e-07
-3.74714e-07
-3.19124e-07
-3.5019e-07
-2.39304e-07
-3.22422e-07
-1.64788e-07
-2.9195e-07
-9.61926e-08
-2.59367e-07
-3.40315e-08
-2.25311e-07
2.12971e-08
-1.90437e-07
6.95159e-08
-1.55402e-07
1.10474e-07
-1.20838e-07
1.44149e-07
-8.73401e-08
1.70642e-07
-5.54404e-08
1.90169e-07
-2.55991e-08
2.03062e-07
1.8046e-09
2.09737e-07
2.64942e-08
2.10698e-07
4.82649e-08
2.06513e-07
6.70098e-08
1.978e-07
8.26909e-08
1.85212e-07
9.5325e-08
1.69425e-07
1.0496e-07
1.51129e-07
1.11646e-07
1.31027e-07
1.15403e-07
1.0983e-07
1.16193e-07
8.82663e-08
1.13892e-07
6.70945e-08
1.08273e-07
4.71251e-08
9.9006e-08
2.92571e-08
8.56773e-08
1.4533e-08
6.78257e-08
4.22518e-09
4.50036e-08
1.68501e-08
1.33633e-09
-1.04604e-08
3.87214e-09
-2.34696e-08
6.51954e-09
-3.00759e-08
8.45449e-09
-3.1448e-08
9.0429e-09
-2.8574e-08
7.79123e-09
-2.23161e-08
4.30985e-09
-1.3411e-08
-1.71454e-09
-2.47323e-09
-1.05391e-08
9.99809e-09
-2.23798e-08
2.3611e-08
-3.74233e-08
3.80722e-08
-5.58357e-08
5.31768e-08
-7.77699e-08
6.87977e-08
-1.0337e-07
8.48713e-08
-1.32776e-07
1.01383e-07
-1.66119e-07
1.18351e-07
-2.03524e-07
1.35806e-07
-2.45102e-07
1.53779e-07
-2.9094e-07
1.72282e-07
-3.41098e-07
1.91295e-07
-3.95593e-07
2.10759e-07
-4.5439e-07
2.30565e-07
-5.17395e-07
2.50556e-07
-5.84446e-07
2.70529e-07
-6.55306e-07
2.90232e-07
-7.29662e-07
3.09378e-07
-8.07122e-07
3.27648e-07
-8.87223e-07
3.44706e-07
-9.69431e-07
3.60203e-07
-1.05316e-06
3.73793e-07
-1.13776e-06
3.85142e-07
-1.22257e-06
3.93937e-07
-1.30689e-06
3.99898e-07
-1.39003e-06
4.02783e-07
-1.47131e-06
4.02396e-07
-1.55006e-06
3.98591e-07
-1.62565e-06
3.91269e-07
-1.69749e-06
3.80386e-07
-1.76504e-06
3.65946e-07
-1.82781e-06
3.47998e-07
-1.88535e-06
3.26635e-07
-1.93729e-06
3.01987e-07
-1.98329e-06
2.7422e-07
-2.02304e-06
2.43526e-07
-2.05631e-06
2.10126e-07
-2.08288e-06
1.74262e-07
-2.10258e-06
1.36197e-07
-2.11526e-06
9.62137e-08
-2.12081e-06
5.46109e-08
-2.11914e-06
1.17161e-08
-2.1102e-06
-3.21691e-08
-2.09395e-06
-7.66704e-08
-2.0704e-06
-1.21419e-07
-2.03957e-06
-1.66031e-07
-2.00153e-06
-2.10101e-07
-1.95638e-06
-2.53207e-07
-1.90427e-06
-2.9491e-07
-1.84538e-06
-3.3476e-07
-1.77997e-06
-3.72293e-07
-1.70834e-06
-4.07046e-07
-1.63086e-06
-4.38554e-07
-1.54797e-06
-4.66366e-07
-1.46018e-06
-4.9005e-07
-1.36807e-06
-5.09208e-07
-1.2723e-06
-5.23487e-07
-1.17361e-06
-5.32594e-07
-1.07278e-06
-5.36305e-07
-9.70669e-07
-5.34485e-07
-8.68177e-07
-5.27093e-07
-7.66237e-07
-5.14195e-07
-6.65797e-07
-4.95969e-07
-5.67803e-07
-4.72708e-07
-4.73178e-07
-4.44815e-07
-3.82801e-07
-4.12799e-07
-2.97487e-07
-3.77264e-07
-2.17965e-07
-3.38889e-07
-1.44866e-07
-2.9841e-07
-7.87044e-08
-2.56599e-07
-1.98703e-08
-2.14236e-07
3.13791e-08
-1.72088e-07
7.49206e-08
-1.30882e-07
1.10765e-07
-9.12847e-08
1.39052e-07
-5.38863e-08
1.6004e-07
-1.91832e-08
1.74103e-07
1.2431e-08
1.81705e-07
4.0663e-08
1.83395e-07
6.53197e-08
1.79789e-07
8.6297e-08
1.71554e-07
1.0356e-07
1.59398e-07
1.17117e-07
1.44053e-07
1.2699e-07
1.26276e-07
1.3318e-07
1.06842e-07
1.35628e-07
8.65466e-08
1.34187e-07
6.62231e-08
1.28596e-07
4.67609e-08
1.18468e-07
2.91439e-08
1.03294e-07
1.45065e-08
8.24631e-08
4.21354e-09
5.52965e-08
2.10637e-08
9.69543e-10
-1.143e-08
2.50128e-09
-2.50014e-08
3.58278e-09
-3.11574e-08
3.44929e-09
-3.13145e-08
1.52029e-09
-2.6645e-08
-2.65786e-09
-1.81379e-08
-9.44634e-09
-6.62255e-09
-1.91422e-08
7.22261e-09
-3.19979e-08
2.28538e-08
-4.82351e-08
3.98482e-08
-6.80534e-08
5.78905e-08
-9.16378e-08
7.67612e-08
-1.19162e-07
9.6322e-08
-1.50791e-07
1.16501e-07
-1.86681e-07
1.37273e-07
-2.26975e-07
1.58645e-07
-2.71799e-07
1.8063e-07
-3.21252e-07
2.03232e-07
-3.75398e-07
2.26428e-07
-4.34255e-07
2.50152e-07
-4.97783e-07
2.74287e-07
-5.65876e-07
2.98657e-07
-6.3835e-07
3.23031e-07
-7.14944e-07
3.47122e-07
-7.95309e-07
3.70598e-07
-8.79018e-07
3.93087e-07
-9.65564e-07
4.14194e-07
-1.05437e-06
4.33512e-07
-1.1448e-06
4.50635e-07
-1.23618e-06
4.65173e-07
-1.3278e-06
4.76763e-07
-1.41895e-06
4.85082e-07
-1.5089e-06
4.89852e-07
-1.59697e-06
4.90853e-07
-1.68249e-06
4.87918e-07
-1.76485e-06
4.80944e-07
-1.84346e-06
4.69883e-07
-1.91782e-06
4.54742e-07
-1.98745e-06
4.35581e-07
-2.05196e-06
4.12504e-07
-2.11098e-06
3.85654e-07
-2.1642e-06
3.55208e-07
-2.21135e-06
3.21373e-07
-2.25221e-06
2.84381e-07
-2.28656e-06
2.44483e-07
-2.31425e-06
2.01949e-07
-2.33512e-06
1.57064e-07
-2.34904e-06
1.10132e-07
-2.35589e-06
6.14692e-08
-2.3556e-06
1.14186e-08
-2.34807e-06
-3.9698e-08
-2.33325e-06
-9.14883e-08
-2.3111e-06
-1.43567e-07
-2.28161e-06
-1.95527e-07
-2.24477e-06
-2.46936e-07
-2.20064e-06
-2.97341e-07
-2.14928e-06
-3.46266e-07
-2.09082e-06
-3.93217e-07
-2.02544e-06
-4.37681e-07
-1.95335e-06
-4.79137e-07
-1.87484e-06
-5.17055e-07
-1.7903e-06
-5.50914e-07
-1.70014e-06
-5.80204e-07
-1.6049e-06
-6.04444e-07
-1.50519e-06
-6.23198e-07
-1.4017e-06
-6.36085e-07
-1.29521e-06
-6.42801e-07
-1.18656e-06
-6.43133e-07
-1.07668e-06
-6.36973e-07
-9.66542e-07
-6.24334e-07
-8.57153e-07
-6.05358e-07
-7.49539e-07
-5.80321e-07
-6.44719e-07
-5.49634e-07
-5.43683e-07
-5.13836e-07
-4.47363e-07
-4.73584e-07
-3.56615e-07
-4.29636e-07
-2.72198e-07
-3.82828e-07
-1.94751e-07
-3.34046e-07
-1.24786e-07
-2.84201e-07
-6.26727e-08
-2.34201e-07
-8.63895e-09
-1.84915e-07
3.72334e-08
-1.37157e-07
7.50027e-08
-9.16556e-08
1.0486e-07
-4.9041e-08
1.27124e-07
-9.83214e-09
1.42218e-07
2.55686e-08
1.50666e-07
5.68713e-08
1.53074e-07
8.38891e-08
1.50114e-07
1.0652e-07
1.42511e-07
1.24719e-07
1.31033e-07
1.38468e-07
1.16478e-07
1.47734e-07
9.96747e-08
1.52431e-07
8.1481e-08
1.52381e-07
6.27952e-08
1.47282e-07
4.45762e-08
1.36687e-07
2.78765e-08
1.19994e-07
1.38914e-08
9.64482e-08
4.02574e-09
6.51622e-08
2.50894e-08
5.14382e-10
-1.19444e-08
8.10285e-10
-2.52973e-08
-1.15659e-11
-3.03356e-08
-2.61047e-09
-2.87156e-08
-7.49845e-09
-2.1757e-08
-1.50679e-08
-1.05685e-08
-2.56382e-08
3.94775e-09
-3.94824e-08
2.10668e-08
-5.68436e-08
4.02151e-08
-7.79458e-08
6.09503e-08
-1.02999e-07
8.29441e-08
-1.32204e-07
1.05966e-07
-1.65752e-07
1.29869e-07
-2.03821e-07
1.5457e-07
-2.46577e-07
1.80029e-07
-2.94164e-07
2.06232e-07
-3.46696e-07
2.33162e-07
-4.04247e-07
2.60784e-07
-4.66841e-07
2.89022e-07
-5.34437e-07
3.17748e-07
-6.06922e-07
3.46771e-07
-6.841e-07
3.75834e-07
-7.65686e-07
4.04617e-07
-8.51308e-07
4.32744e-07
-9.40505e-07
4.59794e-07
-1.03273e-06
4.85316e-07
-1.12738e-06
5.08843e-07
-1.22378e-06
5.29911e-07
-1.32122e-06
5.48074e-07
-1.41897e-06
5.62918e-07
-1.51628e-06
5.74077e-07
-1.61244e-06
5.81238e-07
-1.70674e-06
5.84153e-07
-1.79853e-06
5.82641e-07
-1.8872e-06
5.76588e-07
-1.9722e-06
5.65943e-07
-2.05303e-06
5.50719e-07
-2.12927e-06
5.30981e-07
-2.20053e-06
5.06842e-07
-2.26648e-06
4.78457e-07
-2.32684e-06
4.46015e-07
-2.38137e-06
4.09731e-07
-2.42984e-06
3.69845e-07
-2.47207e-06
3.26614e-07
-2.5079e-06
2.80312e-07
-2.53718e-06
2.31224e-07
-2.55976e-06
1.79651e-07
-2.57554e-06
1.25905e-07
-2.58438e-06
7.03123e-08
-2.58618e-06
1.32201e-08
-2.58085e-06
-4.503e-08
-2.56829e-06
-1.04046e-07
-2.54843e-06
-1.63429e-07
-2.5212e-06
-2.22758e-07
-2.48655e-06
-2.81582e-07
-2.44447e-06
-3.39425e-07
-2.39495e-06
-3.95781e-07
-2.33805e-06
-4.5012e-07
-2.27384e-06
-5.01886e-07
-2.20248e-06
-5.50501e-07
-2.12416e-06
-5.95378e-07
-2.03915e-06
-6.3592e-07
-1.94782e-06
-6.71538e-07
-1.8506e-06
-7.01664e-07
-1.74803e-06
-7.25765e-07
-1.64075e-06
-7.43363e-07
-1.5295e-06
-7.54053e-07
-1.41511e-06
-7.57524e-07
-1.2985e-06
-7.53579e-07
-1.18068e-06
-7.42154e-07
-1.06271e-06
-7.23328e-07
-9.45696e-07
-6.97337e-07
-8.30754e-07
-6.64576e-07
-7.18994e-07
-6.25596e-07
-6.11482e-07
-5.81096e-07
-5.09218e-07
-5.319e-07
-4.13104e-07
-4.78942e-07
-3.23924e-07
-4.23225e-07
-2.42326e-07
-3.65799e-07
-1.68808e-07
-3.07719e-07
-1.0371e-07
-2.50013e-07
-4.72146e-08
-1.93653e-07
6.52524e-10
-1.39523e-07
4.00136e-08
-8.84021e-08
7.11291e-08
-4.09476e-08
9.43865e-08
2.3112e-09
1.10281e-07
4.09771e-08
1.19406e-07
7.47643e-08
1.22434e-07
1.03491e-07
1.20106e-07
1.27048e-07
1.13214e-07
1.45361e-07
1.02594e-07
1.58354e-07
8.912e-08
1.65904e-07
7.37044e-08
1.67796e-07
5.73028e-08
1.63683e-07
4.09313e-08
1.53059e-07
2.56934e-08
1.35232e-07
1.28174e-08
1.09324e-07
3.70438e-09
7.42752e-08
2.87938e-08
-2.84239e-11
-1.19159e-08
-1.1838e-09
-2.41419e-08
-4.21407e-09
-2.73053e-08
-9.65676e-09
-2.32729e-08
-1.79098e-08
-1.3504e-08
-2.92904e-08
8.12007e-10
-4.40655e-08
1.87229e-08
-6.24779e-08
3.94792e-08
-8.47573e-08
6.24945e-08
-1.11127e-07
8.73199e-08
-1.41805e-07
1.13622e-07
-1.77003e-07
1.41165e-07
-2.16923e-07
1.6979e-07
-2.61753e-07
1.99399e-07
-3.11655e-07
2.29931e-07
-3.66762e-07
2.61339e-07
-4.27164e-07
2.93563e-07
-4.92893e-07
3.26513e-07
-5.63916e-07
3.60045e-07
-6.40117e-07
3.9395e-07
-7.21295e-07
4.27949e-07
-8.07153e-07
4.61692e-07
-8.97297e-07
4.94762e-07
-9.91242e-07
5.2669e-07
-1.08842e-06
5.56971e-07
-1.18818e-06
5.85082e-07
-1.28984e-06
6.10498e-07
-1.39265e-06
6.32719e-07
-1.49585e-06
6.51278e-07
-1.5987e-06
6.65765e-07
-1.70045e-06
6.75833e-07
-1.80042e-06
6.81204e-07
-1.89795e-06
6.8168e-07
-1.99244e-06
6.77135e-07
-2.08337e-06
6.67515e-07
-2.17026e-06
6.52834e-07
-2.2527e-06
6.33162e-07
-2.33034e-06
6.08622e-07
-2.40288e-06
5.79376e-07
-2.47004e-06
5.45623e-07
-2.53161e-06
5.07586e-07
-2.5874e-06
4.65512e-07
-2.63721e-06
4.19663e-07
-2.68091e-06
3.70316e-07
-2.71836e-06
3.17755e-07
-2.74941e-06
2.62279e-07
-2.77396e-06
2.04193e-07
-2.79187e-06
1.43814e-07
-2.80303e-06
8.14717e-08
-2.80731e-06
1.75094e-08
-2.80463e-06
-4.77181e-08
-2.79485e-06
-1.13826e-07
-2.77786e-06
-1.80412e-07
-2.75357e-06
-2.47048e-07
-2.72188e-06
-3.13274e-07
-2.68271e-06
-3.786e-07
-2.63599e-06
-4.42503e-07
-2.58168e-06
-5.04425e-07
-2.51979e-06
-5.63774e-07
-2.45037e-06
-6.1993e-07
-2.3735e-06
-6.72246e-07
-2.28936e-06
-7.2006e-07
-2.19819e-06
-7.62704e-07
-2.10034e-06
-7.99516e-07
-1.99624e-06
-8.29862e-07
-1.88645e-06
-8.53153e-07
-1.77164e-06
-8.68867e-07
-1.65259e-06
-8.76576e-07
-1.5302e-06
-8.75966e-07
-1.40549e-06
-8.66866e-07
-1.27955e-06
-8.49263e-07
-1.15357e-06
-8.2332e-07
-1.02876e-06
-7.89388e-07
-9.0635e-07
-7.48004e-07
-7.8756e-07
-6.99885e-07
-6.7355e-07
-6.45911e-07
-5.65391e-07
-5.87101e-07
-4.64036e-07
-5.2458e-07
-3.70298e-07
-4.59538e-07
-2.84823e-07
-3.93194e-07
-2.08086e-07
-3.2675e-07
-1.40383e-07
-2.61355e-07
-8.18354e-08
-1.9807e-07
-3.23948e-08
-1.37843e-07
8.1433e-09
-8.14857e-08
4.01248e-08
-2.96703e-08
6.40242e-08
1.70776e-08
8.04228e-08
5.83656e-08
8.99965e-08
9.39177e-08
9.34983e-08
1.23546e-07
9.17458e-08
1.47113e-07
8.56091e-08
1.64491e-07
7.6004e-08
1.7551e-07
6.38896e-08
1.79911e-07
5.02712e-08
1.77302e-07
3.62114e-08
1.67118e-07
2.28482e-08
1.48595e-07
1.14196e-08
1.20753e-07
3.29247e-09
8.24023e-08
3.20863e-08
-6.53894e-10
-1.1262e-08
-3.4736e-09
-2.13222e-08
-9.00917e-09
-2.17697e-08
-1.76325e-08
-1.46495e-08
-2.96152e-08
-1.52129e-09
-4.51782e-08
1.6375e-08
-6.45272e-08
3.80719e-08
-8.78673e-08
6.28193e-08
-1.15412e-07
9.00388e-08
-1.4738e-07
1.19288e-07
-1.83995e-07
1.50237e-07
-2.25476e-07
1.82645e-07
-2.72028e-07
2.16342e-07
-3.23836e-07
2.51207e-07
-3.81052e-07
2.87148e-07
-4.43784e-07
3.2407e-07
-5.12079e-07
3.61859e-07
-5.85915e-07
4.00349e-07
-6.65184e-07
4.39313e-07
-7.49683e-07
4.7845e-07
-8.39112e-07
5.17378e-07
-9.33065e-07
5.55645e-07
-1.03104e-06
5.92737e-07
-1.13245e-06
6.28097e-07
-1.23662e-06
6.61144e-07
-1.34284e-06
6.91297e-07
-1.45034e-06
7.17998e-07
-1.55834e-06
7.40727e-07
-1.66609e-06
7.59029e-07
-1.77284e-06
7.72515e-07
-1.87789e-06
7.80882e-07
-1.9806e-06
7.83907e-07
-2.08037e-06
7.81452e-07
-2.17669e-06
7.73456e-07
-2.26911e-06
7.59931e-07
-2.35722e-06
7.40953e-07
-2.44071e-06
7.16648e-07
-2.51928e-06
6.87187e-07
-2.59268e-06
6.52778e-07
-2.66071e-06
6.13653e-07
-2.72319e-06
5.70066e-07
-2.77996e-06
5.22286e-07
-2.83089e-06
4.70594e-07
-2.87586e-06
4.15279e-07
-2.91474e-06
3.56636e-07
-2.94743e-06
2.94968e-07
-2.97382e-06
2.30584e-07
-2.9938e-06
1.63802e-07
-3.00728e-06
9.49469e-08
-3.01413e-06
2.43589e-08
-3.01424e-06
-4.76079e-08
-3.00749e-06
-1.20578e-07
-2.99374e-06
-1.94156e-07
-2.97287e-06
-2.67917e-07
-2.94474e-06
-3.41404e-07
-2.90922e-06
-4.14126e-07
-2.86617e-06
-4.85554e-07
-2.81548e-06
-5.55114e-07
-2.75706e-06
-6.22195e-07
-2.69084e-06
-6.86143e-07
-2.61682e-06
-7.46266e-07
-2.53504e-06
-8.01843e-07
-2.44561e-06
-8.52132e-07
-2.34874e-06
-8.96382e-07
-2.24475e-06
-9.33853e-07
-2.13407e-06
-9.63837e-07
-2.01726e-06
-9.85681e-07
-1.89502e-06
-9.98816e-07
-1.76819e-06
-1.00279e-06
-1.63777e-06
-9.97288e-07
-1.50486e-06
-9.82171e-07
-1.37069e-06
-9.57492e-07
-1.23656e-06
-9.23518e-07
-1.10383e-06
-8.80733e-07
-9.73875e-07
-8.29843e-07
-8.48028e-07
-7.71758e-07
-7.27561e-07
-7.07568e-07
-6.13629e-07
-6.38511e-07
-5.07242e-07
-5.65925e-07
-4.09234e-07
-4.91203e-07
-3.20243e-07
-4.1574e-07
-2.40709e-07
-3.40889e-07
-1.70867e-07
-2.67913e-07
-1.10756e-07
-1.97954e-07