/*--------------------------------*- C++ -*----------------------------------*\
  =========                 |
  \\      /  F ield         | OpenFOAM: The Open Source CFD Toolbox
   \\    /   O peration     | Website:  https://openfoam.org
    \\  /    A nd           | Version:  9
     \\/     M anipulation  |
\*---------------------------------------------------------------------------*/
FoamFile
{
    format      ascii;
    class       volVectorField;
    location    "2.5";
    object      U;
}
// * * * * * * * * * * * * * * * * * * * * * * * * * * * * * * * * * * * * * //

dimensions      [0 1 -1 0 0 0 0];

internalField   nonuniform List<vector> 
10000
(
(-6.02081e-06 5.95712e-06 0)
(3.17426e-05 -2.13399e-05 0)
(0.000146254 -4.48825e-05 0)
(0.000302241 -5.74403e-05 0)
(0.000477381 -6.15496e-05 0)
(0.000654081 -5.99964e-05 0)
(0.000819367 -5.48746e-05 0)
(0.0009646 -4.76893e-05 0)
(0.00108449 -3.94824e-05 0)
(0.00117616 -3.09569e-05 0)
(0.00123846 -2.25669e-05 0)
(0.00127135 -1.45812e-05 0)
(0.00127549 -7.1362e-06 0)
(0.0012518 -2.27166e-07 0)
(0.00120122 6.21762e-06 0)
(0.00112444 1.23319e-05 0)
(0.00102174 1.82891e-05 0)
(0.000892955 2.42809e-05 0)
(0.000737364 3.04995e-05 0)
(0.000553761 3.71245e-05 0)
(0.000340496 4.43112e-05 0)
(9.55621e-05 5.21837e-05 0)
(-0.000183296 6.08326e-05 0)
(-0.000498463 7.03146e-05 0)
(-0.000852336 8.06521e-05 0)
(-0.00124721 9.18361e-05 0)
(-0.00168516 0.000103828 0)
(-0.00216793 0.000116562 0)
(-0.00269687 0.000129941 0)
(-0.00327276 0.000143841 0)
(-0.00389579 0.000158109 0)
(-0.00456542 0.000172559 0)
(-0.00528031 0.000186974 0)
(-0.00603824 0.000201104 0)
(-0.006836 0.000214668 0)
(-0.00766938 0.000227356 0)
(-0.00853309 0.000238832 0)
(-0.00942074 0.000248737 0)
(-0.0103249 0.000256698 0)
(-0.0112369 0.000262335 0)
(-0.0121473 0.000265268 0)
(-0.0130455 0.000265127 0)
(-0.0139201 0.000261565 0)
(-0.0147591 0.000254267 0)
(-0.0155499 0.000242963 0)
(-0.0162795 0.00022744 0)
(-0.0169349 0.000207555 0)
(-0.0175031 0.000183248 0)
(-0.0179715 0.000154565 0)
(-0.0183283 0.0001217 0)
(-0.0185628 8.49509e-05 0)
(-0.0186655 4.45935e-05 0)
(-0.0186277 1.2959e-06 0)
(-0.018443 -4.47857e-05 0)
(-0.0181079 -9.26398e-05 0)
(-0.0176205 -0.000141343 0)
(-0.0169819 -0.00018995 0)
(-0.0161958 -0.000237441 0)
(-0.0152687 -0.000282738 0)
(-0.0142102 -0.000324742 0)
(-0.0130329 -0.000362369 0)
(-0.0117519 -0.000394596 0)
(-0.010385 -0.000420497 0)
(-0.00895213 -0.00043929 0)
(-0.00747512 -0.00045038 0)
(-0.00597691 -0.000453387 0)
(-0.00448116 -0.000448181 0)
(-0.00301157 -0.000434895 0)
(-0.00159115 -0.00041393 0)
(-0.000241555 -0.000385963 0)
(0.00101741 -0.000351909 0)
(0.00216858 -0.000312764 0)
(0.00319789 -0.000269833 0)
(0.00409459 -0.00022443 0)
(0.00485157 -0.000177906 0)
(0.00546543 -0.000131566 0)
(0.00593638 -8.66257e-05 0)
(0.006268 -4.41571e-05 0)
(0.00646687 -5.04552e-06 0)
(0.00654217 3.0033e-05 0)
(0.00650507 6.06214e-05 0)
(0.0063682 8.64883e-05 0)
(0.00614502 0.000107605 0)
(0.00584931 0.000124122 0)
(0.00549463 0.000136346 0)
(0.0050939 0.000144703 0)
(0.00465903 0.000149702 0)
(0.00420071 0.000151892 0)
(0.00372826 0.000151817 0)
(0.00324971 0.000149965 0)
(0.00277197 0.000146699 0)
(0.0023013 0.00014218 0)
(0.00184386 0.00013626 0)
(0.00140672 0.000128353 0)
(0.000998972 0.000117276 0)
(0.000633191 0.000101137 0)
(0.000326436 7.74843e-05 0)
(9.94733e-05 4.41868e-05 0)
(-2.43044e-05 2.72255e-06 0)
(-2.86562e-05 -2.88791e-05 0)
(2.12928e-05 -3.17244e-05 0)
(0.000156659 -0.000156544 0)
(0.000435974 -0.000254767 0)
(0.000792466 -0.000309771 0)
(0.00118241 -0.00032785 0)
(0.00157133 -0.000317948 0)
(0.00193115 -0.000288186 0)
(0.00224112 -0.000245252 0)
(0.00248709 -0.000194318 0)
(0.00266015 -0.000139204 0)
(0.00275529 -8.2593e-05 0)
(0.00277028 -2.62189e-05 0)
(0.00270467 2.89979e-05 0)
(0.00255892 8.27215e-05 0)
(0.00233364 0.000135148 0)
(0.0020291 0.000186838 0)
(0.00164487 0.000238586 0)
(0.00117956 0.000291311 0)
(0.000630722 0.000345944 0)
(-5.07145e-06 0.000403353 0)
(-0.000732126 0.000464264 0)
(-0.00155538 0.00052922 0)
(-0.00248016 0.000598553 0)
(-0.00351182 0.000672366 0)
(-0.0046555 0.000750539 0)
(-0.00591573 0.000832727 0)
(-0.00729619 0.000918376 0)
(-0.00879937 0.00100672 0)
(-0.0104263 0.00109682 0)
(-0.0121763 0.00118751 0)
(-0.0140468 0.00127748 0)
(-0.0160329 0.00136522 0)
(-0.0181275 0.00144907 0)
(-0.0203209 0.00152722 0)
(-0.0226008 0.00159774 0)
(-0.0249522 0.00165862 0)
(-0.0273576 0.00170779 0)
(-0.0297966 0.00174316 0)
(-0.0322466 0.0017627 0)
(-0.0346826 0.00176444 0)
(-0.0370775 0.00174658 0)
(-0.0394028 0.00170749 0)
(-0.0416284 0.00164582 0)
(-0.0437235 0.00156051 0)
(-0.0456571 0.00145087 0)
(-0.0473981 0.00131659 0)
(-0.0489164 0.00115783 0)
(-0.050183 0.000975226 0)
(-0.0511708 0.000769932 0)
(-0.0518554 0.00054372 0)
(-0.0522159 0.0002987 0)
(-0.0522344 3.69743e-05 0)
(-0.0518968 -0.000236317 0)
(-0.0511935 -0.00051867 0)
(-0.050121 -0.000805709 0)
(-0.0486809 -0.00109265 0)
(-0.0468805 -0.00137446 0)
(-0.0447327 -0.00164589 0)
(-0.0422567 -0.00190159 0)
(-0.0394774 -0.00213624 0)
(-0.0364255 -0.00234469 0)
(-0.0331371 -0.00252213 0)
(-0.0296531 -0.00266429 0)
(-0.0260189 -0.00276756 0)
(-0.022283 -0.00282922 0)
(-0.0184964 -0.0028475 0)
(-0.0147117 -0.00282177 0)
(-0.0109815 -0.00275257 0)
(-0.00735709 -0.00264166 0)
(-0.0038877 -0.00249203 0)
(-0.000618757 -0.00230779 0)
(0.00240905 -0.00209389 0)
(0.00516101 -0.0018562 0)
(0.00760915 -0.00160115 0)
(0.00973283 -0.00133552 0)
(0.0115192 -0.00106601 0)
(0.0129631 -0.000799138 0)
(0.0140672 -0.000540916 0)
(0.014841 -0.000296637 0)
(0.0153007 -7.0707e-05 0)
(0.0154678 0.000133472 0)
(0.015368 0.000313557 0)
(0.0150303 0.000468309 0)
(0.0144854 0.000597433 0)
(0.0137649 0.000701556 0)
(0.0129 0.000782063 0)
(0.0119206 0.000840899 0)
(0.0108548 0.000880356 0)
(0.00972834 0.000902812 0)
(0.0085645 0.000910432 0)
(0.00738464 0.000904825 0)
(0.00620883 0.000886651 0)
(0.0050571 0.000855189 0)
(0.00395101 0.000807919 0)
(0.00291557 0.000740202 0)
(0.00198104 0.000645401 0)
(0.00118326 0.000516198 0)
(0.000560652 0.000348222 0)
(0.000153089 0.000149696 0)
(4.11784e-06 -2.40932e-05 0)
(4.52191e-05 -0.000146406 0)
(0.000256353 -0.00043621 0)
(0.000649095 -0.00064657 0)
(0.0011296 -0.000763523 0)
(0.00164074 -0.000797986 0)
(0.00213918 -0.000766448 0)
(0.00258833 -0.000685471 0)
(0.00295987 -0.00056969 0)
(0.00323342 -0.000431083 0)
(0.00339507 -0.000278911 0)
(0.00343602 -0.000119931 0)
(0.00335112 4.13262e-05 0)
(0.00313768 0.000202254 0)
(0.00279428 0.000361771 0)
(0.00231998 0.000520094 0)
(0.0017135 0.000678366 0)
(0.000972731 0.000838342 0)
(9.44763e-05 0.00100209 0)
(-0.000925683 0.00117173 0)
(-0.00209329 0.00134918 0)
(-0.00341481 0.00153601 0)
(-0.00489724 0.00173329 0)
(-0.00654773 0.00194148 0)
(-0.00837311 0.00216043 0)
(-0.0103794 0.00238936 0)
(-0.0125711 0.00262685 0)
(-0.0149513 0.00287087 0)
(-0.0175205 0.00311883 0)
(-0.0202767 0.00336758 0)
(-0.0232148 0.00361348 0)
(-0.0263264 0.00385241 0)
(-0.0295995 0.00407985 0)
(-0.0330183 0.00429092 0)
(-0.036563 0.00448048 0)
(-0.0402101 0.00464319 0)
(-0.0439322 0.00477367 0)
(-0.0476982 0.00486657 0)
(-0.0514737 0.00491672 0)
(-0.0552214 0.00491926 0)
(-0.0589014 0.00486982 0)
(-0.062472 0.00476457 0)
(-0.0658901 0.00460042 0)
(-0.069112 0.0043751 0)
(-0.0720941 0.00408728 0)
(-0.0747936 0.00373663 0)
(-0.0771694 0.00332394 0)
(-0.0791823 0.0028511 0)
(-0.0807965 0.00232122 0)
(-0.0819794 0.00173861 0)
(-0.0827033 0.00110881 0)
(-0.0829458 0.000438415 0)
(-0.0826875 -0.000266047 0)
(-0.0819157 -0.000993241 0)
(-0.0806261 -0.00173444 0)
(-0.0788189 -0.00247933 0)
(-0.0765019 -0.00321658 0)
(-0.0736897 -0.00393431 0)
(-0.0704039 -0.00462035 0)
(-0.0666732 -0.00526246 0)
(-0.0625335 -0.00584864 0)
(-0.0580269 -0.0063674 0)
(-0.053202 -0.00680808 0)
(-0.048113 -0.00716121 0)
(-0.0428191 -0.00741886 0)
(-0.0373834 -0.0075749 0)
(-0.0318721 -0.00762536 0)
(-0.0263533 -0.00756867 0)
(-0.0208955 -0.00740579 0)
(-0.0155664 -0.00714033 0)
(-0.0104313 -0.00677857 0)
(-0.00555172 -0.00632932 0)
(-0.000983899 -0.00580365 0)
(0.00322251 -0.00521455 0)
(0.00702559 -0.00457645 0)
(0.0103923 -0.00390514 0)
(0.0132991 -0.00321644 0)
(0.0157321 -0.00252611 0)
(0.0176876 -0.00184913 0)
(0.0191714 -0.00119918 0)
(0.0201984 -0.000588154 0)
(0.0207915 -2.58017e-05 0)
(0.0209806 0.000480477 0)
(0.0208013 0.000925841 0)
(0.0202928 0.00130778 0)
(0.0194972 0.00162612 0)
(0.0184575 0.00188267 0)
(0.0172163 0.00208082 0)
(0.015815 0.00222504 0)
(0.014293 0.0023202 0)
(0.0126872 0.00237091 0)
(0.0110323 0.00238061 0)
(0.00936169 0.00235074 0)
(0.00770859 0.00227982 0)
(0.00610756 0.00216277 0)
(0.00459644 0.00199058 0)
(0.00321803 0.00175124 0)
(0.0020197 0.00143292 0)
(0.00104927 0.00103076 0)
(0.000361945 0.000561153 0)
(4.85147e-05 0.000104651 0)
(5.86721e-05 -0.000303988 0)
(0.000314322 -0.000795148 0)
(0.000770908 -0.00112821 0)
(0.00131151 -0.00130401 0)
(0.00186878 -0.00134283 0)
(0.0023938 -0.00127057 0)
(0.00284515 -0.00111315 0)
(0.00319008 -0.000893872 0)
(0.00340418 -0.000632244 0)
(0.0034699 -0.000343685 0)
(0.00337512 -3.96674e-05 0)
(0.00311175 0.000271939 0)
(0.00267438 0.000586414 0)
(0.00205914 0.000901741 0)
(0.00126271 0.00121802 0)
(0.000281507 0.00153694 0)
(-0.00088878 0.00186125 0)
(-0.00225353 0.00219419 0)
(-0.00381922 0.00253906 0)
(-0.00559328 0.00289877 0)
(-0.00758375 0.00327553 0)
(-0.00979881 0.00367059 0)
(-0.0122462 0.0040841 0)
(-0.0149326 0.00451499 0)
(-0.017863 0.004961 0)
(-0.0210399 0.00541865 0)
(-0.024463 0.00588333 0)
(-0.0281286 0.00634937 0)
(-0.0320286 0.00681009 0)
(-0.0361509 0.00725796 0)
(-0.0404787 0.00768467 0)
(-0.04499 0.00808131 0)
(-0.0496583 0.0084385 0)
(-0.054452 0.0087466 0)
(-0.0593349 0.00899592 0)
(-0.0642667 0.00917696 0)
(-0.0692031 0.00928064 0)
(-0.0740967 0.00929853 0)
(-0.0788976 0.00922312 0)
(-0.0835543 0.00904804 0)
(-0.0880143 0.00876822 0)
(-0.0922251 0.00838011 0)
(-0.096135 0.0078818 0)
(-0.0996941 0.00727313 0)
(-0.102855 0.00655575 0)
(-0.105573 0.00573317 0)
(-0.107808 0.00481077 0)
(-0.109523 0.0037958 0)
(-0.110688 0.00269722 0)
(-0.111278 0.00152551 0)
(-0.111273 0.000293289 0)
(-0.110659 -0.000982672 0)
(-0.109426 -0.00229021 0)
(-0.107578 -0.00361211 0)
(-0.105119 -0.00493047 0)
(-0.102063 -0.00622667 0)
(-0.09843 -0.00748151 0)
(-0.094248 -0.00867551 0)
(-0.089551 -0.00978925 0)
(-0.0843805 -0.0108038 0)
(-0.0787841 -0.0117009 0)
(-0.0728161 -0.012464 0)
(-0.0665364 -0.013078 0)
(-0.0600099 -0.0135302 0)
(-0.0533061 -0.0138108 0)
(-0.046498 -0.0139132 0)
(-0.0396609 -0.0138343 0)
(-0.0328713 -0.013575 0)
(-0.0262054 -0.0131404 0)
(-0.0197379 -0.0125396 0)
(-0.0135405 -0.0117858 0)
(-0.00767985 -0.0108961 0)
(-0.00221669 -0.00989072 0)
(0.00279559 -0.00879281 0)
(0.00731264 -0.00762739 0)
(0.0113001 -0.00642068 0)
(0.0147339 -0.00519906 0)
(0.0176008 -0.00398825 0)
(0.0198987 -0.00281226 0)
(0.0216363 -0.00169269 0)
(0.0228321 -0.000647998 0)
(0.023514 0.000307018 0)
(0.0237172 0.0011614 0)
(0.0234833 0.00190846 0)
(0.0228588 0.00254529 0)
(0.0218928 0.00307252 0)
(0.0206361 0.00349375 0)
(0.0191394 0.00381468 0)
(0.0174525 0.00404215 0)
(0.0156235 0.00418287 0)
(0.0136989 0.00424205 0)
(0.0117238 0.00422202 0)
(0.00974309 0.00412083 0)
(0.00780259 0.00393126 0)
(0.00595074 0.00364064 0)
(0.00424028 0.0032323 0)
(0.00272775 0.00268997 0)
(0.00147001 0.00200621 0)
(0.000541439 0.00119779 0)
(8.55174e-05 0.000344248 0)
(6.40642e-05 -0.000482879 0)
(0.000335779 -0.00118985 0)
(0.000808959 -0.00164163 0)
(0.0013516 -0.00186165 0)
(0.00188902 -0.00188418 0)
(0.00236862 -0.00174661 0)
(0.00274625 -0.00148496 0)
(0.00298676 -0.00113139 0)
(0.0030633 -0.000712971 0)
(0.00295579 -0.000251286 0)
(0.00264944 0.000237419 0)
(0.0021334 0.000741868 0)
(0.00139946 0.0012552 0)
(0.000440974 0.00177431 0)
(-0.000748149 0.00229912 0)
(-0.00217412 0.00283177 0)
(-0.00384376 0.00337584 0)
(-0.0057647 0.00393556 0)
(-0.00794533 0.00451512 0)
(-0.0103945 0.00511802 0)
(-0.0131211 0.00574657 0)
(-0.0161334 0.00640156 0)
(-0.0194382 0.00708195 0)
(-0.0230404 0.00778481 0)
(-0.0269419 0.00850528 0)
(-0.0311409 0.00923662 0)
(-0.0356315 0.00997033 0)
(-0.0404027 0.0106963 0)
(-0.0454384 0.011403 0)
(-0.0507168 0.0120777 0)
(-0.0562102 0.0127067 0)
(-0.0618856 0.0132758 0)
(-0.0677039 0.0137701 0)
(-0.0736213 0.0141752 0)
(-0.0795892 0.0144768 0)
(-0.0855552 0.0146613 0)
(-0.0914639 0.0147165 0)
(-0.0972577 0.0146316 0)
(-0.102878 0.0143974 0)
(-0.108266 0.014007 0)
(-0.113363 0.0134556 0)
(-0.118114 0.0127411 0)
(-0.122464 0.0118636 0)
(-0.126364 0.0108258 0)
(-0.129767 0.00963321 0)
(-0.132632 0.00829347 0)
(-0.13492 0.00681684 0)
(-0.136602 0.00521583 0)
(-0.137651 0.00350506 0)
(-0.138047 0.00170099 0)
(-0.137774 -0.000177498 0)
(-0.136825 -0.00210737 0)
(-0.135198 -0.00407016 0)
(-0.132897 -0.0060418 0)
(-0.129932 -0.0079976 0)
(-0.126319 -0.00991214 0)
(-0.122081 -0.0117594 0)
(-0.117247 -0.0135131 0)
(-0.111854 -0.0151472 0)
(-0.105943 -0.016636 0)
(-0.0995629 -0.0179552 0)
(-0.0927683 -0.0190819 0)
(-0.0856197 -0.0199957 0)
(-0.078183 -0.0206791 0)
(-0.0705288 -0.0211179 0)
(-0.0627319 -0.0213023 0)
(-0.0548702 -0.0212272 0)
(-0.047024 -0.0208925 0)
(-0.0392741 -0.0203037 0)
(-0.0317009 -0.0194718 0)
(-0.0243829 -0.0184136 0)
(-0.0173947 -0.0171509 0)
(-0.0108061 -0.0157107 0)
(-0.00467984 -0.0141241 0)
(0.000929167 -0.012425 0)
(0.00597574 -0.0106499 0)
(0.0104249 -0.00883615 0)
(0.0142531 -0.00702074 0)
(0.0174481 -0.00523908 0)
(0.0200094 -0.00352381 0)
(0.0219481 -0.00190376 0)
(0.0232854 -0.000403095 0)
(0.0240525 0.000959194 0)
(0.0242888 0.00216988 0)
(0.0240403 0.00322124 0)
(0.0233581 0.00411066 0)
(0.022297 0.0048401 0)
(0.0209133 0.00541495 0)
(0.0192642 0.00584272 0)
(0.0174065 0.00613132 0)
(0.015396 0.00628723 0)
(0.0132879 0.00631351 0)
(0.0111372 0.00620797 0)
(0.00899942 0.00596187 0)
(0.00693231 0.0055596 0)
(0.00499748 0.00498028 0)
(0.00326041 0.00420227 0)
(0.00178811 0.00321149 0)
(0.000674933 0.0020149 0)
(0.000111652 0.000669756 0)
(6.3825e-05 -0.000665411 0)
(0.000327631 -0.00158388 0)
(0.000774458 -0.00213906 0)
(0.00126617 -0.00238066 0)
(0.00172416 -0.00236009 0)
(0.00209374 -0.00212803 0)
(0.00232966 -0.00173126 0)
(0.00239577 -0.00121084 0)
(0.00226397 -0.000601142 0)
(0.00191246 7.03619e-05 0)
(0.00132434 0.000782947 0)
(0.000486291 0.00152214 0)
(-0.000612608 0.00227906 0)
(-0.00198187 0.00304957 0)
(-0.00363044 0.00383332 0)
(-0.00556726 0.00463276 0)
(-0.00780161 0.00545205 0)
(-0.0103432 0.006296 0)
(-0.0132018 0.00716916 0)
(-0.016387 0.00807492 0)
(-0.0199075 0.00901487 0)
(-0.0237704 0.0099883 0)
(-0.0279798 0.0109919 0)
(-0.032537 0.0120195 0)
(-0.0374385 0.0130625 0)
(-0.042676 0.0141094 0)
(-0.0482356 0.0151464 0)
(-0.054097 0.0161576 0)
(-0.0602337 0.0171255 0)
(-0.0666126 0.0180312 0)
(-0.0731943 0.0188548 0)
(-0.0799332 0.0195762 0)
(-0.0867787 0.0201753 0)
(-0.0936752 0.0206328 0)
(-0.100564 0.0209306 0)
(-0.107382 0.0210522 0)
(-0.114068 0.0209835 0)
(-0.120558 0.0207128 0)
(-0.126788 0.0202313 0)
(-0.132698 0.0195334 0)
(-0.138231 0.0186166 0)
(-0.14333 0.0174817 0)
(-0.147947 0.0161328 0)
(-0.152034 0.014577 0)
(-0.155551 0.0128245 0)
(-0.158462 0.0108882 0)
(-0.160736 0.00878374 0)
(-0.162348 0.00652923 0)
(-0.163279 0.00414501 0)
(-0.163512 0.00165365 0)
(-0.163038 -0.000920426 0)
(-0.161852 -0.00355241 0)
(-0.159956 -0.00621333 0)
(-0.157355 -0.00887423 0)
(-0.154059 -0.0115049 0)
(-0.150086 -0.0140741 0)
(-0.145456 -0.0165498 0)
(-0.140198 -0.0188997 0)
(-0.134345 -0.0210914 0)
(-0.127937 -0.0230933 0)
(-0.121018 -0.0248747 0)
(-0.113641 -0.0264069 0)
(-0.105864 -0.0276637 0)
(-0.09775 -0.0286221 0)
(-0.0893684 -0.0292633 0)
(-0.0807935 -0.0295734 0)
(-0.0721037 -0.029544 0)
(-0.0633807 -0.029173 0)
(-0.0547083 -0.0284653 0)
(-0.0461711 -0.0274324 0)
(-0.0378531 -0.0260933 0)
(-0.029836 -0.0244738 0)
(-0.0221972 -0.0226062 0)
(-0.0150089 -0.0205285 0)
(-0.00833554 -0.0182832 0)
(-0.00223298 -0.0159166 0)
(0.00325286 -0.0134765 0)
(0.00808729 -0.0110116 0)
(0.0122475 -0.00856902 0)
(0.0157227 -0.00619338 0)
(0.0185143 -0.00392504 0)
(0.0206354 -0.001799 0)
(0.0221103 0.000156129 0)
(0.0229733 0.00191844 0)
(0.023267 0.00347336 0)
(0.0230413 0.00481298 0)
(0.0223515 0.00593556 0)
(0.021257 0.00684433 0)
(0.0198194 0.00754587 0)
(0.0181014 0.00804802 0)
(0.0161663 0.00835763 0)
(0.0140775 0.00847803 0)
(0.0118982 0.00840676 0)
(0.00969275 0.00813379 0)
(0.00752731 0.00764088 0)
(0.00547199 0.00690274 0)
(0.00360135 0.00589087 0)
(0.00199311 0.00458042 0)
(0.000759577 0.00296067 0)
(0.000127334 0.00105438 0)
(5.95288e-05 -0.000837255 0)
(0.000295314 -0.00194423 0)
(0.000677457 -0.00257546 0)
(0.00107002 -0.00280791 0)
(0.00139407 -0.00271184 0)
(0.00159471 -0.00235219 0)
(0.00162705 -0.00178682 0)
(0.00145511 -0.00106547 0)
(0.00105039 -0.000229385 0)
(0.000390081 0.000688656 0)
(-0.000544385 0.00166394 0)
(-0.00176853 0.0026792 0)
(-0.00329583 0.00372376 0)
(-0.00513855 0.00479255 0)
(-0.00730837 0.00588493 0)
(-0.00981679 0.00700338 0)
(-0.0126752 0.00815222 0)
(-0.0158949 0.00933626 0)
(-0.0194863 0.0105596 0)
(-0.0234588 0.0118245 0)
(-0.0278194 0.0131307 0)
(-0.0325722 0.0144748 0)
(-0.0377174 0.0158496 0)
(-0.04325 0.0172447 0)
(-0.0491595 0.0186456 0)
(-0.0554287 0.0200351 0)
(-0.0620337 0.0213927 0)
(-0.0689435 0.0226958 0)
(-0.0761196 0.0239199 0)
(-0.0835172 0.0250394 0)
(-0.0910848 0.0260284 0)
(-0.0987658 0.026861 0)
(-0.106499 0.0275127 0)
(-0.11422 0.0279605 0)
(-0.121862 0.028184 0)
(-0.129358 0.0281657 0)
(-0.136643 0.0278914 0)
(-0.143651 0.0273509 0)
(-0.15032 0.0265376 0)
(-0.156593 0.0254493 0)
(-0.162416 0.0240873 0)
(-0.16774 0.022457 0)
(-0.172521 0.0205675 0)
(-0.17672 0.0184308 0)
(-0.180302 0.0160624 0)
(-0.18324 0.0134805 0)
(-0.185508 0.0107057 0)
(-0.187088 0.00776107 0)
(-0.187963 0.00467175 0)
(-0.188123 0.00146503 0)
(-0.18756 -0.00183016 0)
(-0.18627 -0.00518405 0)
(-0.184254 -0.00856354 0)
(-0.181518 -0.0119349 0)
(-0.178069 -0.0152632 0)
(-0.173921 -0.0185119 0)
(-0.169093 -0.021644 0)
(-0.163606 -0.0246216 0)
(-0.157489 -0.0274067 0)
(-0.150778 -0.0299615 0)
(-0.143511 -0.0322493 0)
(-0.135736 -0.0342352 0)
(-0.127506 -0.0358866 0)
(-0.118882 -0.0371745 0)
(-0.109928 -0.0380745 0)
(-0.100718 -0.0385673 0)
(-0.0913288 -0.0386404 0)
(-0.0818435 -0.0382882 0)
(-0.072348 -0.0375134 0)
(-0.0629308 -0.0363268 0)
(-0.053681 -0.0347483 0)
(-0.0446869 -0.0328061 0)
(-0.0360341 -0.0305369 0)
(-0.0278035 -0.0279845 0)
(-0.0200699 -0.0251994 0)
(-0.0128997 -0.0222367 0)
(-0.00634972 -0.019155 0)
(-0.000465924 -0.016014 0)
(0.0047177 -0.0128733 0)
(0.00917965 -0.00978978 0)
(0.0129112 -0.00681616 0)
(0.0159164 -0.00399937 0)
(0.0182113 -0.00137923 0)
(0.0198235 0.00101233 0)
(0.0207907 0.00315178 0)
(0.0211594 0.00502415 0)
(0.0209835 0.00662206 0)
(0.0203227 0.00794463 0)
(0.0192409 0.00899573 0)
(0.0178048 0.00978168 0)
(0.0160831 0.0103085 0)
(0.0141453 0.010579 0)
(0.012062 0.0105901 0)
(0.00990502 0.0103303 0)
(0.00774832 0.00977845 0)
(0.0056702 0.00890449 0)
(0.00375412 0.00767151 0)
(0.00208802 0.00604098 0)
(0.000798333 0.00397989 0)
(0.000133968 0.00147159 0)
(5.20828e-05 -0.000986833 0)
(0.00024253 -0.00224188 0)
(0.000525596 -0.00290974 0)
(0.000774937 -0.00309425 0)
(0.000914874 -0.00288492 0)
(0.000892394 -0.0023611 0)
(0.000664431 -0.00159148 0)
(0.000196263 -0.000633922 0)
(-0.000540233 0.000464207 0)
(-0.00156839 0.00166555 0)
(-0.00290808 0.00294205 0)
(-0.00457676 0.00427415 0)
(-0.00659023 0.00564969 0)
(-0.00896328 0.00706277 0)
(-0.01171 0.00851229 0)
(-0.0148441 0.0100004 0)
(-0.0183785 0.011531 0)
(-0.022325 0.0131081 0)
(-0.0266939 0.0147341 0)
(-0.0314928 0.0164092 0)
(-0.0367255 0.0181296 0)
(-0.0423917 0.0198878 0)
(-0.0484851 0.0216712 0)
(-0.0549929 0.0234633 0)
(-0.0618955 0.0252429 0)
(-0.0691653 0.0269854 0)
(-0.0767671 0.0286629 0)
(-0.0846579 0.0302452 0)
(-0.0927877 0.0317008 0)
(-0.1011 0.0329977 0)
(-0.109533 0.0341045 0)
(-0.118021 0.034991 0)
(-0.126496 0.0356297 0)
(-0.134887 0.035996 0)
(-0.143125 0.0360693 0)
(-0.151143 0.0358331 0)
(-0.158876 0.0352757 0)
(-0.166261 0.0343901 0)
(-0.173244 0.033174 0)
(-0.179771 0.0316297 0)
(-0.185797 0.0297639 0)
(-0.19128 0.027587 0)
(-0.196184 0.0251131 0)
(-0.200478 0.0223596 0)
(-0.204134 0.0193465 0)
(-0.20713 0.0160964 0)
(-0.209447 0.0126341 0)
(-0.211068 0.00898654 0)
(-0.211981 0.00518242 0)
(-0.212177 0.00125237 0)
(-0.211646 -0.00277122 0)
(-0.210387 -0.00685492 0)
(-0.208396 -0.0109627 0)
(-0.205675 -0.0150573 0)
(-0.202229 -0.0190996 0)
(-0.198066 -0.0230492 0)
(-0.193198 -0.0268643 0)
(-0.187642 -0.030502 0)
(-0.181421 -0.0339188 0)
(-0.17456 -0.0370712 0)
(-0.167095 -0.0399159 0)
(-0.159066 -0.0424115 0)
(-0.150519 -0.0445184 0)
(-0.141509 -0.0462009 0)
(-0.1321 -0.0474276 0)
(-0.122359 -0.0481729 0)
(-0.112363 -0.0484184 0)
(-0.102196 -0.0481537 0)
(-0.0919436 -0.0473776 0)
(-0.0816995 -0.0460987 0)
(-0.0715576 -0.0443361 0)
(-0.0616132 -0.0421192 0)
(-0.05196 -0.0394876 0)
(-0.0426888 -0.0364902 0)
(-0.0338846 -0.0331844 0)
(-0.0256253 -0.0296338 0)
(-0.0179792 -0.0259073 0)
(-0.011004 -0.022076 0)
(-0.00474514 -0.0182118 0)
(0.00076478 -0.0143844 0)
(0.00550667 -0.0106597 0)
(0.00947497 -0.00709742 0)
(0.0126773 -0.00374982 0)
(0.0151338 -0.000660143 0)
(0.0168763 0.00213771 0)
(0.0179472 0.00461983 0)
(0.0183973 0.00677145 0)
(0.0182855 0.00858581 0)
(0.0176762 0.0100624 0)
(0.0166384 0.0112043 0)
(0.0152444 0.0120155 0)
(0.0135689 0.0124973 0)
(0.0116883 0.0126451 0)
(0.00968107 0.0124455 0)
(0.00762825 0.0118742 0)
(0.0056158 0.0108955 0)
(0.00373537 0.00946327 0)
(0.00208376 0.00752383 0)
(0.000796949 0.00502052 0)
(0.000133168 0.00189775 0)
(4.19178e-05 -0.00110425 0)
(0.000171477 -0.00245099 0)
(0.000324102 -0.00310459 0)
(0.000389617 -0.00319456 0)
(0.000299114 -0.00282926 0)
(3.62916e-06 -0.00210162 0)
(-0.00053657 -0.00109032 0)
(-0.00135392 0.000139646 0)
(-0.00247551 0.0015358 0)
(-0.00392477 0.00305713 0)
(-0.00572259 0.00467302 0)
(-0.00788807 0.00636213 0)
(-0.0104391 0.00811112 0)
(-0.0133926 0.00991325 0)
(-0.0167646 0.0117667 0)
(-0.0205703 0.0136728 0)
(-0.0248232 0.0156342 0)
(-0.0295349 0.0176528 0)
(-0.0347137 0.0197285 0)
(-0.0403641 0.0218574 0)
(-0.0464851 0.0240311 0)
(-0.0530698 0.0262358 0)
(-0.0601038 0.0284524 0)
(-0.0675649 0.0306566 0)
(-0.0754228 0.0328194 0)
(-0.0836385 0.034908 0)
(-0.0921651 0.0368865 0)
(-0.100948 0.0387175 0)
(-0.109927 0.0403629 0)
(-0.119035 0.0417854 0)
(-0.128204 0.0429496 0)
(-0.13736 0.0438232 0)
(-0.146433 0.0443776 0)
(-0.155352 0.0445891 0)
(-0.164048 0.0444392 0)
(-0.172457 0.0439148 0)
(-0.180519 0.0430084 0)
(-0.18818 0.041718 0)
(-0.195391 0.0400466 0)
(-0.202107 0.0380019 0)
(-0.208291 0.0355959 0)
(-0.21391 0.032844 0)
(-0.218935 0.0297653 0)
(-0.22334 0.026381 0)
(-0.227105 0.0227152 0)
(-0.230211 0.0187936 0)
(-0.232641 0.0146441 0)
(-0.234383 0.0102961 0)
(-0.235423 0.00578055 0)
(-0.235752 0.00113036 0)
(-0.235362 -0.00361993 0)
(-0.234245 -0.00843452 0)
(-0.232397 -0.0132752 0)
(-0.229814 -0.0181018 0)
(-0.226496 -0.0228725 0)
(-0.222446 -0.0275432 0)
(-0.217669 -0.032068 0)
(-0.212174 -0.0363996 0)
(-0.205977 -0.0404893 0)
(-0.199097 -0.0442874 0)
(-0.191559 -0.0477446 0)
(-0.183397 -0.050812 0)
(-0.174651 -0.0534429 0)
(-0.165369 -0.0555936 0)
(-0.155606 -0.0572247 0)
(-0.145429 -0.058303 0)
(-0.134911 -0.0588025 0)
(-0.124133 -0.0587062 0)
(-0.113184 -0.0580074 0)
(-0.102159 -0.0567104 0)
(-0.0911583 -0.0548318 0)
(-0.0802833 -0.0524004 0)
(-0.069637 -0.0494574 0)
(-0.0593202 -0.0460557 0)
(-0.0494298 -0.0422583 0)
(-0.0400558 -0.0381374 0)
(-0.0312794 -0.0337715 0)
(-0.0231709 -0.0292434 0)
(-0.0157883 -0.0246376 0)
(-0.00917586 -0.0200374 0)
(-0.00336364 -0.0155226 0)
(0.0016329 -0.0111668 0)
(0.00581268 -0.00703558 0)
(0.00918837 -0.00318497 0)
(0.0117857 0.000339698 0)
(0.013642 0.00350391 0)
(0.0148052 0.00628394 0)
(0.0153321 0.00866554 0)
(0.0152869 0.0106422 0)
(0.0147399 0.0122124 0)
(0.0137659 0.0133767 0)
(0.0124436 0.0141336 0)
(0.0108542 0.0144763 0)
(0.00908194 0.0143885 0)
(0.00721433 0.0138423 0)
(0.00534412 0.012796 0)
(0.00357001 0.0111939 0)
(0.00199581 0.00896733 0)
(0.000762523 0.00603719 0)
(0.000126554 0.00231312 0)
(2.9187e-05 -0.00118044 0)
(8.33173e-05 -0.00254774 0)
(7.63443e-05 -0.00312539 0)
(-7.96286e-05 -0.00306736 0)
(-0.000443389 -0.00249878 0)
(-0.0010576 -0.00152508 0)
(-0.00195724 -0.000233383 0)
(-0.00317149 0.00130567 0)
(-0.00472583 0.00303582 0)
(-0.00664342 0.00491348 0)
(-0.00894589 0.0069063 0)
(-0.0116537 0.00899167 0)
(-0.0147865 0.0111553 0)
(-0.0183628 0.0133894 0)
(-0.0224 0.0156912 0)
(-0.0269137 0.0180602 0)
(-0.0319171 0.0204969 0)
(-0.0374199 0.0229998 0)
(-0.0434273 0.0255646 0)
(-0.0499386 0.028182 0)
(-0.0569465 0.0308367 0)
(-0.0644357 0.0335078 0)
(-0.0723822 0.0361677 0)
(-0.0807533 0.0387835 0)
(-0.0895071 0.0413175 0)
(-0.0985932 0.0437284 0)
(-0.107954 0.045973 0)
(-0.117524 0.048007 0)
(-0.127234 0.0497876 0)
(-0.137013 0.0512738 0)
(-0.146785 0.0524285 0)
(-0.156476 0.0532194 0)
(-0.166017 0.0536197 0)
(-0.175337 0.0536088 0)
(-0.184375 0.0531722 0)
(-0.193072 0.0523022 0)
(-0.201375 0.0509967 0)
(-0.209239 0.0492594 0)
(-0.216623 0.0470991 0)
(-0.223491 0.0445288 0)
(-0.229813 0.0415653 0)
(-0.235563 0.0382286 0)
(-0.240717 0.0345413 0)
(-0.245256 0.0305278 0)
(-0.249163 0.0262148 0)
(-0.252421 0.0216303 0)
(-0.255017 0.0168038 0)
(-0.256937 0.0117662 0)
(-0.25817 0.00654992 0)
(-0.258703 0.00118883 0)
(-0.258529 -0.00428136 0)
(-0.257635 -0.00982329 0)
(-0.256015 -0.0153972 0)
(-0.253662 -0.0209614 0)
(-0.250568 -0.0264714 0)
(-0.246731 -0.0318805 0)
(-0.24215 -0.0371395 0)
(-0.236827 -0.042197 0)
(-0.230769 -0.0469994 0)
(-0.223986 -0.0514916 0)
(-0.216496 -0.0556177 0)
(-0.208323 -0.0593217 0)
(-0.199496 -0.0625489 0)
(-0.190057 -0.0652469 0)
(-0.180054 -0.0673675 0)
(-0.169546 -0.0688681 0)
(-0.158601 -0.0697137 0)
(-0.147299 -0.0698787 0)
(-0.135726 -0.0693485 0)
(-0.12398 -0.0681211 0)
(-0.112164 -0.0662083 0)
(-0.100388 -0.0636362 0)
(-0.088763 -0.0604457 0)
(-0.0774009 -0.056692 0)
(-0.0664115 -0.052443 0)
(-0.0558985 -0.0477783 0)
(-0.0459579 -0.0427861 0)
(-0.0366744 -0.0375611 0)
(-0.0281203 -0.032201 0)
(-0.0203529 -0.0268036 0)
(-0.0134145 -0.0214634 0)
(-0.00733122 -0.0162693 0)
(-0.0021134 -0.0113016 0)
(0.00224397 -0.00663019 0)
(0.00576031 -0.00231356 0)
(0.00846833 0.00160208 0)
(0.0104125 0.00508253 0)
(0.0116477 0.00810469 0)
(0.0122377 0.0106546 0)
(0.0122533 0.0127248 0)
(0.0117716 0.014311 0)
(0.0108743 0.015408 0)
(0.00964685 0.0160054 0)
(0.00817856 0.0160838 0)
(0.00656258 0.0156108 0)
(0.00489749 0.0145387 0)
(0.0032877 0.0128025 0)
(0.00184212 0.01032 0)
(0.000702811 0.00699278 0)
(0.000115723 0.00270214 0)
(1.3931e-05 -0.00120666 0)
(-2.12625e-05 -0.00250984 0)
(-0.000215642 -0.00294008 0)
(-0.000628164 -0.00267391 0)
(-0.00130426 -0.00185109 0)
(-0.0022788 -0.000587237 0)
(-0.00358027 0.00102428 0)
(-0.00523371 0.00290906 0)
(-0.0072625 0.00500869 0)
(-0.00968924 0.00727826 0)
(-0.012536 0.00968448 0)
(-0.0158244 0.012204 0)
(-0.0195752 0.0148215 0)
(-0.023808 0.0175281 0)
(-0.0285406 0.020319 0)
(-0.0337881 0.0231913 0)
(-0.0395618 0.0261418 0)
(-0.0458682 0.0291644 0)
(-0.0527076 0.0322486 0)
(-0.0600727 0.0353781 0)
(-0.0679479 0.0385295 0)
(-0.0763084 0.0416727 0)
(-0.0851197 0.044771 0)
(-0.0943377 0.0477822 0)
(-0.103909 0.0506598 0)
(-0.113774 0.0533546 0)
(-0.123863 0.0558168 0)
(-0.134106 0.0579975 0)
(-0.144426 0.0598504 0)
(-0.154748 0.0613338 0)
(-0.164996 0.0624112 0)
(-0.1751 0.0630529 0)
(-0.18499 0.063236 0)
(-0.194606 0.0629448 0)
(-0.20389 0.0621707 0)
(-0.212792 0.060912 0)
(-0.221268 0.0591728 0)
(-0.229281 0.0569625 0)
(-0.236797 0.0542952 0)
(-0.243787 0.0511888 0)
(-0.250229 0.047664 0)
(-0.256101 0.0437442 0)
(-0.261385 0.0394546 0)
(-0.266064 0.0348221 0)
(-0.270124 0.0298748 0)
(-0.273551 0.0246421 0)
(-0.276334 0.0191543 0)
(-0.278459 0.013443 0)
(-0.279914 0.00754118 0)
(-0.280689 0.0014832 0)
(-0.280771 -0.00469493 0)
(-0.280149 -0.0109551 0)
(-0.278813 -0.0172568 0)
(-0.276751 -0.0235573 0)
(-0.273954 -0.0298108 0)
(-0.270412 -0.0359688 0)
(-0.266118 -0.0419795 0)
(-0.261066 -0.0477881 0)
(-0.255256 -0.0533371 0)
(-0.248688 -0.0585665 0)
(-0.241371 -0.0634141 0)
(-0.233315 -0.0678171 0)
(-0.224543 -0.0717126 0)
(-0.215084 -0.075039 0)
(-0.204975 -0.0777384 0)
(-0.194267 -0.0797575 0)
(-0.183019 -0.0810505 0)
(-0.171306 -0.0815811 0)
(-0.159212 -0.0813245 0)
(-0.146832 -0.0802694 0)
(-0.134272 -0.0784201 0)
(-0.121648 -0.0757975 0)
(-0.109078 -0.0724396 0)
(-0.0966865 -0.0684015 0)
(-0.084597 -0.0637545 0)
(-0.0729289 -0.0585844 0)
(-0.0617945 -0.0529888 0)
(-0.051296 -0.0470742 0)
(-0.0415221 -0.0409525 0)
(-0.0325463 -0.0347368 0)
(-0.024425 -0.0285384 0)
(-0.0171968 -0.0224625 0)
(-0.0108824 -0.016606 0)
(-0.00548533 -0.0110546 0)
(-0.000992627 -0.00588134 0)
(0.00262359 -0.00114561 0)
(0.00540476 0.00310653 0)
(0.00740407 0.00684174 0)
(0.0086848 0.0100374 0)
(0.00931878 0.0126787 0)
(0.00938487 0.0147556 0)
(0.00896771 0.0162579 0)
(0.00815675 0.0171711 0)
(0.00704571 0.0174716 0)
(0.0057327 0.0171225 0)
(0.00432122 0.0160701 0)
(0.00292011 0.0142411 0)
(0.00164155 0.0115421 0)
(0.000625731 0.00785933 0)
(0.000102219 0.00305363 0)
(-4.08113e-06 -0.00117442 0)
(-0.000142156 -0.0023159 0)
(-0.000549861 -0.00251853 0)
(-0.00125154 -0.00197846 0)
(-0.0022759 -0.000847617 0)
(-0.00364791 0.000751598 0)
(-0.00538842 0.00272234 0)
(-0.00751757 0.00498887 0)
(-0.0100562 0.00749247 0)
(-0.0130261 0.0101882 0)
(-0.0164495 0.0130428 0)
(-0.0203486 0.0160323 0)
(-0.0247451 0.0191404 0)
(-0.0296585 0.0223564 0)
(-0.0351062 0.0256728 0)
(-0.0411014 0.0290829 0)
(-0.0476522 0.0325785 0)
(-0.0547603 0.036147 0)
(-0.0624193 0.0397705 0)
(-0.070614 0.0434236 0)
(-0.0793193 0.0470736 0)
(-0.0884999 0.0506804 0)
(-0.0981103 0.0541974 0)
(-0.108096 0.0575733 0)
(-0.118392 0.0607532 0)
(-0.128931 0.0636816 0)
(-0.139637 0.0663036 0)
(-0.150432 0.0685678 0)
(-0.16124 0.0704272 0)
(-0.171983 0.0718416 0)
(-0.182591 0.0727777 0)
(-0.192994 0.0732104 0)
(-0.203132 0.0731224 0)
(-0.212949 0.0725044 0)
(-0.222397 0.0713543 0)
(-0.231433 0.0696765 0)