/*--------------------------------*- C++ -*----------------------------------*\
  =========                 |
  \\      /  F ield         | OpenFOAM: The Open Source CFD Toolbox
   \\    /   O peration     | Website:  https://openfoam.org
    \\  /    A nd           | Version:  9
     \\/     M anipulation  |
\*---------------------------------------------------------------------------*/
FoamFile
{
    format      ascii;
    class       volScalarField;
    location    "1.5";
    object      p;
}
// * * * * * * * * * * * * * * * * * * * * * * * * * * * * * * * * * * * * * //

dimensions      [0 2 -2 0 0 0 0];

internalField   nonuniform List<scalar> 
1240
(
0.00084074
0.00080981
0.000749889
0.000661001
0.000543825
0.000399656
0.000230398
3.85157e-05
-0.000173069
-0.000401061
-0.000641898
-0.000891877
-0.00114726
-0.0014044
-0.00165982
-0.00191033
-0.00215306
-0.00238556
-0.00260576
-0.00281206
-0.00300324
-0.0031785
-0.00333739
-0.00347977
-0.00360572
-0.00371555
-0.00380964
-0.00388848
-0.00395252
-0.00400223
-0.00403801
-0.00406031
-0.00406965
-0.0040669
-0.00405371
-0.00403315
-0.00400992
-0.00399197
0.000707877
0.000673989
0.000612818
0.000524438
0.000409519
0.000269307
0.000105622
-7.92004e-05
-0.000282379
-0.0005008
-0.000731108
-0.000969816
-0.00121342
-0.00145851
-0.00170183
-0.00194042
-0.0021716
-0.0023931
-0.002603
-0.00279981
-0.00298242
-0.00315007
-0.00330234
-0.00343909
-0.00356041
-0.00366658
-0.00375797
-0.00383505
-0.00389834
-0.00394834
-0.00398558
-0.00401063
-0.00402419
-0.00402723
-0.00402123
-0.00400858
-0.00399205
-0.00397402
0.000622313
0.000586745
0.000524671
0.000436212
0.000322042
0.000183396
2.20742e-05
-0.000159615
-0.000358935
-0.000572813
-0.000797957
-0.00103095
-0.00126839
-0.00150693
-0.00174344
-0.00197505
-0.00219921
-0.00241375
-0.00261685
-0.00280713
-0.00298356
-0.00314547
-0.0032925
-0.00342457
-0.00354181
-0.00364454
-0.00373319
-0.00380825
-0.00387027
-0.00391981
-0.00395743
-0.00398372
-0.00399935
-0.00400509
-0.0040021
-0.00399209
-0.00397559
-0.00395069
0.000554204
0.000517876
0.000455323
0.000366695
0.000252668
0.000114481
-4.60522e-05
-0.000226603
-0.000424411
-0.000636386
-0.000859209
-0.00108946
-0.0013237
-0.00155864
-0.00179114
-0.00201838
-0.00223787
-0.00244749
-0.00264552
-0.00283066
-0.00300196
-0.00315887
-0.0033011
-0.00342868
-0.00354182
-0.00364091
-0.00372646
-0.00379903
-0.00385921
-0.0039076
-0.00394477
-0.00397128
-0.00398764
-0.00399439
-0.00399228
-0.00398237
-0.00396341
-0.00393043
0.000485749
0.000449716
0.000387468
0.000299163
0.000185464
4.76059e-05
-0.000112575
-0.000292713
-0.000489996
-0.000701269
-0.000923175
-0.00115218
-0.00138484
-0.00161777
-0.00184783
-0.00207218
-0.00228834
-0.00249423
-0.00268818
-0.00286894
-0.00303569
-0.00318795
-0.00332555
-0.00344861
-0.00355748
-0.00365263
-0.00373467
-0.00380425
-0.00386203
-0.00390864
-0.00394466
-0.00397059
-0.00398682
-0.00399363
-0.0039914
-0.0039807
-0.00395887
-0.00391862
0.000407688
0.000373525
0.000312981
0.00022618
0.000113735
-2.31405e-05
-0.000182602
-0.00036225
-0.000559213
-0.000770258
-0.000991915
-0.00122059
-0.00145269
-0.00168477
-0.00191359
-0.00213626
-0.00235025
-0.00255348
-0.0027443
-0.00292151
-0.00308435
-0.00323243
-0.00336569
-0.00348438
-0.00358895
-0.00368001
-0.00375826
-0.00382447
-0.00387937
-0.00392366
-0.00395791
-0.00398259
-0.00399799
-0.00400417
-0.00400123
-0.00398936
-0.00396495
-0.00391904
0.000308627
0.000278603
0.000221979
0.000138757
2.94428e-05
-0.000104812
-0.000262187
-0.00044027
-0.000636144
-0.000846497
-0.00106775
-0.00129618
-0.00152808
-0.00175986
-0.00198815
-0.00220994
-0.00242264
-0.00262408
-0.00281262
-0.00298705
-0.00314665
-0.00329111
-0.00342047
-0.00353507
-0.00363548
-0.00372245
-0.00379681
-0.00385943
-0.00391114
-0.0039527
-0.00398473
-0.00400767
-0.00402174
-0.00402687
-0.00402295
-0.0040099
-0.00398351
-0.00393382
0.000174444
0.00015184
0.000102419
2.5978e-05
-7.71487e-05
-0.000205931
-0.000358628
-0.000532859
-0.000725695
-0.000933767
-0.0011534
-0.00138074
-0.00161192
-0.00184318
-0.002071
-0.00229222
-0.00250408
-0.00270433
-0.00289123
-0.00306357
-0.0032206
-0.00336203
-0.003488
-0.00359893
-0.0036955
-0.00377859
-0.00384914
-0.00390815
-0.00395655
-0.00399519
-0.00402475
-0.00404568
-0.00405817
-0.00406208
-0.00405715
-0.00404317
-0.00401558
-0.00396391
-6.53742e-05
-2.66022e-05
-1.16189e-05
-2.23893e-05
-6.00418e-05
-0.000125143
-0.000217621
-0.00033664
-0.000480617
-0.000647278
-0.000833737
-0.00103661
-0.00125216
-0.00147641
-0.00170534
-0.00193499
-0.00216166
-0.00238195
-0.00259295
-0.00279223
-0.00297791
-0.00314866
-0.00330372
-0.00344276
-0.00356595
-0.00367377
-0.003767
-0.0038466
-0.00391365
-0.00396925
-0.00401447
-0.00405023
-0.0040773
-0.00409618
-0.00410706
-0.00410978
-0.00410403
-0.00408949
-0.00406151
-0.00400954
-0.000523009
-0.000431532
-0.000356746
-0.000301914
-0.000269902
-0.000263026
-0.000282926
-0.000330617
-0.000406368
-0.000509661
-0.00063918
-0.000792858
-0.000967949
-0.00116113
-0.00136865
-0.00158645
-0.00181035
-0.00203621
-0.00226009
-0.00247835
-0.00268782
-0.00288585
-0.00307035
-0.00323983
-0.00339338
-0.00353065
-0.00365171
-0.0037571
-0.00384763
-0.00392434
-0.00398842
-0.00404107
-0.00408346
-0.00411664
-0.00414144
-0.00415845
-0.00416792
-0.00416967
-0.00416341
-0.00414877
-0.00412119
-0.00407034
-0.000961668
-0.000852437
-0.000757521
-0.000680554
-0.000624835
-0.000593206
-0.000587886
-0.000610413
-0.000661555
-0.00074126
-0.000848632
-0.000981954
-0.00113875
-0.00131586
-0.00150961
-0.00171592
-0.00193051
-0.00214903
-0.00236729
-0.0025814
-0.00278785
-0.00298369
-0.00316655
-0.0033347
-0.00348701
-0.00362297
-0.00374256
-0.00384626
-0.00393487
-0.00400948
-0.00407132
-0.0041217
-0.00416188
-0.004193
-0.00421601
-0.00423156
-0.00423999
-0.00424116
-0.00423482
-0.00422059
-0.00419412
-0.00414556
-0.0015519
-0.00141993
-0.00129884
-0.0011928
-0.00110565
-0.00104085
-0.00100126
-0.000989111
-0.00100583
-0.00105203
-0.00112741
-0.00123079
-0.00136013
-0.0015126
-0.00168473
-0.00187251
-0.00207162
-0.00227757
-0.00248591
-0.00269243
-0.00289327
-0.0030851
-0.00326517
-0.0034314
-0.00358236
-0.00371727
-0.00383593
-0.00393866
-0.00402621
-0.00409962
-0.00416014
-0.00420914
-0.00424793
-0.00427777
-0.00429967
-0.0043144
-0.00432234
-0.00432347
-0.00431756
-0.00430429
-0.00427957
-0.00423423
-0.00232982
-0.00216983
-0.00201609
-0.00187339
-0.00174616
-0.00163854
-0.00155419
-0.00149616
-0.00146675
-0.00146741
-0.00149868
-0.00156014
-0.0016504
-0.00176718
-0.00190738
-0.00206723
-0.00224247
-0.00242855
-0.0026208
-0.00281467
-0.00300591
-0.00319073
-0.00336591
-0.0035289
-0.00367784
-0.00381158
-0.0039296
-0.00403199
-0.0041193
-0.00419248
-0.00425273
-0.0043014
-0.00433985
-0.00436937
-0.00439106
-0.00440578
-0.00441398
-0.00441573
-0.00441085
-0.00439907
-0.00437667
-0.00433524
-0.00333372
-0.00314052
-0.00294758
-0.00276032
-0.00258377
-0.00242286
-0.00228212
-0.00216559
-0.00207663
-0.00201776
-0.0019906
-0.00199573
-0.00203271
-0.00210005
-0.00219529
-0.00231511
-0.0024555
-0.00261195
-0.00277967
-0.0029538
-0.00312968
-0.00330297
-0.0034699
-0.00362731
-0.0037728
-0.00390467
-0.00402196
-0.00412437
-0.00421217
-0.00428608
-0.00434716
-0.00439667
-0.00443595
-0.0044663
-0.00448887
-0.00450456
-0.00451391
-0.00451704
-0.00451387
-0.00450415
-0.00448454
-0.00444749
-0.00460168
-0.00437063
-0.00413235
-0.00389285
-0.00365775
-0.00343281
-0.00322353
-0.00303503
-0.00287188
-0.00273792
-0.00263607
-0.00256823
-0.00253521
-0.00253663
-0.002571
-0.00263575
-0.00272737
-0.00284161
-0.00297369
-0.00311854
-0.00327108
-0.00342642
-0.00358011
-0.0037283
-0.00386783
-0.00399634
-0.00411222
-0.00421463
-0.00430339
-0.00437886
-0.00444184
-0.00449341
-0.0045348
-0.00456726
-0.00459193
-0.00460972
-0.00462122
-0.00462662
-0.00462587
-0.00461878
-0.00460238
-0.00456998
-0.00616835
-0.0058959
-0.00560719
-0.00530869
-0.00500662
-0.00470749
-0.00441778
-0.00414378
-0.00389138
-0.00366589
-0.00347179
-0.00331261
-0.00319071
-0.00310723
-0.00306202
-0.00305363
-0.00307943
-0.00313573
-0.003218
-0.00332115
-0.00343974
-0.00356836
-0.00370181
-0.00383541
-0.00396512
-0.00408767
-0.00420064
-0.00430243
-0.00439222
-0.00446985
-0.00453568
-0.0045905
-0.00463531
-0.00467123
-0.00469931
-0.00472044
-0.0047352
-0.00474381
-0.00474626
-0.00474238
-0.00472955
-0.00470191
-0.00806128
-0.00774548
-0.00740293
-0.00704044
-0.00666463
-0.0062827
-0.00590203
-0.00553004
-0.00517399
-0.00484074
-0.00453655
-0.00426677
-0.00403571
-0.0038464
-0.00370046
-0.00359805
-0.00353787
-0.00351721
-0.0035322
-0.00357794
-0.00364892
-0.00373922
-0.00384294
-0.00395446
-0.00406869
-0.00418127
-0.00428873
-0.00438846
-0.00447877
-0.00455874
-0.00462814
-0.00468727
-0.00473679
-0.00477754
-0.0048104
-0.00483617
-0.00485537
-0.00486821
-0.00487467
-0.00487458
-0.00486564
-0.00484275
-0.0102969
-0.00993791
-0.00954044
-0.00911142
-0.00865772
-0.008187
-0.00770736
-0.00722723
-0.00675513
-0.0062995
-0.0058684
-0.00546922
-0.00510848
-0.00479146
-0.00452204
-0.00430251
-0.00413342
-0.00401366
-0.00394046
-0.00390965
-0.00391588
-0.00395304
-0.00401458
-0.00409392
-0.0041848
-0.00428159
-0.00437949
-0.00447462
-0.00456412
-0.00464607
-0.00471938
-0.00478365
-0.00483901
-0.00488591
-0.00492494
-0.00495668
-0.00498155
-0.00499967
-0.00501099
-0.00501529
-0.00501054
-0.0049923
-0.0128772
-0.0124774
-0.0120267
-0.0115317
-0.0109993
-0.0104374
-0.00985453
-0.00925976
-0.00866273
-0.00807326
-0.00750114
-0.00695587
-0.00644629
-0.00598025
-0.0055643
-0.00520337
-0.00490054
-0.0046569
-0.0044715
-0.00434148
-0.00426225
-0.00422784
-0.00423134
-0.00426531
-0.0043223
-0.0043952
-0.00447764
-0.00456419
-0.00465048
-0.00473325
-0.00481026
-0.00488016
-0.0049423
-0.00499656
-0.00504307
-0.00508211
-0.00511388
-0.00513836
-0.0051554
-0.0051647
-0.00516444
-0.00515075
-0.0157872
-0.0153514
-0.014852
-0.014295
-0.013687
-0.0130358
-0.0123499
-0.0116389
-0.0109129
-0.0101829
-0.00946012
-0.00875602
-0.00808174
-0.00744781
-0.00686377
-0.00633764
-0.00587564
-0.00548181
-0.0051578
-0.00490288
-0.00471394
-0.00458583
-0.00451171
-0.00448361
-0.00449295
-0.0045311
-0.00458991
-0.00466206
-0.00474133
-0.00482272
-0.00490249
-0.00497799
-0.00504753
-0.00511015
-0.00516535
-0.00521297
-0.00525286
-0.00528478
-0.00530842
-0.00532337
-0.00532791
-0.00531868
-0.0189944
-0.0185295
-0.0179884
-0.0173767
-0.0167002
-0.0159661
-0.0151827
-0.0143592
-0.0135061
-0.012635
-0.011758
-0.0108881
-0.0100386
-0.00922252
-0.00845247
-0.00773989
-0.00709462
-0.00652436
-0.00603425
-0.00562659
-0.00530075
-0.00505327
-0.00487818
-0.00476747
-0.00471179
-0.00470108
-0.00472529
-0.00477494
-0.00484156
-0.00491804
-0.00499863
-0.00507902
-0.00515612
-0.00522787
-0.00529276
-0.00535012
-0.00539931
-0.00543976
-0.0054709
-0.00549217
-0.00550188
-0.00549706
-0.0224505
-0.0219647
-0.0213914
-0.0207349
-0.0200004
-0.019194
-0.0183233
-0.017397
-0.016425
-0.0154189
-0.0143912
-0.0133559
-0.0123277
-0.0113219
-0.0103538
-0.00943843
-0.00858945
-0.00781879
-0.00713587
-0.00654706
-0.0060553
-0.00565998
-0.00535703
-0.00513933
-0.00499736
-0.00491999
-0.00489533
-0.00491159
-0.00495772
-0.00502399
-0.00510222
-0.00518589
-0.00527004
-0.00535106
-0.00542662
-0.00549481
-0.00555443
-0.00560446
-0.00564401
-0.00567229
-0.00568762
-0.00568731
-0.0260952
-0.0255973
-0.0250021
-0.0243127
-0.0235332
-0.0226686
-0.0217252
-0.0207105
-0.0196338
-0.0185055
-0.0173382
-0.0161457
-0.0149436
-0.0137487
-0.0125786
-0.0114513
-0.0103843
-0.00939407
-0.00849485
-0.00769801
-0.00701123
-0.00643806
-0.00597769
-0.00562513
-0.0053717
-0.00520591
-0.00511441
-0.00508311
-0.00509817
-0.0051468
-0.00521783
-0.00530201
-0.00539201
-0.00548228
-0.0055688
-0.00564864
-0.00571968
-0.00578031
-0.00582922
-0.00586524
-0.00588673
-0.00589116
-0.0298613
-0.02936
-0.0287534
-0.0280436
-0.0272334
-0.0263264
-0.0253277
-0.0242431
-0.0230803
-0.0218487
-0.0205595
-0.0192259
-0.0178633
-0.016489
-0.015122
-0.0137826
-0.0124917
-0.01127
-0.0101369
-0.00910929
-0.00820066
-0.00742005
-0.00677147
-0.0062536
-0.00586008
-0.00558018
-0.00539987
-0.00530315
-0.00527332
-0.00529424
-0.00535123
-0.00543167
-0.00552522
-0.00562381
-0.00572139
-0.00581348
-0.00589684
-0.00596907
-0.00602826
-0.00607287
-0.00610109
-0.00611072
-0.0336809
-0.0331838
-0.0325755
-0.0318572
-0.0310305
-0.0300976
-0.0290619
-0.0279277
-0.0267008
-0.0253886
-0.0240006
-0.0225484
-0.0210463
-0.019511
-0.0179618
-0.0164202
-0.0149095
-0.0134539
-0.0120776
-0.0108034
-0.009651
-0.00863628
-0.00776954
-0.00705493
-0.00649021
-0.00606705
-0.00577204
-0.00558805
-0.00549587
-0.0054759
-0.00550951
-0.00558007
-0.00567357
-0.00577873
-0.00588686
-0.00599151
-0.00608793
-0.00617267
-0.00624311
-0.00629719
-0.0063329
-0.00634835
-0.0374912
-0.0370042
-0.0364024
-0.0356859
-0.0348555
-0.033912
-0.0328572
-0.0316937
-0.0304253
-0.0290571
-0.0275964
-0.0260526
-0.0244379
-0.0227674
-0.0210593
-0.019335
-0.017619
-0.0159378
-0.0143194
-0.0127919
-0.0113816
-0.0101118
-0.00900043
-0.00805885
-0.00729098
-0.006693
-0.00625391
-0.00595684
-0.00578092
-0.00570333
-0.00570127
-0.00575356
-0.00584174
-0.00595058
-0.00606807
-0.00618516
-0.00629518
-0.00639329
-0.00647596
-0.00654046
-0.00658454
-0.00660666
-0.0412389
-0.040766
-0.0401766
-0.0394701
-0.0386464
-0.0377052
-0.0366471
-0.0354728
-0.0341842
-0.0327842
-0.0312775
-0.0296709
-0.0279738
-0.0261987
-0.0243617
-0.0224827
-0.0205855
-0.0186976
-0.0168493
-0.0150729
-0.0134007
-0.0118633
-0.010487
-0.00929208
-0.00829055
-0.00748542
-0.00687043
-0.00643101
-0.00614603
-0.00599026
-0.00593686
-0.00595974
-0.00603531
-0.00614352
-0.00626826
-0.00639714
-0.00652101
-0.00663327
-0.00672914
-0.00680508
-0.00685855
-0.00688845
-0.044883
-0.0444263
-0.0438529
-0.0431619
-0.0423524
-0.0414235
-0.0403745
-0.0392048
-0.0379144
-0.0365043
-0.0349765
-0.033335
-0.0315862
-0.0297393
-0.0278072
-0.025807
-0.0237604
-0.021694
-0.0196387
-0.0176292
-0.0157024
-0.0138954
-0.0122431
-0.0107751
-0.00951353
-0.00847046
-0.00764703
-0.00703352
-0.00661071
-0.00635238
-0.00622834
-0.00620756
-0.0062608
-0.00636236
-0.00649109
-0.00663044
-0.00676807
-0.00689509
-0.00700515
-0.00709362
-0.00715763
-0.00719657
-0.0483955
-0.0479554
-0.0473996
-0.0467269
-0.0459362
-0.045026
-0.0439949
-0.0428411
-0.0415634
-0.0401608
-0.0386331
-0.0369817
-0.0352096
-0.0333227
-0.0313299
-0.0292445
-0.027085
-0.0248752
-0.0226447
-0.0204284
-0.0182658
-0.016199
-0.0142703
-0.012519
-0.0109779
-0.00967033
-0.00860746
-0.00778734
-0.00719545
-0.00680678
-0.00658919
-0.00650721
-0.00652567
-0.00661252
-0.00674061
-0.00688827
-0.00703913
-0.00718135
-0.00730655
-0.00740872
-0.00748454
-0.00753403
-0.0517611
-0.0513365
-0.0507978
-0.050144
-0.0493739
-0.0484856
-0.0474774
-0.0463468
-0.0450916
-0.0437094
-0.0421982
-0.040557
-0.0387859
-0.0368872
-0.0348659
-0.0327312
-0.0304968
-0.0281826
-0.0258149
-0.0234267
-0.0210576
-0.0187525
-0.0165591
-0.0145253
-0.0126948
-0.0111032
-0.00977386
-0.00871579
-0.00792237
-0.0073728
-0.00703518
-0.0068708
-0.00683886
-0.00690047
-0.00702156
-0.00717426
-0.00733719
-0.00749478
-0.00763602
-0.00775309
-0.00784212
-0.00790384
-0.0545635
-0.0540402
-0.0534042
-0.052654
-0.0517881
-0.0508044
-0.0497004
-0.0484731
-0.0471193
-0.0456357
-0.0440194
-0.042268
-0.0403809
-0.0383592
)
;

boundaryField
{
    movingWall
    {
        type            zeroGradient;
    }
    fixedWalls
    {
        type            zeroGradient;
    }
    frontAndBack
    {
        type            empty;
    }
    procBoundary7to1
    {
        type            processor;
        value           nonuniform List<scalar> 
33
(
0.00084339
0.000715119
0.00063198
0.000564889
0.000496145
0.000416048
0.000312644
0.000143494
0.000171087
0.000171087
-0.000203267
-0.000125228
-0.000125228
-0.000627845
-0.00108188
-0.00169132
-0.00249243
-0.00352325
-0.00482122
-0.00641997
-0.00834558
-0.0106127
-0.0132215
-0.016155
-0.0193795
-0.0228458
-0.0264934
-0.0302557
-0.0340661
-0.0378632
-0.0415954
-0.0452233
-0.0487203
)
;
    }
    procBoundary7to6
    {
        type            processor;
        value           nonuniform List<scalar> 
45
(
-0.0520719
-0.0549747
-0.0362074
-0.0339348
-0.0315558
-0.029092
-0.0265724
-0.0240343
-0.0215224
-0.0190878
-0.0167844
-0.0146659
-0.01278
-0.011164
-0.00984025
-0.00881365
-0.00807111
-0.00758399
-0.00731249
-0.00721112
-0.00723409
-0.00733966
-0.00749271
-0.00766571
-0.0078384
-0.00799639
-0.00812958
-0.00823327
-0.00830907
-0.0549747
-0.0576392
-0.0571288
-0.0565078
-0.0557753
-0.05493
-0.0539698
-0.0528924
-0.0516946
-0.0503727
-0.0489228
-0.0473405
-0.0456218
-0.0437634
-0.0362074
-0.0417633
)
;
    }
}


// ************************************************************************* //
