/*--------------------------------*- C++ -*----------------------------------*\
  =========                 |
  \\      /  F ield         | OpenFOAM: The Open Source CFD Toolbox
   \\    /   O peration     | Website:  https://openfoam.org
    \\  /    A nd           | Version:  9
     \\/     M anipulation  |
\*---------------------------------------------------------------------------*/
FoamFile
{
    format      ascii;
    class       surfaceScalarField;
    location    "1.5";
    object      phi;
}
// * * * * * * * * * * * * * * * * * * * * * * * * * * * * * * * * * * * * * //

dimensions      [0 3 -1 0 0 0 0];

internalField   nonuniform List<scalar> 
2407
(
-3.03022e-08
-6.48087e-09
-2.36726e-08
-6.62957e-09
-1.69918e-08
-6.6808e-09
-1.03579e-08
-6.63394e-09
-3.8674e-09
-6.49046e-09
2.38645e-09
-6.25384e-09
8.31629e-09
-5.92984e-09
1.38426e-08
-5.52631e-09
1.88961e-08
-5.05345e-09
2.3419e-08
-4.52299e-09
2.73669e-08
-3.94787e-09
3.07087e-08
-3.34182e-09
3.34275e-08
-2.71873e-09
3.55197e-08
-2.09222e-09
3.69948e-08
-1.47515e-09
3.7874e-08
-8.79154e-10
3.81884e-08
-3.14355e-10
3.79774e-08
2.10932e-10
3.72871e-08
6.90329e-10
3.61676e-08
1.11948e-09
3.46717e-08
1.49596e-09
3.28525e-08
1.81916e-09
3.07625e-08
2.09001e-09
2.84517e-08
2.31073e-09
2.59674e-08
2.48436e-09
2.33531e-08
2.61426e-09
2.06495e-08
2.70359e-09
1.7895e-08
2.75451e-09
1.51276e-08
2.76743e-09
1.23876e-08
2.74004e-09
9.72132e-09
2.66624e-09
7.18631e-09
2.53501e-09
4.85683e-09
2.32948e-09
2.82977e-09
2.02707e-09
1.22653e-09
1.60324e-09
1.83079e-10
1.04345e-09
-1.97893e-10
3.80972e-10
-1.97893e-10
-9.49316e-08
-2.33193e-08
-7.77075e-08
-2.38537e-08
-6.03271e-08
-2.40612e-08
-4.30228e-08
-2.39382e-08
-2.60255e-08
-2.34878e-08
-9.55903e-09
-2.27203e-08
6.16438e-09
-2.16532e-08
2.09494e-08
-2.03114e-08
3.46219e-08
-1.87259e-08
4.70328e-08
-1.69339e-08
5.80614e-08
-1.49765e-08
6.76177e-08
-1.2898e-08
7.56427e-08
-1.07438e-08
8.21094e-08
-8.55891e-09
8.70211e-08
-6.38688e-09
9.04099e-08
-4.26793e-09
9.23334e-08
-2.23792e-09
9.28717e-08
-3.27333e-10
9.2123e-08
1.43909e-09
9.01992e-08
3.04325e-09
8.72221e-08
4.47305e-09
8.33188e-08
5.72246e-09
7.86181e-08
6.79073e-09
7.32474e-08
7.68141e-09
6.73307e-08
8.40107e-09
6.09873e-08
8.95765e-09
5.43323e-08
9.35858e-09
4.74783e-08
9.60851e-09
4.05389e-08
9.70681e-09
3.36341e-08
9.64491e-09
2.68966e-08
9.40366e-09
2.04804e-08
8.95128e-09
1.45669e-08
8.24292e-09
9.36939e-09
7.22461e-09
5.12526e-09
5.84737e-09
2.07064e-09
4.09807e-09
3.87174e-10
2.06444e-09
1.89283e-10
-1.66199e-07
-4.85019e-08
-1.40419e-07
-4.9634e-08
-1.14357e-07
-5.01227e-08
-8.83372e-08
-4.99582e-08
-6.26806e-08
-4.91445e-08
-3.77022e-08
-4.76987e-08
-1.37033e-08
-4.56521e-08
9.03498e-09
-4.30496e-08
3.02579e-08
-3.99488e-08
4.97421e-08
-3.6418e-08
6.73003e-08
-3.25348e-08
8.27853e-08
-2.8383e-08
9.60913e-08
-2.40498e-08
1.07155e-07
-1.96231e-08
1.15958e-07
-1.51889e-08
1.22518e-07
-1.0828e-08
1.26894e-07
-6.61416e-09
1.29178e-07
-2.61162e-09
1.29491e-07
1.12583e-09
1.27978e-07
4.55642e-09
1.24801e-07
7.64994e-09
1.20136e-07
1.03879e-08
1.14165e-07
1.27621e-08
1.07073e-07
1.47732e-08
9.90457e-08
1.64283e-08
9.02658e-08
1.77375e-08
8.09135e-08
1.87109e-08
7.11679e-08
1.93541e-08
6.12109e-08
1.96638e-08
5.12327e-08
1.96231e-08
4.14388e-08
1.91976e-08
3.20572e-08
1.83328e-08
2.33446e-08
1.69555e-08
1.55871e-08
1.49822e-08
9.09199e-09
1.23425e-08
4.16601e-09
9.02405e-09
1.07323e-09
5.15722e-09
1.26251e-09
-2.46822e-07
-8.04946e-08
-2.14011e-07
-8.24447e-08
-1.80756e-07
-8.3378e-08
-1.47438e-07
-8.32756e-08
-1.14443e-07
-8.21396e-08
-8.215e-08
-7.9992e-08
-5.09253e-08
-7.68769e-08
-2.11161e-08
-7.28588e-08
6.9576e-09
-6.80225e-08
3.30096e-08
-6.247e-08
5.67918e-08
-5.6317e-08
7.81013e-08
-4.96924e-08
9.67817e-08
-4.27302e-08
1.12726e-07
-3.55678e-08
1.25879e-07
-2.83412e-08
1.36231e-07
-2.11806e-08
1.43824e-07
-1.42066e-08
1.48739e-07
-7.52714e-09
1.511e-07
-1.23457e-09
1.5106e-07
4.59599e-09
1.48803e-07
9.90734e-09
1.4453e-07
1.46601e-08
1.38461e-07
1.88313e-08
1.30822e-07
2.24122e-08
1.21846e-07
2.5405e-08
1.11765e-07
2.78178e-08
1.00816e-07
2.96599e-08
8.92351e-08
3.09353e-08
7.72626e-08
3.16363e-08
6.51486e-08
3.17371e-08
5.3158e-08
3.11882e-08
4.15769e-08
2.99139e-08
3.07179e-08
2.78145e-08
2.0922e-08
2.47781e-08
1.25557e-08
2.07087e-08
6.00455e-09
1.55752e-08
1.66815e-09
9.49361e-09
2.93066e-09
-3.39451e-07
-1.18164e-07
-3.00707e-07
-1.21189e-07
-2.61299e-07
-1.22786e-07
-2.2165e-07
-1.22925e-07
-1.82189e-07
-1.216e-07
-1.43346e-07
-1.18836e-07
-1.05538e-07
-1.14684e-07
-6.91683e-08
-1.09229e-07
-3.46126e-08
-1.02578e-07
-2.21553e-09
-9.48671e-08
2.77194e-08
-8.6252e-08
5.49312e-08
-7.69042e-08
7.92101e-08
-6.70091e-08
1.004e-07
-5.67572e-08
1.18398e-07
-4.63395e-08
1.33159e-07
-3.59417e-08
1.44691e-07
-2.57387e-08
1.53054e-07
-1.58899e-08
1.58354e-07
-6.53505e-09
1.60742e-07
2.2083e-09
1.60402e-07
1.02471e-08
1.5755e-07
1.75119e-08
1.52425e-07
2.3957e-08
1.4528e-07
2.95565e-08
1.36384e-07
3.43009e-08
1.26011e-07
3.81907e-08
1.14441e-07
4.12298e-08
1.01959e-07
4.34177e-08
8.8855e-08
4.47403e-08
7.543e-08
4.51622e-08
6.19985e-08
4.46197e-08
4.88952e-08
4.30172e-08
3.64801e-08
4.02297e-08
2.51433e-08
3.61148e-08
1.53117e-08
3.05403e-08
7.45784e-09
2.34291e-08
2.124e-09
1.48275e-08
5.05466e-09
-4.46469e-07
-1.60707e-07
-4.02535e-07
-1.65123e-07
-3.57645e-07
-1.67676e-07
-3.12255e-07
-1.68315e-07
-2.66829e-07
-1.67026e-07
-2.21838e-07
-1.63826e-07
-1.77747e-07
-1.58776e-07
-1.35007e-07
-1.51968e-07
-9.405e-08
-1.43536e-07
-5.52749e-08
-1.33642e-07
-1.90457e-08
-1.22481e-07
1.432e-08
-1.1027e-07
4.45546e-08
-9.72437e-08
7.14459e-08
-8.36485e-08
9.48405e-08
-6.97342e-08
1.14646e-07
-5.57468e-08
1.30829e-07
-4.19216e-08
1.43415e-07
-2.84765e-08
1.52487e-07
-1.56069e-08
1.58176e-07
-3.48085e-09
1.6066e-07
7.76339e-09
1.60154e-07
1.80181e-08
1.56905e-07
2.72054e-08
1.51188e-07
3.52743e-08
1.43292e-07
4.21962e-08
1.33525e-07
4.79576e-08
1.22203e-07
5.25519e-08
1.09651e-07
5.59699e-08
9.62024e-08
5.81889e-08
8.22016e-08
5.9163e-08
6.80071e-08
5.88142e-08
5.39969e-08
5.70275e-08
4.0575e-08
5.36515e-08
2.81809e-08
4.8509e-08
1.73025e-08
4.14187e-08
8.49911e-09
3.22324e-08
2.44093e-09
2.08856e-08
7.49558e-09
-5.6978e-07
-2.07579e-07
-5.21124e-07
-2.13779e-07
-4.7114e-07
-2.1766e-07
-4.2031e-07
-2.19146e-07
-3.69131e-07
-2.18204e-07
-3.18114e-07
-2.14844e-07
-2.67768e-07
-2.09122e-07
-2.18596e-07
-2.01141e-07
-1.71083e-07
-1.91049e-07
-1.25689e-07
-1.79036e-07
-8.28385e-08
-1.65332e-07
-4.29125e-08
-1.50196e-07
-6.24119e-09
-1.33915e-07
2.69027e-08
-1.16792e-07
5.63076e-08
-9.91391e-08
8.18268e-08
-8.1266e-08
1.0338e-07
-6.34746e-08
1.20951e-07
-4.60481e-08
1.34589e-07
-2.92448e-08
1.444e-07
-1.32917e-08
1.50545e-07
1.61843e-09
1.53232e-07
1.53316e-08
1.52709e-07
2.77282e-08
1.49259e-07
3.87241e-08
1.43192e-07
4.82636e-08
1.34837e-07
5.63125e-08
1.24541e-07
6.28479e-08
1.12663e-07
6.78476e-08
9.95747e-08
7.12772e-08
8.56593e-08
7.30784e-08
7.13156e-08
7.31579e-08
5.69628e-08
7.13803e-08
4.30485e-08
6.75658e-08
3.0061e-08
6.14965e-08
1.85484e-08
5.29314e-08
9.14802e-09
4.16328e-08
2.63295e-09
2.74007e-08
1.01285e-08
-7.10654e-07
-2.58429e-07
-6.5755e-07
-2.66883e-07
-6.02662e-07
-2.72548e-07
-5.46494e-07
-2.75313e-07
-4.89578e-07
-2.7512e-07
-4.32462e-07
-2.7196e-07
-3.75701e-07
-2.65882e-07
-3.19852e-07
-2.56989e-07
-2.6546e-07
-2.45441e-07
-2.13049e-07
-2.31448e-07
-1.63109e-07
-2.15271e-07
-1.16093e-07
-1.97212e-07
-7.23988e-08
-1.77609e-07
-3.2368e-08
-1.56823e-07
3.7233e-09
-1.3523e-07
3.56683e-08
-1.13211e-07
6.33314e-08
-9.11377e-08
8.66498e-08
-6.93665e-08
1.05631e-07
-4.82264e-08
1.20352e-07
-2.80121e-08
1.30949e-07
-8.97857e-09
1.37618e-07
8.66259e-09
1.40603e-07
2.47433e-08
1.4019e-07
3.91366e-08
1.36702e-07
5.1752e-08
1.30487e-07
6.25272e-08
1.21918e-07
7.14172e-08
1.11384e-07
7.83817e-08
9.929e-08
8.3371e-08
8.60567e-08
8.63117e-08
7.21212e-08
8.70934e-08
5.7943e-08
8.55584e-08
4.40132e-08
8.14957e-08
3.08679e-08
7.46417e-08
1.91108e-08
6.46885e-08
9.44469e-09
5.12989e-08
2.71754e-09
3.41279e-08
1.28461e-08
-9.75509e-07
-2.81516e-07
-9.24179e-07
-2.98673e-07
-8.69603e-07
-3.13004e-07
-8.1222e-07
-3.24266e-07
-7.52514e-07
-3.32254e-07
-6.91011e-07
-3.36817e-07
-6.2827e-07
-3.37861e-07
-5.64878e-07
-3.35352e-07
-5.0144e-07
-3.2932e-07
-4.38569e-07
-3.1986e-07
-3.76875e-07
-3.07135e-07
-3.16951e-07
-2.91372e-07
-2.59363e-07
-2.72858e-07
-2.04641e-07
-2.51935e-07
-1.53261e-07
-2.28989e-07
-1.05642e-07
-2.04443e-07
-6.21328e-08
-1.7874e-07
-2.30095e-08
-1.52334e-07
1.15307e-08
-1.25678e-07
4.13704e-08
-9.92062e-08
6.64715e-08
-7.33275e-08
8.68729e-08
-4.84135e-08
1.02686e-07
-2.47912e-08
1.14087e-07
-2.73892e-09
1.21313e-07
1.75171e-08
1.24652e-07
3.57982e-08
1.24433e-07
5.1971e-08
1.21022e-07
6.59375e-08
1.14815e-07
7.76241e-08
1.0623e-07
8.69674e-08
9.57026e-08
9.38981e-08
8.36898e-08
9.83245e-08
7.06665e-08
1.00117e-07
5.71329e-08
9.9092e-08
4.36225e-08
9.5006e-08
3.07176e-08
8.75466e-08
1.9071e-08
7.63352e-08
9.43689e-09
6.0933e-08
2.71216e-09
4.08526e-08
1.55582e-08
-1.25392e-06
-2.80384e-07
-1.20854e-06
-3.07186e-07
-1.15858e-06
-3.31467e-07
-1.10439e-06
-3.52873e-07
-1.04632e-06
-3.71072e-07
-9.84818e-07
-3.85765e-07
-9.20378e-07
-3.96694e-07
-8.53535e-07
-4.0366e-07
-7.84876e-07
-4.0652e-07
-7.15024e-07
-4.05204e-07
-6.44633e-07
-3.99711e-07
-5.74375e-07
-3.90118e-07
-5.04928e-07
-3.76582e-07
-4.36964e-07
-3.59337e-07
-3.71131e-07
-3.38691e-07
-3.08045e-07
-3.1502e-07
-2.48273e-07
-2.88761e-07
-1.9232e-07
-2.60396e-07
-1.4062e-07
-2.30439e-07
-9.35289e-08
-1.99426e-07
-5.13151e-08
-1.67892e-07
-1.41593e-08
-1.36362e-07
1.78475e-08
-1.05334e-07
4.47015e-08
-7.52674e-08
6.64817e-08
-4.65715e-08
8.33441e-08
-1.96013e-08
9.55144e-08
5.34683e-09
1.03278e-07
2.80344e-08
1.06973e-07
4.82757e-08
1.06982e-07
6.59294e-08
1.03719e-07
8.08866e-08
9.76314e-08
9.3055e-08
8.91882e-08
1.02341e-07
7.88809e-08
1.08632e-07
6.72231e-08
1.11774e-07
5.47554e-08
1.1156e-07
4.20537e-08
1.07708e-07
2.97433e-08
9.9857e-08
1.85195e-08
8.75589e-08
9.17494e-09
7.02776e-08
2.63362e-09
4.73939e-08
1.81919e-08
-1.45604e-06
-3.21565e-07
-1.40943e-06
-3.53793e-07
-1.35763e-06
-3.83271e-07
-1.30092e-06
-4.09579e-07
-1.23967e-06
-4.32321e-07
-1.1743e-06
-4.51134e-07
-1.1053e-06
-4.657e-07
-1.0332e-06
-4.75756e-07
-9.58617e-07
-4.81103e-07
-8.82204e-07
-4.81617e-07
-8.04658e-07
-4.77256e-07
-7.26712e-07
-4.68065e-07
-6.49113e-07
-4.54181e-07
-5.72615e-07
-4.35834e-07
-4.9796e-07
-4.13346e-07
-4.25859e-07
-3.87121e-07
-3.5698e-07
-3.5764e-07
-2.9193e-07
-3.25445e-07
-2.31243e-07
-2.91126e-07
-1.75366e-07
-2.55302e-07
-1.24654e-07
-2.18604e-07
-7.93607e-08
-1.81655e-07
-3.96409e-08
-1.45054e-07
-5.54906e-09
-1.09359e-07
2.29559e-08
-7.50765e-08
4.60044e-08
-4.26498e-08
6.3808e-08
-1.24567e-08
7.66497e-08
1.51927e-08
8.48743e-08
4.00511e-08
8.88784e-08
6.19254e-08
8.91011e-08
8.06639e-08
8.60166e-08
9.61395e-08
8.01278e-08
1.0823e-07
7.19629e-08
1.16797e-07
6.20754e-08
1.21662e-07
5.10468e-08
1.22588e-07
3.94949e-08
1.1926e-07
2.80854e-08
1.11267e-07
1.75502e-08
9.80941e-08
8.70948e-09
7.91183e-08
2.49808e-09
5.36053e-08
2.06899e-08
-1.67091e-06
-3.6286e-07
-1.62359e-06
-4.01109e-07
-1.57045e-06
-4.36419e-07
-1.51172e-06
-4.68303e-07
-1.44774e-06
-4.96299e-07
-1.37891e-06
-5.19972e-07
-1.30567e-06
-5.38933e-07
-1.22859e-06
-5.52845e-07
-1.14825e-06
-5.61438e-07
-1.06535e-06
-5.64522e-07
-9.80606e-07
-5.61995e-07
-8.94816e-07
-5.53855e-07
-8.08793e-07
-5.40203e-07
-7.23376e-07
-5.21252e-07
-6.39403e-07
-4.97319e-07
-5.57694e-07
-4.6883e-07
-4.79031e-07
-4.36303e-07
-4.04139e-07
-4.00338e-07
-3.33666e-07
-3.61599e-07
-2.68171e-07
-3.20798e-07
-2.0811e-07
-2.78665e-07
-1.53828e-07
-2.35937e-07
-1.05558e-07
-1.93324e-07
-6.34152e-08
-1.51502e-07
-2.74063e-08
-1.11085e-07
2.56737e-09
-7.26235e-08
2.66994e-08
-3.65887e-08
4.52681e-08
-3.37603e-09
5.86246e-08
2.66946e-08
6.71817e-08
5.33682e-08
7.1403e-08
7.64426e-08
7.17932e-08
9.57493e-08
6.88909e-08
1.11132e-07
6.32639e-08
1.22424e-07
5.55071e-08
1.29419e-07
4.62445e-08
1.31851e-07
3.61355e-08
1.29369e-07
2.58848e-08
1.21517e-07
1.62562e-08
1.07723e-07
8.08991e-09
8.72845e-08
2.32094e-09
5.93743e-08
2.30109e-08
-1.89519e-06
-4.03681e-07
-1.84779e-06
-4.48508e-07
-1.79395e-06
-4.90262e-07
-1.73387e-06
-5.28388e-07
-1.66781e-06
-5.62355e-07
-1.59613e-06
-5.91654e-07
-1.51925e-06
-6.15813e-07
-1.43768e-06
-6.34412e-07
-1.35202e-06
-6.47097e-07
-1.26295e-06
-6.53593e-07
-1.17122e-06
-6.53722e-07
-1.07766e-06
-6.47413e-07
-9.83157e-07
-6.34711e-07
-8.88618e-07
-6.1579e-07
-7.94987e-07
-5.9095e-07
-7.032e-07
-5.60617e-07
-6.14165e-07
-5.25338e-07
-5.28741e-07
-4.85761e-07
-4.47713e-07
-4.42627e-07
-3.71772e-07
-3.96739e-07
-3.01499e-07
-3.48939e-07
-2.37351e-07
-3.00085e-07
-1.79656e-07
-2.51019e-07
-1.28611e-07
-2.02547e-07
-8.42811e-08
-1.55415e-07
-4.66104e-08
-1.10294e-07
-1.54295e-08
-6.77696e-08
9.53126e-09
-2.83368e-08
2.86288e-08
7.5971e-09
4.22928e-08
3.97042e-08
5.10135e-08
6.77219e-08
5.53296e-08
9.14332e-08
5.58189e-08
1.10643e-07
5.30918e-08
1.25151e-07
4.77878e-08
1.34723e-07
4.05758e-08
1.39063e-07
3.21579e-08
1.37787e-07
2.32769e-08
1.30398e-07
1.47265e-08
1.16273e-07
7.36309e-09
9.46479e-08
2.11662e-09
6.46208e-08
2.51275e-08
-2.1246e-06
-4.43347e-07
-2.07788e-06
-4.95235e-07
-2.02415e-06
-5.43983e-07
-1.96357e-06
-5.88973e-07
-1.89632e-06
-6.29605e-07
-1.82268e-06
-6.6529e-07
-1.74303e-06
-6.95472e-07
-1.6578e-06
-7.19635e-07
-1.56757e-06
-7.37327e-07
-1.47299e-06
-7.48176e-07
-1.37481e-06
-7.51903e-07
-1.27388e-06
-7.48345e-07
-1.17112e-06
-7.3747e-07
-1.06753e-06
-7.19383e-07
-9.64132e-07
-6.94343e-07
-8.61993e-07
-6.62756e-07
-7.62155e-07
-6.25176e-07
-6.65626e-07
-5.8229e-07
-5.73349e-07
-5.34904e-07
-4.86174e-07
-4.83914e-07
-4.04832e-07
-4.30281e-07
-3.29922e-07
-3.74995e-07
-2.61895e-07
-3.19046e-07
-2.01049e-07
-2.63393e-07
-1.47531e-07
-2.08933e-07
-1.01342e-07
-1.56483e-07
-6.23472e-08
-1.06764e-07
-3.02924e-08
-6.03916e-08
-4.81816e-09
-1.78771e-08
1.45225e-08
2.03635e-08
2.82487e-08
5.39958e-08
3.69365e-08
8.27454e-08
4.12076e-08
1.06372e-07
4.17195e-08
1.24639e-07
3.91608e-08
1.37282e-07
3.42483e-08
1.43975e-07
2.77294e-08
1.44305e-07
2.03864e-08
1.37741e-07
1.30431e-08
1.23616e-07
6.57197e-09
1.01119e-07
1.89831e-09
6.92944e-08
2.70258e-08
-2.35402e-06
-4.81093e-07
-2.30884e-06
-5.40414e-07
-2.25622e-06
-5.96605e-07
-2.1962e-06
-6.48995e-07
-2.12889e-06
-6.96918e-07
-2.05447e-06
-7.39708e-07
-1.97322e-06
-7.7672e-07
-1.88552e-06
-8.0734e-07
-1.79184e-06
-8.31005e-07
-1.69279e-06
-8.47226e-07
-1.58908e-06
-8.55606e-07
-1.48156e-06
-8.55866e-07
-1.37117e-06
-8.47862e-07
-1.25895e-06
-8.31605e-07
-1.14602e-06
-8.07276e-07
-1.03354e-06
-7.75232e-07
-9.22709e-07
-7.36008e-07
-8.14693e-07
-6.90306e-07
-7.10614e-07
-6.38983e-07
-6.11506e-07
-5.83022e-07
-5.18287e-07
-5.235e-07
-4.31729e-07
-4.61553e-07
-3.5244e-07
-3.98335e-07
-2.80853e-07
-3.3498e-07
-2.17223e-07
-2.72563e-07
-1.61631e-07
-2.12075e-07
-1.13995e-07
-1.544e-07
-7.40883e-08
-1.00299e-07
-4.15543e-08
-5.04111e-08
-1.5931e-08
-5.25975e-09
3.33053e-09
3.47342e-08
1.68478e-08
6.92281e-08
2.52912e-08
9.79286e-08
2.93713e-08
1.20559e-07
2.98308e-08
1.36822e-07
2.74398e-08
1.46366e-07
2.29952e-08
1.4875e-07
1.73222e-08
1.43414e-07
1.12779e-08
1.29661e-07
5.75428e-09
1.06643e-07
1.67756e-09
7.33712e-08
2.87034e-08
-2.57763e-06
-5.16109e-07
-2.53497e-06
-5.8308e-07
-2.48455e-06
-6.47023e-07
-2.42633e-06
-7.07218e-07
-2.3603e-06
-7.62946e-07
-2.28653e-06
-8.13472e-07
-2.20519e-06
-8.58063e-07
-2.11653e-06
-8.96004e-07
-2.02092e-06
-9.26615e-07
-1.91886e-06
-9.49278e-07
-1.81101e-06
-9.63457e-07
-1.69815e-06
-9.6873e-07
-1.5812e-06
-9.6481e-07
-1.46123e-06
-9.51579e-07
-1.3394e-06
-9.29101e-07
-1.21699e-06
-8.97643e-07
-1.09532e-06
-8.57682e-07
-9.75719e-07
-8.09905e-07
-8.59512e-07
-7.5519e-07
-7.47943e-07
-6.94591e-07
-6.42146e-07
-6.29296e-07
-5.43109e-07
-5.60591e-07
-4.51638e-07
-4.89806e-07
-3.68344e-07
-4.18274e-07
-2.93626e-07
-3.4728e-07
-2.27681e-07
-2.78021e-07
-1.70504e-07
-2.11577e-07
-1.21914e-07
-1.48889e-07
-8.15702e-08
-9.07546e-08
-4.90022e-08
-3.78277e-08
-2.36314e-08
9.36345e-09
-4.79637e-09
5.0393e-08
8.22705e-09
8.49052e-08
1.6209e-08
1.12577e-07
1.99534e-08
1.33078e-07
2.02903e-08
1.46029e-07
1.80723e-08
1.50968e-07
1.41734e-08
1.47313e-07
9.49015e-09
1.34344e-07
4.9413e-09
1.11192e-07
1.46398e-09
7.68485e-08
3.01673e-08
-2.78913e-06
-5.47591e-07
-2.74997e-06
-6.22247e-07
-2.70292e-06
-6.94066e-07
-2.64784e-06
-7.623e-07
-2.5846e-06
-8.26189e-07
-2.51313e-06
-8.8494e-07
-2.43345e-06
-9.37744e-07
-2.34567e-06
-9.83788e-07
-2.25001e-06
-1.02228e-06
-2.14684e-06
-1.05245e-06
-2.03668e-06
-1.07362e-06
-1.92021e-06
-1.0852e-06
-1.7983e-06
-1.08672e-06
-1.67197e-06
-1.07791e-06
-1.54242e-06
-1.05865e-06
-1.41097e-06
-1.02909e-06
-1.27906e-06
-9.89595e-07
-1.14818e-06
-9.40781e-07
-1.01986e-06
-8.83514e-07
-8.95563e-07
-8.18885e-07
-7.76685e-07
-7.48174e-07
-6.64465e-07
-6.7281e-07
-5.59959e-07
-5.94312e-07
-4.64004e-07
-5.1423e-07
-3.77196e-07
-4.34088e-07
-2.99889e-07
-3.55329e-07
-2.32194e-07
-2.79271e-07
-1.74007e-07
-2.07077e-07
-1.25022e-07
-1.39739e-07
-8.47724e-08
-7.80774e-08
-5.26552e-08
-2.27538e-08
-2.79646e-08
2.57024e-08
-9.91809e-09
6.68587e-08
2.32071e-09
1.00338e-07
9.62517e-09
1.25773e-07
1.28938e-08
1.42761e-07
1.30433e-08
1.50819e-07
1.10051e-08
1.49351e-07
7.72411e-09
1.37625e-07
4.15672e-09
1.14759e-07
1.26492e-09
7.97403e-08
3.14323e-08
-2.98207e-06
-5.74816e-07
-2.94734e-06
-6.56982e-07
-2.90482e-06
-7.36589e-07
-2.85423e-06
-8.12883e-07
-2.79534e-06
-8.85083e-07
-2.72792e-06
-9.52358e-07
-2.65183e-06
-1.01384e-06
-2.567e-06
-1.06862e-06
-2.47347e-06
-1.1158e-06
-2.37143e-06
-1.15449e-06
-2.26122e-06
-1.18382e-06
-2.14338e-06
-1.20304e-06
-2.01863e-06
-1.21147e-06
-1.88791e-06
-1.20862e-06
-1.75238e-06
-1.19419e-06
-1.61336e-06
-1.16811e-06
-1.47237e-06
-1.13059e-06
-1.33104e-06
-1.08211e-06
-1.19107e-06
-1.02348e-06
-1.05418e-06
-9.55777e-07
-9.22022e-07
-8.80328e-07
-7.96145e-07
-7.98688e-07
-6.77898e-07
-7.12558e-07
-5.68406e-07
-6.23722e-07
-4.68521e-07
-5.33972e-07
-3.78813e-07
-4.45037e-07
-2.99563e-07
-3.5852e-07
-2.30782e-07
-2.75858e-07
-1.72235e-07
-1.98286e-07
-1.23478e-07
-1.26834e-07
-8.38967e-08
-6.23352e-08
-5.27443e-08
-5.45002e-09
-2.91779e-08
4.32923e-08
-1.22884e-08
8.34486e-08
-1.12404e-09
1.14609e-07
5.29221e-09
1.36344e-07
7.95196e-09
1.48159e-07
7.85519e-09
1.49448e-07
6.0072e-09
1.39473e-07
3.41574e-09
1.1735e-07
1.08522e-09
8.20708e-08
3.25175e-08
-3.15027e-06
-5.97215e-07
-3.12076e-06
-6.86495e-07
-3.08378e-06
-7.73574e-07
-3.03895e-06
-8.57711e-07
-2.9859e-06
-9.38133e-07
-2.92427e-06
-1.01399e-06
-2.85373e-06
-1.08438e-06
-2.77402e-06
-1.14833e-06
-2.68499e-06
-1.20484e-06
-2.58658e-06
-1.25289e-06
-2.47893e-06
-1.29147e-06
-2.36236e-06
-1.31962e-06
-2.23739e-06
-1.33644e-06
-2.1048e-06
-1.34121e-06
-1.96563e-06
-1.33336e-06
-1.82115e-06
-1.31259e-06
-1.67288e-06
-1.27885e-06
-1.52254e-06
-1.23246e-06
-1.37197e-06
-1.17405e-06
-1.22312e-06
-1.10462e-06
-1.07794e-06
-1.02551e-06
-9.38276e-07
-9.38348e-07
-8.05843e-07
-8.44991e-07
-6.82106e-07
-7.47459e-07
-5.68246e-07
-6.47832e-07
-4.65121e-07
-5.48162e-07
-3.73246e-07
-4.50395e-07
-2.9281e-07
-3.56295e-07
-2.23692e-07
-2.67404e-07
-1.65508e-07
-1.85019e-07
-1.17651e-07
-1.10191e-07
-7.93469e-08
-4.37545e-08
-4.96926e-08
1.36381e-08
-2.77022e-08
6.14581e-08
-1.23366e-08
9.92433e-08
-2.52887e-09
1.26537e-07
2.80009e-09
1.4283e-07
4.73246e-09
1.47516e-07
4.34863e-09
1.39857e-07
2.7245e-09
1.18975e-07
9.27059e-10
8.38682e-08
3.34445e-08
-3.28834e-06
-6.14442e-07
-3.2646e-06
-7.10227e-07
-3.23395e-06
-8.04228e-07
-3.19591e-06
-8.95747e-07
-3.15001e-06
-9.84038e-07
-3.09573e-06
-1.06827e-06
-3.03259e-06
-1.14752e-06
-2.96012e-06
-1.22079e-06
-2.87795e-06
-1.28701e-06
-2.78578e-06
-1.34506e-06
-2.68347e-06
-1.39378e-06
-2.57109e-06
-1.432e-06
-2.44889e-06
-1.45864e-06
-2.31743e-06
-1.47267e-06
-2.17753e-06
-1.47326e-06
-2.03033e-06
-1.45979e-06
-1.87725e-06
-1.43193e-06
-1.72002e-06
-1.38969e-06
-1.56058e-06
-1.33349e-06
-1.40106e-06
-1.26414e-06
-1.24366e-06
-1.18291e-06
-1.09058e-06
-1.09143e-06
-9.43905e-07
-9.9167e-07
-8.05503e-07
-8.85861e-07
-6.76959e-07
-7.76376e-07
-5.59498e-07
-6.65623e-07
-4.53956e-07
-5.55937e-07
-3.60772e-07
-4.49479e-07
-2.80007e-07
-3.48169e-07
-2.11386e-07
-2.5364e-07
-1.54347e-07
-1.6723e-07
-1.08105e-07
-8.99962e-08
-7.17091e-08
-2.27578e-08
-4.4095e-08
3.38441e-08
-2.41288e-08
7.92771e-08
-1.06422e-08
1.1305e-07
-2.45423e-09
1.34642e-07
1.61523e-09
1.43446e-07
2.73885e-09
1.38733e-07
2.07975e-09
1.19634e-07
7.89851e-10
8.51582e-08
3.42344e-08
-3.39215e-06
-6.26415e-07
-3.37447e-06
-7.27911e-07
-3.35062e-06
-8.28076e-07
-3.32009e-06
-9.26277e-07
-3.2823e-06
-1.02183e-06
-3.23663e-06
-1.11394e-06
-3.18244e-06
-1.20171e-06
-3.11908e-06
-1.28415e-06
-3.04594e-06
-1.36015e-06
-2.96249e-06
-1.42851e-06
-2.8683e-06
-1.48797e-06
-2.76311e-06
-1.53719e-06
-2.6469e-06
-1.57485e-06
-2.51987e-06
-1.59969e-06
-2.38259e-06
-1.61055e-06
-2.23593e-06
-1.60645e-06
-2.08115e-06
-1.58671e-06
-1.91986e-06
-1.55098e-06
-1.75401e-06
-1.49934e-06
-1.58582e-06
-1.43233e-06
-1.41771e-06
-1.35102e-06
-1.2522e-06
-1.25695e-06
-1.09174e-06
-1.15212e-06
-9.3868e-07
-1.03893e-06
-7.95051e-07
-9.20005e-07
-6.62539e-07
-7.98135e-07
-5.42393e-07
-6.76083e-07
-4.35397e-07
-5.56474e-07
-3.41879e-07
-4.41687e-07
-2.61742e-07
-3.33778e-07
-1.94522e-07
-2.3445e-07
-1.3946e-07
-1.45058e-07
-9.55737e-08
-6.66443e-08
-6.17283e-08
-1.26353e-12
-3.66893e-08
5.42381e-08
-1.91779e-08
9.55388e-08
-7.89598e-09
1.2336e-07
-1.54818e-09
1.37099e-07
1.14971e-09
1.36035e-07
1.46906e-09
1.19314e-07
6.70333e-10
8.59569e-08
3.49047e-08
-3.4593e-06
-6.33334e-07
-3.44761e-06
-7.39606e-07
-3.43067e-06
-8.45008e-07
-3.40796e-06
-9.48994e-07
-3.37882e-06
-1.05096e-06
-3.34257e-06
-1.15019e-06
-3.29844e-06
-1.24584e-06
-3.24562e-06
-1.33697e-06
-3.18332e-06
-1.42246e-06
-3.11073e-06
-1.5011e-06
-3.02717e-06
-1.57153e-06
-2.93204e-06
-1.63231e-06
-2.82497e-06
-1.68193e-06
-2.7058e-06
-1.71886e-06
-2.57472e-06
-1.74163e-06
-2.43226e-06
-1.74891e-06
-2.27938e-06
-1.73959e-06
-2.11748e-06
-1.71288e-06
-1.94837e-06
-1.66845e-06
-1.77427e-06
-1.60643e-06
-1.59772e-06
-1.52757e-06
-1.42148e-06
-1.43319e-06
-1.24839e-06
-1.32521e-06
-1.08123e-06
-1.20609e-06
-9.22563e-07
-1.07867e-06
-7.74613e-07
-9.46086e-07
-6.39138e-07
-8.11558e-07
-5.17378e-07
-6.78234e-07
-4.10029e-07
-5.49035e-07
-3.17266e-07
-4.26541e-07
-2.38797e-07
-3.1292e-07
-1.73941e-07
-2.09914e-07
-1.2172e-07
-1.18866e-07
-8.09383e-08
-4.07829e-08
-5.02722e-08
2.3572e-08
-2.8319e-08
7.35855e-08
-1.36502e-08
1.08691e-07
-4.83736e-09
1.28286e-07
-4.6448e-10
1.31662e-07
8.71423e-10
1.17978e-07
5.62739e-10
8.62656e-08
3.54675e-08
-3.48935e-06
-6.35666e-07
-3.48326e-06
-7.45698e-07
-3.47297e-06
-8.553e-07
-3.45794e-06
-9.64028e-07
-3.43751e-06
-1.07138e-06
-3.41096e-06
-1.17674e-06
-3.37744e-06
-1.27937e-06
-3.33603e-06
-1.37837e-06
-3.28577e-06
-1.47272e-06
-3.22567e-06
-1.5612e-06
-3.15476e-06
-1.64244e-06
-3.07214e-06
-1.71493e-06
-2.97707e-06
-1.777e-06
-2.86899e-06
-1.82693e-06
-2.74766e-06
-1.86296e-06
-2.6132e-06
-1.88338e-06
-2.46614e-06
-1.88664e-06
-2.30752e-06
-1.8715e-06
-2.13891e-06
-1.83706e-06
-1.96237e-06
-1.78298e-06
-1.78041e-06
-1.70953e-06
-1.59594e-06
-1.61766e-06
-1.4121e-06
-1.50906e-06
-1.2321e-06
-1.38609e-06
-1.05903e-06
-1.25174e-06
-8.95718e-07
-1.1094e-06
-7.44526e-07
-9.6275e-07
-6.07263e-07
-8.15497e-07
-4.85116e-07
-6.71182e-07
-3.78644e-07
-5.33013e-07
-2.87824e-07
-4.0374e-07
-2.12131e-07
-2.85607e-07
-1.50638e-07
-1.80358e-07
-1.02127e-07
-8.92937e-08
-6.51868e-08
-1.33684e-08
-3.82937e-08
4.66924e-08
-1.98767e-08
9.02743e-08
-8.35617e-09
1.16765e-07
-2.16312e-09
1.25469e-07
2.57596e-10
1.15558e-07
4.59136e-10
8.6064e-08
3.59266e-08
-3.48388e-06
-6.34094e-07
-3.48272e-06
-7.46855e-07
-3.47844e-06
-8.59578e-07
-3.47054e-06
-9.71932e-07
-3.45839e-06
-1.08353e-06
-3.44126e-06
-1.19387e-06
-3.41828e-06
-1.30234e-06
-3.38849e-06
-1.40816e-06
-3.35081e-06
-1.5104e-06
-3.30411e-06
-1.60791e-06
-3.24719e-06
-1.69936e-06
-3.17889e-06
-1.78323e-06
-3.09811e-06
-1.85778e-06
-3.0039e-06
-1.92114e-06
-2.89556e-06
-1.9713e-06
-2.77271e-06
-2.00622e-06
-2.6354e-06
-2.02395e-06
-2.4842e-06
-2.0227e-06
-2.32023e-06
-2.00102e-06
-2.14525e-06
-1.95796e-06
-1.96161e-06
-1.89317e-06
-1.77219e-06
-1.80708e-06
-1.58029e-06
-1.70095e-06
-1.38947e-06
-1.57691e-06
-1.20335e-06
-1.43786e-06
-1.02535e-06
-1.2874e-06
-8.5852e-07
-1.12958e-06
-7.05351e-07
-9.68667e-07
-5.67646e-07
-8.08887e-07
-4.46486e-07
-6.54173e-07
-3.42235e-07
-5.0799e-07
-2.54624e-07
-3.73218e-07
-1.82855e-07
-2.52127e-07
-1.25731e-07
-1.46418e-07
-8.17803e-08
-5.73191e-08
-4.93643e-08
1.42764e-08
-2.67623e-08
6.76723e-08
-1.2228e-08
1.02231e-07
-4.01945e-09
1.17261e-07
-4.04448e-10
1.11943e-07
3.5015e-10
8.53094e-08
3.62768e-08
-3.44628e-06
-6.29444e-07
-3.44918e-06
-7.43956e-07
-3.45e-06
-8.58755e-07
-3.44831e-06
-9.73619e-07
-3.44356e-06
-1.08828e-06
-3.43505e-06
-1.20238e-06
-3.42196e-06
-1.31543e-06
-3.40332e-06
-1.42681e-06
-3.37802e-06
-1.53569e-06
-3.34484e-06
-1.64109e-06
-3.30245e-06
-1.74176e-06
-3.24946e-06
-1.83622e-06
-3.18448e-06
-1.92276e-06
-3.1062e-06
-1.99942e-06
-3.01347e-06
-2.06403e-06
-2.9054e-06
-2.1143e-06
-2.78147e-06
-2.14788e-06
-2.64169e-06
-2.16249e-06
-2.48663e-06
-2.15608e-06
-2.31757e-06
-2.12702e-06
-2.13647e-06
-2.07426e-06
-1.94603e-06
-1.99753e-06
-1.74953e-06
-1.89745e-06
-1.55074e-06
-1.7757e-06
-1.35368e-06
-1.63492e-06
-1.16238e-06
-1.4787e-06
-9.80592e-07
-1.31137e-06
-8.11573e-07
-1.13769e-06
-6.57877e-07
-9.62583e-07
-5.21244e-07
-7.90806e-07
-4.02575e-07
-6.26659e-07
-3.0198e-07
-4.73813e-07
-2.1889e-07
-3.35217e-07
-1.522e-07
-2.13108e-07
-1.00419e-07
-1.09099e-07
-6.1813e-08
-2.43301e-08
-3.45109e-08
4.03702e-08
-1.65891e-08
8.43092e-08
-6.11379e-09
1.06785e-07
-1.1547e-09
1.06984e-07
2.24881e-10
8.39299e-08
3.65016e-08
-3.38137e-06
-6.22604e-07
-3.38732e-06
-7.38001e-07
-3.39216e-06
-8.53923e-07
-3.39552e-06
-9.70257e-07
-3.39694e-06
-1.08686e-06
-3.39584e-06
-1.20349e-06
-3.39146e-06
-1.31981e-06
-3.3829e-06
-1.43537e-06
-3.36908e-06
-1.54951e-06
-3.34878e-06
-1.66139e-06
-3.32059e-06
-1.76994e-06
-3.28301e-06
-1.8738e-06
-3.23443e-06
-1.97134e-06
-3.17324e-06
-2.06061e-06
-3.09789e-06
-2.13938e-06
-3.00699e-06
-2.20519e-06
-2.89948e-06
-2.25539e-06
-2.7747e-06
-2.28726e-06
-2.6326e-06
-2.29818e-06
-2.47381e-06
-2.28582e-06
-2.29975e-06
-2.24832e-06
-2.11268e-06
-2.18459e-06
-1.91567e-06
-2.09446e-06
-1.7125e-06
-1.97887e-06
-1.50744e-06
-1.83998e-06
-1.305e-06
-1.68114e-06
-1.10963e-06
-1.50673e-06
-9.25401e-07
-1.32191e-06
-7.55721e-07
-1.13226e-06
-6.03135e-07
-9.43392e-07
-4.69237e-07
-7.60557e-07
-3.54669e-07
-5.88381e-07
-2.59218e-07
-4.30668e-07
-1.81966e-07
-2.9036e-07
-1.21469e-07
-1.69597e-07
-7.59269e-08
-6.98721e-08
-4.33333e-08
7.77663e-09
-2.15813e-08
6.25572e-08
-8.53076e-09
9.37348e-08
-2.03367e-09
1.00486e-07
7.24526e-11
8.18237e-08
3.65741e-08
-3.29487e-06
-6.1444e-07
-3.30286e-06
-7.30008e-07
-3.31053e-06
-8.46254e-07
-3.31763e-06
-9.63153e-07
-3.32382e-06
-1.08067e-06
-3.32862e-06
-1.19869e-06
-3.33139e-06
-1.31704e-06
-3.33136e-06
-1.4354e-06
-3.32755e-06
-1.55332e-06
-3.31878e-06
-1.67016e-06
-3.3037e-06
-1.78502e-06
-3.28075e-06
-1.89675e-06
-3.24822e-06
-2.00387e-06
-3.20428e-06
-2.10454e-06
-3.14708e-06
-2.19659e-06
-3.0748e-06
-2.27747e-06
-2.98584e-06
-2.34435e-06
-2.87893e-06
-2.39417e-06
-2.75328e-06
-2.42383e-06
-2.6088e-06
-2.4303e-06
-2.44618e-06
-2.41094e-06
-2.26707e-06
-2.3637e-06
-2.07408e-06
-2.28745e-06
-1.87072e-06
-2.18223e-06
-1.66131e-06
-2.04939e-06
-1.45069e-06
-1.89177e-06
-1.24389e-06
-1.71353e-06
-1.04577e-06
-1.52003e-06
-8.60671e-07
-1.31736e-06
-6.92065e-07
-1.112e-06
-5.42401e-07
-9.10222e-07
-4.13024e-07
-7.17759e-07
-3.0423e-07
-5.39462e-07
-2.15415e-07
-3.79174e-07
-1.45269e-07
-2.39743e-07
-9.19822e-08
-1.23159e-07
-5.34359e-08
-3.07696e-08
-2.73452e-08
3.64665e-08
-1.13542e-08
7.77438e-08
-3.08104e-09
9.22133e-08
-1.19498e-10
7.88622e-08
3.64546e-08
-3.1928e-06
-6.05727e-07
-3.20188e-06
-7.20935e-07
-3.21125e-06
-8.36882e-07
-3.22078e-06
-9.53622e-07
-3.23024e-06
-1.0712e-06
-3.2393e-06
-1.18964e-06
-3.24746e-06
-1.30887e-06
-3.25411e-06
-1.42875e-06
-3.25841e-06
-1.54902e-06
-3.25933e-06
-1.66924e-06
-3.25561e-06
-1.78875e-06
-3.24575e-06
-1.90661e-06
-3.22803e-06
-2.02159e-06
-3.20055e-06
-2.13203e-06
-3.16122e-06
-2.23591e-06
-3.10795e-06
-2.33075e-06
-3.03865e-06
-2.41365e-06
-2.95147e-06
-2.48135e-06
-2.84493e-06
-2.53037e-06
-2.71814e-06
-2.55709e-06
-2.57097e-06
-2.55811e-06
-2.40426e-06
-2.53041e-06
-2.21991e-06
-2.4718e-06
-2.02095e-06
-2.38119e-06
-1.81145e-06
-2.2589e-06
-1.59631e-06
-2.10691e-06
-1.38099e-06
-1.92886e-06
-1.17105e-06
-1.72996e-06
-9.71741e-07
-1.51667e-06
-7.87564e-07
-1.29617e-06
-6.21969e-07
-1.07582e-06
-4.77184e-07
-8.62544e-07
-3.54192e-07
-6.62453e-07
-2.52855e-07
-4.80511e-07
-1.72114e-07
-3.20485e-07
-1.10228e-07
-1.85044e-07
-6.50105e-08
-7.59876e-08
-3.40133e-08
5.46932e-09
-1.46637e-08
5.83942e-08
-4.33444e-09
8.1884e-08
-3.59661e-10
7.48874e-08
3.60949e-08
-3.08098e-06
-5.97097e-07
-3.09031e-06
-7.11603e-07
-3.10037e-06
-8.26828e-07
-3.1111e-06
-9.42885e-07
-3.12242e-06
-1.05989e-06
-3.13411e-06
-1.17795e-06
-3.14586e-06
-1.29711e-06
-3.15721e-06
-1.4174e-06
-3.16753e-06
-1.53871e-06
-3.17595e-06
-1.66081e-06
-3.1814e-06
-1.7833e-06
-3.18252e-06
-1.90549e-06
-3.17769e-06
-2.02642e-06
-3.16501e-06
-2.14471e-06
-3.14235e-06
-2.25857e-06
-3.1074e-06
-2.3657e-06
-3.05776e-06
-2.46329e-06
-2.99108e-06
-2.54803e-06
-2.90527e-06
-2.61619e-06
-2.79863e-06
-2.66373e-06
-2.67017e-06
-2.68656e-06
-2.5198e-06
-2.68078e-06
-2.34854e-06
-2.64307e-06
-2.15864e-06
-2.57109e-06
-1.95363e-06
-2.46391e-06
-1.73822e-06
-2.32232e-06
-1.51799e-06
-2.14908e-06
-1.29904e-06
-1.94891e-06
-1.08744e-06
-1.72827e-06
-8.88748e-07
-1.49487e-06
-7.07528e-07
-1.25704e-06
-5.47062e-07
-1.02301e-06
-4.09214e-07
-8.00301e-07
-2.94492e-07
-5.95233e-07
-2.02235e-07
-4.12742e-07
-1.30877e-07
-2.56402e-07
-7.82255e-08
-1.28639e-07
-4.17044e-08