/*--------------------------------*- C++ -*----------------------------------*\
  =========                 |
  \\      /  F ield         | OpenFOAM: The Open Source CFD Toolbox
   \\    /   O peration     | Website:  https://openfoam.org
    \\  /    A nd           | Version:  9
     \\/     M anipulation  |
\*---------------------------------------------------------------------------*/
FoamFile
{
    format      ascii;
    class       volVectorField;
    location    "1.5";
    object      U;
}
// * * * * * * * * * * * * * * * * * * * * * * * * * * * * * * * * * * * * * //

dimensions      [0 1 -1 0 0 0 0];

internalField   nonuniform List<vector> 
1240
(
(-0.00335863 -0.000191122 0)
(-0.0027011 -0.000195591 0)
(-0.00203345 -0.000196856 0)
(-0.00136558 -0.000194922 0)
(-0.000707283 -0.00018986 0)
(-6.80744e-05 -0.0001818 0)
(0.000542955 -0.000170955 0)
(0.00111741 -0.000157605 0)
(0.00164784 -0.000142123 0)
(0.00212784 -0.000124925 0)
(0.00255229 -0.000106466 0)
(0.00291739 -8.72209e-05 0)
(0.00322073 -6.76634e-05 0)
(0.00346131 -4.82471e-05 0)
(0.00363945 -2.93897e-05 0)
(0.00375668 -1.14577e-05 0)
(0.00381566 5.24303e-06 0)
(0.00381997 2.04752e-05 0)
(0.0037739 3.40723e-05 0)
(0.00368232 4.59412e-05 0)
(0.0035504 5.60539e-05 0)
(0.00338348 6.44438e-05 0)
(0.00318687 7.11952e-05 0)
(0.00296572 7.64322e-05 0)
(0.00272491 8.0304e-05 0)
(0.00246897 8.29683e-05 0)
(0.00220212 8.45713e-05 0)
(0.00192826 8.52227e-05 0)
(0.00165119 8.49656e-05 0)
(0.00137475 8.37375e-05 0)
(0.00110319 8.13208e-05 0)
(0.000841611 7.72799e-05 0)
(0.00059652 7.08859e-05 0)
(0.000376475 6.10661e-05 0)
(0.000192472 4.65079e-05 0)
(5.72249e-05 2.61902e-05 0)
(-1.55148e-05 1.3303e-06 0)
(-1.72348e-05 -1.72846e-05 0)
(-0.0103469 -0.00124037 0)
(-0.00863862 -0.0012688 0)
(-0.00690298 -0.00127895 0)
(-0.00516327 -0.00127064 0)
(-0.00344285 -0.00124412 0)
(-0.00176451 -0.00120003 0)
(-0.00015018 -0.00113941 0)
(0.00137964 -0.00106374 0)
(0.00280639 -0.000974859 0)
(0.00411383 -0.000874947 0)
(0.0052884 -0.000766399 0)
(0.00631953 -0.000651764 0)
(0.00719975 -0.000533636 0)
(0.00792476 -0.000414566 0)
(0.00849341 -0.000296978 0)
(0.00890751 -0.000183081 0)
(0.00917162 -7.48091e-05 0)
(0.00929271 2.62309e-05 0)
(0.00927977 0.000118791 0)
(0.00914343 0.00020199 0)
(0.00889547 0.000275312 0)
(0.00854842 0.000338577 0)
(0.00811516 0.000391904 0)
(0.00760856 0.000435645 0)
(0.00704124 0.000470313 0)
(0.00642538 0.000496486 0)
(0.00577266 0.000514699 0)
(0.00509442 0.00052531 0)
(0.00440188 0.000528352 0)
(0.00370656 0.000523363 0)
(0.00302096 0.000509206 0)
(0.00235923 0.000483895 0)
(0.00173803 0.000444493 0)
(0.00117722 0.000387245 0)
(0.000699615 0.000308394 0)
(0.000328824 0.000206322 0)
(8.81903e-05 8.71413e-05 0)
(1.67923e-06 -1.55154e-05 0)
(-0.0178972 -0.00338775 0)
(-0.0153418 -0.00346574 0)
(-0.0127421 -0.00349719 0)
(-0.0101302 -0.00348146 0)
(-0.00753875 -0.00341898 0)
(-0.0049996 -0.0033111 0)
(-0.0025437 -0.00316025 0)
(-0.000200338 -0.00296985 0)
(0.00200355 -0.00274427 0)
(0.00404395 -0.00248864 0)
(0.00590023 -0.00220873 0)
(0.00755559 -0.00191079 0)
(0.00899733 -0.0016012 0)
(0.010217 -0.00128639 0)
(0.0112105 -0.000972562 0)
(0.0119778 -0.000665497 0)
(0.012523 -0.000370395 0)
(0.0128536 -9.17261e-05 0)
(0.0129803 0.000166865 0)
(0.0129167 0.000402606 0)
(0.0126781 0.000613618 0)
(0.0122817 0.000798862 0)
(0.0117454 0.000958056 0)
(0.0110877 0.00109154 0)
(0.0103272 0.00120009 0)
(0.00948242 0.0012847 0)
(0.00857137 0.0013463 0)
(0.007612 0.00138544 0)
(0.00662226 0.00140197 0)
(0.00562061 0.00139466 0)
(0.00462666 0.00136085 0)
(0.00366191 0.00129627 0)
(0.00275052 0.00119503 0)
(0.00191984 0.00105026 0)
(0.00119968 0.000856114 0)
(0.000619402 0.000611679 0)
(0.000211437 0.000329157 0)
(2.75625e-05 5.87546e-05 0)
(-0.0263062 -0.00629076 0)
(-0.0230574 -0.00643934 0)
(-0.019745 -0.00650607 0)
(-0.016407 -0.00648961 0)
(-0.0130822 -0.00639032 0)
(-0.00980874 -0.00621024 0)
(-0.00662416 -0.00595316 0)
(-0.00356432 -0.00562462 0)
(-0.00066272 -0.00523171 0)
(0.00205017 -0.00478295 0)
(0.0045475 -0.00428798 0)
(0.00680662 -0.00375734 0)
(0.00880951 -0.00320201 0)
(0.010543 -0.00263313 0)
(0.0119988 -0.00206164 0)
(0.0131738 -0.00149791 0)
(0.0140698 -0.000951474 0)
(0.0146928 -0.000430714 0)
(0.0150534 5.72902e-05 0)
(0.0151654 0.000506902 0)
(0.0150459 0.000913985 0)
(0.0147143 0.00127585 0)
(0.0141918 0.00159114 0)
(0.0135007 0.00185962 0)
(0.0126642 0.00208189 0)
(0.0117055 0.00225901 0)
(0.0106482 0.00239202 0)
(0.00951578 0.0024815 0)
(0.00833199 0.00252691 0)
(0.00712125 0.00252615 0)
(0.00590915 0.002475 0)
(0.00472309 0.00236694 0)
(0.00359294 0.00219328 0)
(0.00255157 0.0019443 0)
(0.00163414 0.00161194 0)
(0.000875439 0.0011947 0)
(0.000319438 0.000706412 0)
(4.94394e-05 0.000198734 0)
(-0.0358598 -0.0097967 0)
(-0.0320297 -0.0100388 0)
(-0.028112 -0.0101595 0)
(-0.0241487 -0.0101563 0)
(-0.0201828 -0.0100293 0)
(-0.0162573 -0.00978086 0)
(-0.0124148 -0.00941589 0)
(-0.00869637 -0.00894182 0)
(-0.00514121 -0.00836843 0)
(-0.00178546 -0.00770758 0)
(0.0013382 -0.00697288 0)
(0.00420141 -0.00617936 0)
(0.00678065 -0.00534291 0)
(0.00905747 -0.00447988 0)
(0.0110189 -0.0036065 0)
(0.0126576 -0.00273844 0)
(0.0139716 -0.00189032 0)
(0.0149645 -0.00107531 0)
(0.0156447 -0.000304833 0)
(0.0160251 0.000411704 0)
(0.0161227 0.00106699 0)
(0.0159576 0.00165581 0)
(0.0155526 0.00217494 0)
(0.0149327 0.00262285 0)
(0.014124 0.00299932 0)
(0.0131536 0.00330494 0)
(0.0120495 0.00354051 0)
(0.0108397 0.00370626 0)
(0.00955294 0.00380117 0)
(0.00821879 0.00382219 0)
(0.00686783 0.00376367 0)
(0.00553237 0.00361701 0)
(0.00424703 0.00337099 0)
(0.00304946 0.00301302 0)
(0.00197989 0.00253199 0)
(0.00107918 0.0019232 0)
(0.000403546 0.00119597 0)
(6.54883e-05 0.000391062 0)
(-0.0468135 -0.0138219 0)
(-0.0424796 -0.0141857 0)
(-0.0380275 -0.0143855 0)
(-0.0335023 -0.0144175 0)
(-0.0289501 -0.0142807 0)
(-0.024418 -0.0139775 0)
(-0.0199527 -0.0135135 0)
(-0.0156003 -0.0128977 0)
(-0.0114052 -0.0121421 0)
(-0.00740909 -0.011262 0)
(-0.00365035 -0.0102746 0)
(-0.00016321 -0.00919961 0)
(0.00302294 -0.0080579 0)
(0.00588398 -0.00687129 0)
(0.00840158 -0.00566174 0)
(0.0105634 -0.00445073 0)
(0.0123631 -0.00325861 0)
(0.0138005 -0.0021041 0)
(0.014881 -0.00100375 0)
(0.0156154 2.8363e-05 0)
(0.0160193 0.000980847 0)
(0.0161126 0.0018451 0)
(0.0159185 0.00261513 0)
(0.0154632 0.00328732 0)
(0.0147751 0.00385992 0)
(0.0138842 0.00433246 0)
(0.0128218 0.00470494 0)
(0.0116198 0.00497696 0)
(0.0103113 0.00514676 0)
(0.00892996 0.0052103 0)
(0.00751094 0.00516052 0)
(0.00609084 0.00498691 0)
(0.00470862 0.00467569 0)
(0.0034065 0.00421102 0)
(0.00222989 0.00357754 0)
(0.00122614 0.00276453 0)
(0.000462872 0.00177185 0)
(7.61388e-05 0.000621972 0)
(-0.0593711 -0.018302 0)
(-0.0545841 -0.0188226 0)
(-0.0496407 -0.0191347 0)
(-0.044588 -0.019232 0)
(-0.0394754 -0.0191123 0)
(-0.0343532 -0.0187772 0)
(-0.0292727 -0.0182326 0)
(-0.0242846 -0.0174884 0)
(-0.0194387 -0.0165589 0)
(-0.0147824 -0.0154618 0)
(-0.0103601 -0.0142182 0)
(-0.00621226 -0.0128522 0)
(-0.00237469 -0.0113897 0)
(0.00112234 -0.00985822 0)
(0.00425448 -0.0082857 0)
(0.0070038 -0.00669988 0)
(0.00935889 -0.00512745 0)
(0.011315 -0.00359333 0)
(0.0128738 -0.00211998 0)
(0.0140431 -0.000726974 0)
(0.0148365 0.00056936 0)
(0.0152725 0.00175609 0)
(0.0153742 0.00282362 0)
(0.0151683 0.0037654 0)
(0.0146845 0.00457738 0)
(0.0139549 0.00525734 0)
(0.0130135 0.00580397 0)
(0.0118957 0.00621579 0)
(0.0106379 0.00649005 0)
(0.00927784 0.00662158 0)
(0.00785458 0.00660185 0)
(0.00640881 0.0064184 0)
(0.00498367 0.00605473 0)
(0.00362591 0.0054912 0)
(0.00238621 0.00470695 0)
(0.00131825 0.00368301 0)
(0.000499319 0.00240654 0)
(8.22736e-05 0.000878121 0)
(-0.0736691 -0.0231931 0)
(-0.0684607 -0.0239138 0)
(-0.0630491 -0.0243794 0)
(-0.0574837 -0.0245811 0)
(-0.0518165 -0.0245141 0)
(-0.0461014 -0.0241789 0)
(-0.0403939 -0.023581 0)
(-0.0347499 -0.0227307 0)
(-0.0292247 -0.0216435 0)
(-0.0238719 -0.0203398 0)
(-0.0187426 -0.018844 0)
(-0.0138841 -0.0171843 0)
(-0.00933917 -0.0153919 0)
(-0.00514497 -0.0134999 0)
(-0.00133254 -0.0115427 0)
(0.00207384 -0.00955472 0)
(0.00505702 -0.00756948 0)
(0.0076071 -0.00561876 0)
(0.00972135 -0.00373175 0)
(0.011404 -0.00193432 0)
(0.012666 -0.000248609 0)
(0.013524 0.00130724 0)
(0.0140001 0.00271913 0)
(0.0141212 0.0039767 0)
(0.0139179 0.00507286 0)
(0.0134237 0.00600291 0)
(0.0126749 0.00676364 0)
(0.0117098 0.00735204 0)
(0.010568 0.00776399 0)
(0.00929084 0.00799299 0)
(0.00792108 0.0080289 0)
(0.00650338 0.00785712 0)
(0.00508503 0.00745818 0)
(0.00371731 0.0068081 0)
(0.00245598 0.00587957 0)
(0.00136056 0.00464396 0)
(0.000515745 0.00307407 0)
(8.47518e-05 0.00114779 0)
(-0.100029 -0.0256905 0)
(-0.0950691 -0.0272106 0)
(-0.0897642 -0.0284675 0)
(-0.0841551 -0.0294393 0)
(-0.0782883 -0.0301083 0)
(-0.0722147 -0.0304618 0)
(-0.0659886 -0.030492 0)
(-0.0596674 -0.0301974 0)
(-0.053311 -0.0295818 0)
(-0.0469806 -0.0286557 0)
(-0.0407375 -0.0274351 0)
(-0.0346421 -0.0259421 0)
(-0.0287529 -0.0242044 0)
(-0.0231248 -0.0222541 0)
(-0.0178083 -0.0201275 0)
(-0.0128486 -0.0178636 0)
(-0.00828403 -0.0155034 0)
(-0.00414617 -0.0130885 0)
(-0.000458726 -0.0106599 0)
(0.00276254 -0.00825695 0)
(0.00550989 -0.00591637 0)
(0.00778343 -0.00367121 0)
(0.00959078 -0.00155034 0)
(0.0109465 0.000422013 0)
(0.0118715 0.00222629 0)
(0.0123921 0.00384751 0)
(0.0125394 0.00527465 0)
(0.0123485 0.00649988 0)
(0.0118574 0.00751742 0)
(0.011107 0.00832222 0)
(0.0101401 0.00890843 0)
(0.00900136 0.00926789 0)
(0.00773723 0.00938862 0)
(0.00639632 0.00925368 0)
(0.00503004 0.00884034 0)
(0.0036941 0.00811986 0)
(0.00244903 0.00705792 0)
(0.00135943 0.0056157 0)
(0.000515212 0.00375135 0)
(8.43113e-05 0.00142108 0)
(-0.127542 -0.0259699 0)
(-0.123238 -0.0283944 0)
(-0.118465 -0.0305794 0)
(-0.113249 -0.0324922 0)
(-0.107626 -0.0341031 0)
(-0.101636 -0.0353851 0)
(-0.0953265 -0.0363155 0)
(-0.0887487 -0.0368768 0)
(-0.0819589 -0.0370576 0)
(-0.0750178 -0.0368529 0)
(-0.0679895 -0.0362644 0)
(-0.0609405 -0.0353011 0)
(-0.0539387 -0.0339791 0)
(-0.0470517 -0.0323216 0)
(-0.0403461 -0.0303588 0)
(-0.0338853 -0.0281265 0)
(-0.0277289 -0.0256659 0)
(-0.0219306 -0.0230222 0)
(-0.0165378 -0.0202433 0)
(-0.0115902 -0.0173784 0)
(-0.00711892 -0.0144768 0)
(-0.00314668 -0.0115862 0)
(0.000312982 -0.00875163 0)
(0.0032554 -0.00601442 0)
(0.00568444 -0.00341111 0)
(0.00761203 -0.000973071 0)
(0.00905744 0.00127377 0)
(0.0100465 0.00330885 0)
(0.0106105 0.00511641 0)
(0.0107857 0.00668471 0)
(0.0106121 0.00800475 0)
(0.0101331 0.0090689 0)
(0.00939446 0.00986913 0)
(0.00844424 0.0103953 0)
(0.00733266 0.0106333 0)
(0.00611226 0.0105635 0)
(0.00483862 0.0101599 0)
(0.00357173 0.00938874 0)
(0.00237648 0.00820852 0)
(0.00132176 0.00657037 0)
(0.000500773 0.00441856 0)
(8.15941e-05 0.00168983 0)
(-0.147799 -0.0300664 0)
(-0.143404 -0.033003 0)
(-0.138477 -0.0356754 0)
(-0.133044 -0.0380448 0)
(-0.127137 -0.040075 0)
(-0.120795 -0.0417332 0)
(-0.114064 -0.0429907 0)
(-0.106995 -0.0438246 0)
(-0.0996454 -0.0442183 0)
(-0.0920791 -0.0441623 0)
(-0.0843638 -0.0436549 0)
(-0.076571 -0.0427024 0)
(-0.0687753 -0.04132 0)
(-0.0610519 -0.039531 0)
(-0.0534762 -0.0373673 0)
(-0.0461211 -0.0348681 0)
(-0.039056 -0.0320792 0)
(-0.0323451 -0.0290518 0)
(-0.0260458 -0.0258413 0)
(-0.0202072 -0.0225051 0)
(-0.0148698 -0.0191013 0)
(-0.010064 -0.0156871 0)
(-0.00581033 -0.0123169 0)
(-0.00211923 -0.0090414 0)
(0.00100877 -0.00590597 0)
(0.00358242 -0.00295024 0)
(0.00561903 -0.000207579 0)
(0.00714358 0.00229482 0)
(0.0081877 0.00453558 0)
(0.0087887 0.0064982 0)
(0.00898859 0.00816982 0)
(0.00883321 0.00953961 0)
(0.00837154 0.0105969 0)
(0.00765519 0.0113292 0)
(0.00673822 0.01172 0)
(0.00567724 0.011747 0)
(0.00453199 0.0113805 0)
(0.00336663 0.0105817 0)
(0.00225001 0.00930242 0)
(0.00125462 0.00748433 0)
(0.00047541 0.00505931 0)
(7.7181e-05 0.00194756 0)
(-0.169307 -0.0342017 0)
(-0.164871 -0.037711 0)
(-0.159843 -0.0409348 0)
(-0.154242 -0.0438278 0)
(-0.148098 -0.0463471 0)
(-0.141447 -0.0484532 0)
(-0.134331 -0.0501107 0)
(-0.126802 -0.05129 0)
(-0.118915 -0.0519681 0)
(-0.110736 -0.0521295 0)
(-0.102335 -0.0517676 0)
(-0.0937888 -0.0508847 0)
(-0.0851778 -0.0494935 0)
(-0.0765851 -0.0476162 0)
(-0.068095 -0.0452853 0)
(-0.0597909 -0.0425425 0)
(-0.0517535 -0.039438 0)
(-0.0440583 -0.0360289 0)
(-0.0367747 -0.0323779 0)
(-0.0299633 -0.0285514 0)
(-0.023675 -0.0246173 0)
(-0.0179503 -0.0206432 0)
(-0.0128179 -0.0166943 0)
(-0.00829538 -0.0128318 0)
(-0.00438863 -0.00911131 0)
(-0.00109287 -0.00558219 0)
(0.00160674 -0.0022865 0)
(0.00373406 0.000740838 0)
(0.00532086 0.00347173 0)
(0.00640561 0.00588404 0)
(0.0070324 0.00796028 0)
(0.00724985 0.00968583 0)
(0.00711031 0.0110469 0)
(0.00666917 0.0120282 0)
(0.00598456 0.0126107 0)
(0.00511734 0.0127692 0)
(0.00413151 0.0124702 0)
(0.0030953 0.0116705 0)
(0.00208125 0.0103154 0)
(0.00116493 0.00833835 0)
(0.000441985 0.00566068 0)
(7.1608e-05 0.00218933 0)
(-0.191725 -0.0383226 0)
(-0.187309 -0.042463 0)
(-0.182243 -0.0463013 0)
(-0.176541 -0.0497856 0)
(-0.170227 -0.052866 0)
(-0.163331 -0.0554957 0)
(-0.155891 -0.0576318 0)
(-0.147955 -0.0592366 0)
(-0.139579 -0.0602793 0)
(-0.130825 -0.0607371 0)
(-0.121766 -0.0605965 0)
(-0.112481 -0.0598543 0)
(-0.103055 -0.0585185 0)
(-0.09358 -0.0566087 0)
(-0.0841483 -0.0541565 0)
(-0.0748545 -0.0512048 0)
(-0.0657912 -0.0478072 0)
(-0.0570476 -0.0440263 0)
(-0.0487063 -0.0399324 0)
(-0.0408416 -0.0356011 0)
(-0.0335175 -0.0311109 0)
(-0.0267862 -0.0265412 0)
(-0.0206871 -0.0219692 0)
(-0.0152464 -0.0174685 0)
(-0.0104772 -0.0131066 0)
(-0.00637966 -0.00894403 0)
(-0.00294232 -0.00503326 0)
(-0.000142884 -0.00141833 0)
(0.00205031 0.00186474 0)
(0.00367693 0.00478713 0)
(0.0047833 0.00732583 0)
(0.00542111 0.00946177 0)
(0.00564641 0.0111775 0)
(0.00551874 0.0124547 0)
(0.00510065 0.0132714 0)
(0.0044575 0.0135996 0)
(0.00365773 0.0134023 0)
(0.00277365 0.0126318 0)
(0.00188139 0.0112281 0)
(0.0010593 0.00911755 0)
(0.000403192 0.00621308 0)
(6.53697e-05 0.00241174 0)
(-0.214619 -0.0423661 0)
(-0.210296 -0.0471905 0)
(-0.205272 -0.0517023 0)
(-0.199553 -0.0558431 0)
(-0.193155 -0.0595561 0)
(-0.186103 -0.0627865 0)
(-0.178429 -0.0654829 0)
(-0.170172 -0.0675991 0)
(-0.161385 -0.0690948 0)
(-0.152127 -0.0699382 0)
(-0.14247 -0.070107 0)
(-0.132493 -0.0695901 0)
(-0.122285 -0.0683888 0)
(-0.111942 -0.0665177 0)
(-0.101567 -0.0640055 0)
(-0.0912644 -0.0608943 0)
(-0.0811399 -0.0572396 0)
(-0.0712971 -0.0531088 0)
(-0.0618342 -0.0485792 0)
(-0.0528415 -0.0437359 0)
(-0.0443986 -0.0386688 0)
(-0.0365725 -0.0334701 0)
(-0.0294158 -0.0282309 0)
(-0.0229662 -0.0230389 0)
(-0.0172457 -0.0179757 0)
(-0.0122617 -0.0131151 0)
(-0.00800707 -0.00852166 0)
(-0.00446204 -0.00425051 0)
(-0.00159553 -0.000347106 0)
(0.000633209 0.00315177 0)
(0.00227287 0.00621658 0)
(0.00337854 0.00882297 0)
(0.00401038 0.0109493 0)
(0.00423256 0.0125739 0)
(0.00411246 0.0136717 0)
(0.00372037 0.0142117 0)
(0.00312945 0.0141539 0)
(0.0024163 0.0134468 0)
(0.00166068 0.0120256 0)
(0.000943787 0.00981112 0)
(0.000361493 0.00671007 0)
(5.89143e-05 0.00261276 0)
(-0.237474 -0.0462598 0)
(-0.233326 -0.0518118 0)
(-0.228436 -0.0570483 0)
(-0.222802 -0.0619044 0)
(-0.216431 -0.0663168 0)
(-0.209339 -0.0702228 0)
(-0.201548 -0.0735622 0)
(-0.19309 -0.0762788 0)
(-0.184008 -0.0783222 0)
(-0.174356 -0.0796496 0)
(-0.164199 -0.0802278 0)
(-0.153617 -0.0800354 0)
(-0.142697 -0.0790643 0)
(-0.13154 -0.0773212 0)
(-0.120254 -0.074829 0)
(-0.108954 -0.0716265 0)
(-0.0977594 -0.067769 0)
(-0.0867884 -0.0633266 0)
(-0.0761565 -0.0583828 0)
(-0.0659726 -0.0530318 0)
(-0.0563348 -0.0473754 0)
(-0.0473282 -0.0415198 0)
(-0.0390224 -0.0355718 0)
(-0.0314695 -0.0296353 0)
(-0.024704 -0.0238082 0)
(-0.0187425 -0.0181803 0)
(-0.0135847 -0.0128309 0)
(-0.0092146 -0.00782825 0)
(-0.00560259 -0.00322924 0)
(-0.00270727 0.000919696 0)
(-0.00047759 0.00458119 0)
(0.00114522 0.00772469 0)
(0.0022259 0.0103237 0)
(0.00283376 0.0123526 0)
(0.00304164 0.0137835 0)
(0.00292525 0.0145823 0)
(0.00256295 0.0147063 0)
(0.00203603 0.0141006 0)
(0.00142817 0.012697 0)
(0.000823726 0.010412 0)
(0.000319047 0.00714802 0)
(5.26341e-05 0.0027916 0)
(-0.259703 -0.0499242 0)
(-0.255818 -0.0562342 0)
(-0.251167 -0.0622341 0)
(-0.245735 -0.0678538 0)
(-0.239522 -0.0730238 0)
(-0.23253 -0.077674 0)
(-0.224769 -0.0817353 0)
(-0.216261 -0.0851414 0)
(-0.207037 -0.0878302 0)
(-0.19714 -0.0897468 0)
(-0.186628 -0.0908451 0)
(-0.175572 -0.0910905 0)
(-0.164057 -0.0904626 0)
(-0.152184 -0.0889567 0)
(-0.140064 -0.0865862 0)
(-0.12782 -0.0833835 0)
(-0.115583 -0.0794 0)
(-0.103486 -0.0747062 0)
(-0.091664 -0.0693896 0)
(-0.0802452 -0.0635523 0)
(-0.0693501 -0.0573081 0)
(-0.0590856 -0.0507778 0)
(-0.049542 -0.0440854 0)
(-0.0407906 -0.0373535 0)
(-0.0328821 -0.0306994 0)
(-0.0258462 -0.0242315 0)
(-0.019692 -0.0180472 0)
(-0.0144099 -0.0122306 0)
(-0.00997307 -0.00685286 0)
(-0.00634048 -0.00197201 0)
(-0.00345899 0.00236499 0)
(-0.00126603 0.0061201 0)
(0.00030813 0.00926116 0)
(0.00133859 0.0117583 0)
(0.0019043 0.0135802 0)
(0.00208711 0.0146903 0)
(0.00197123 0.0150432 0)
(0.00164321 0.0145817 0)
(0.00119127 0.0132347 0)
(0.000703522 0.0109161 0)
(0.000277652 0.00752571 0)
(4.68564e-05 0.00294854 0)
(-0.280676 -0.0532767 0)
(-0.277145 -0.0603583 0)
(-0.27284 -0.0671441 0)
(-0.267737 -0.0735604 0)
(-0.261823 -0.0795328 0)
(-0.255088 -0.0849845 0)
(-0.247529 -0.0898383 0)
(-0.239152 -0.0940175 0)
(-0.229973 -0.0974484 0)
(-0.220021 -0.100062 0)
(-0.20934 -0.101799 0)
(-0.19799 -0.102607 0)
(-0.186048 -0.102452 0)
(-0.17361 -0.101312 0)
(-0.160785 -0.0991893 0)
(-0.147701 -0.0961033 0)
(-0.134496 -0.0920981 0)
(-0.12132 -0.0872404 0)
(-0.108322 -0.0816184 0)
(-0.0956557 -0.0753401 0)
(-0.0834641 -0.0685297 0)
(-0.0718802 -0.0613229 0)
(-0.0610198 -0.053862 0)
(-0.0509783 -0.0462908 0)
(-0.0418278 -0.0387489 0)
(-0.0336158 -0.0313671 0)
(-0.0263652 -0.0242644 0)
(-0.0200759 -0.0175448 0)
(-0.0147266 -0.0112967 0)
(-0.0102781 -0.0055929 0)
(-0.00667601 -0.000492132 0)
(-0.00385421 0.00395838 0)
(-0.00173765 0.00771961 0)
(-0.000244872 0.0107568 0)
(0.000709976 0.013035 0)
(0.00121572 0.0145153 0)
(0.00136329 0.0151502 0)
(0.00124533 0.0148808 0)
(0.000955467 0.0136339 0)
(0.000586504 0.0113221 0)
(0.000238676 0.00784384 0)
(4.18333e-05 0.00308473 0)
(-0.299752 -0.0562386 0)
(-0.296657 -0.0640854 0)
(-0.292802 -0.0716599 0)
(-0.288153 -0.0788865 0)
(-0.282684 -0.0856877 0)
(-0.276373 -0.0919817 0)
(-0.2692 -0.0976842 0)
(-0.261155 -0.102709 0)
(-0.252234 -0.106971 0)
(-0.24245 -0.110388 0)
(-0.231827 -0.112883 0)
(-0.22041 -0.114387 0)
(-0.20826 -0.114846 0)
(-0.195461 -0.114222 0)
(-0.182119 -0.112495 0)
(-0.168356 -0.10967 0)
(-0.154317 -0.105778 0)
(-0.14016 -0.100876 0)
(-0.126053 -0.0950487 0)
(-0.112168 -0.0884054 0)
(-0.0986753 -0.0810783 0)
(-0.0857373 -0.0732168 0)
(-0.0734998 -0.0649821 0)
(-0.0620877 -0.0565408 0)
(-0.0516005 -0.0480577 0)
(-0.0421097 -0.0396904 0)
(-0.0336577 -0.0315839 0)
(-0.0262585 -0.0238665 0)
(-0.0199003 -0.0166484 0)
(-0.0145481 -0.0100208 0)
(-0.010148 -0.00405753 0)
(-0.00663115 0.00118274 0)
(-0.00391714 0.00565251 0)
(-0.0019177 0.00931109 0)
(-0.000539262 0.0121198 0)
(0.000314961 0.014037 0)
(0.000743648 0.0150137 0)
(0.000846659 0.0149897 0)
(0.000724124 0.0138913 0)
(0.00047479 0.01163 0)
(0.000203019 0.00810448 0)
(3.77356e-05 0.0032019 0)
(-0.31632 -0.0587427 0)
(-0.313729 -0.0673263 0)
(-0.310414 -0.0756696 0)
(-0.306332 -0.0836975 0)
(-0.301447 -0.0913316 0)
(-0.295722 -0.0984871 0)
(-0.28912 -0.105075 0)
(-0.281613 -0.111 0)
(-0.273179 -0.116168 0)
(-0.263806 -0.120483 0)
(-0.253498 -0.12385 0)
(-0.242277 -0.126184 0)
(-0.230184 -0.127407 0)
(-0.217285 -0.127459 0)
(-0.203669 -0.126298 0)
(-0.189453 -0.123906 0)
(-0.174776 -0.120294 0)
(-0.159802 -0.115503 0)
(-0.144709 -0.109608 0)
(-0.12969 -0.102713 0)
(-0.114941 -0.094955 0)
(-0.100655 -0.0864931 0)
(-0.08701 -0.0775065 0)
(-0.0741679 -0.0681851 0)
(-0.0622621 -0.0587221 0)
(-0.0513951 -0.0493057 0)
(-0.0416358 -0.0401119 0)
(-0.0330189 -0.0312991 0)
(-0.0255471 -0.0230046 0)
(-0.0191941 -0.015343 0)
(-0.0139091 -0.00840741 0)
(-0.00962195 -0.00227128 0)
(-0.00624759 0.00300702 0)
(-0.00369073 0.00737946 0)
(-0.00184937 0.0108027 0)
(-0.000617703 0.0132325 0)
(0.000111921 0.0146187 0)
(0.000447891 0.0149005 0)
(0.000498254 0.0140039 0)
(0.000369196 0.0118408 0)
(0.000171076 0.00831038 0)
(3.46471e-05 0.00330217 0)
(-0.329852 -0.0607403 0)
(-0.327811 -0.0700103 0)
(-0.325103 -0.0790792 0)
(-0.321679 -0.0878747 0)
(-0.317494 -0.0963201 0)
(-0.312497 -0.10433 0)
(-0.306638 -0.111814 0)
(-0.299868 -0.118671 0)
(-0.292144 -0.124798 0)
(-0.283432 -0.130087 0)
(-0.273709 -0.134428 0)
(-0.262971 -0.137716 0)
(-0.251233 -0.139851 0)
(-0.238534 -0.140747 0)
(-0.224942 -0.140335 0)
(-0.210556 -0.138568 0)
(-0.195504 -0.135432 0)
(-0.179944 -0.130944 0)
(-0.164061 -0.125159 0)
(-0.14806 -0.118171 0)
(-0.132159 -0.11011 0)
(-0.116582 -0.101144 0)
(-0.101545 -0.0914638 0)
(-0.0872471 -0.0812835 0)
(-0.0738643 -0.0708255 0)
(-0.0615377 -0.0603121 0)
(-0.050371 -0.0499559 0)
(-0.0404279 -0.0399515 0)
(-0.0317327 -0.0304702 0)
(-0.0242734 -0.0216563 0)
(-0.018007 -0.0136277 0)
(-0.0128645 -0.00647728 0)
(-0.00875771 -0.000277634 0)
(-0.00558469 0.0049136 0)
(-0.00323453 0.00904717 0)
(-0.0015914 0.0120759 0)
(-0.000537336 0.0139483 0)
(4.60836e-05 0.0146037 0)
(0.000276467 0.0139685 0)
(0.000269196 0.0119552 0)
(0.000142725 0.00846441 0)
(3.25627e-05 0.00338772 0)
(-0.33995 -0.0622078 0)
(-0.338475 -0.0720932 0)
(-0.336411 -0.0818219 0)
(-0.333705 -0.0913266 0)
(-0.330303 -0.100535 0)
(-0.326146 -0.109365 0)
(-0.321168 -0.117726 0)
(-0.315306 -0.125516 0)
(-0.308495 -0.132626 0)
(-0.300678 -0.138939 0)
(-0.291804 -0.144331 0)
(-0.281839 -0.14868 0)
(-0.270767 -0.151862 0)
(-0.258596 -0.153765 0)
(-0.245364 -0.154288 0)
(-0.231142 -0.153354 0)
(-0.216035 -0.150914 0)
(-0.200189 -0.146951 0)
(-0.183781 -0.141495 0)
(-0.167022 -0.134615 0)
(-0.150147 -0.126431 0)
(-0.133404 -0.117105 0)
(-0.117046 -0.106837 0)
(-0.101315 -0.0958607 0)
(-0.0864335 -0.0844266 0)
(-0.0725893 -0.0727941 0)
(-0.0599303 -0.0612171 0)
(-0.0485587 -0.0499333 0)
(-0.0385296 -0.0391555 0)
(-0.0298534 -0.0290658 0)
(-0.0225004 -0.019814 0)
(-0.0164078 -0.0115187 0)
(-0.0114868 -0.00427145 0)
(-0.00762971 0.0018571 0)
(-0.00471692 0.00680994 0)
(-0.00262172 0.0105357 0)
(-0.00121457 0.0129815 0)
(-0.000365331 0.014087 0)
(5.49942e-05 0.0137796 0)
(0.000172949 0.011973 0)
(0.000117336 0.00856881 0)
(3.13906e-05 0.00346054 0)
(-0.346389 -0.06315 0)
(-0.345467 -0.0735632 0)
(-0.344048 -0.0838661 0)
(-0.34208 -0.0939993 0)
(-0.339504 -0.103898 0)
(-0.336252 -0.113485 0)
(-0.332252 -0.122674 0)
(-0.327424 -0.131365 0)
(-0.321687 -0.139448 0)
(-0.31496 -0.1468 0)
(-0.307169 -0.153289 0)
(-0.298246 -0.158774 0)
(-0.288143 -0.163115 0)
(-0.276831 -0.166169 0)
(-0.26431 -0.167807 0)
(-0.250616 -0.167913 0)
(-0.235821 -0.166398 0)
(-0.220044 -0.163209 0)
(-0.203444 -0.158333 0)
(-0.186226 -0.151809 0)
(-0.168629 -0.143731 0)
(-0.150921 -0.134244 0)
(-0.133385 -0.12355 0)
(-0.116305 -0.111892 0)
(-0.0999542 -0.0995469 0)
(-0.0845733 -0.0868104 0)
(-0.0703639 -0.0739816 0)
(-0.0574773 -0.0613477 0)
(-0.0460104 -0.0491714 0)
(-0.0360057 -0.037682 0)
(-0.0274557 -0.0270704 0)
(-0.0203098 -0.0174887 0)
(-0.0144829 -0.00905413 0)
(-0.00986411 -0.00185521 0)
(-0.00632578 0.00403992 0)
(-0.00373019 0.00857404 0)
(-0.00193485 0.0116923 0)
(-0.000796295 0.0133345 0)
(-0.000172165 0.0134293 0)
(7.73769e-05 0.0118917 0)
(9.38165e-05 0.00862457 0)
(3.09588e-05 0.00352216 0)
(-0.34914 -0.0636003 0)
(-0.348728 -0.074442 0)
(-0.347921 -0.0852193 0)
(-0.346668 -0.0958824 0)
(-0.344912 -0.106376 0)
(-0.342583 -0.116631 0)
(-0.3396 -0.12657 0)
(-0.335876 -0.136098 0)
(-0.331317 -0.145108 0)
(-0.325822 -0.153477 0)
(-0.319294 -0.161066 0)
(-0.311638 -0.167727 0)
(-0.302769 -0.1733 0)
(-0.292622 -0.17762 0)
(-0.281154 -0.180525 0)
(-0.268357 -0.181863 0)
(-0.254262 -0.181503 0)
(-0.238948 -0.179343 0)
(-0.222543 -0.175324 0)
(-0.20523 -0.16944 0)
(-0.187239 -0.161743 0)
(-0.168844 -0.152353 0)
(-0.150351 -0.141453 0)
(-0.13208 -0.12929 0)
(-0.114353 -0.116156 0)
(-0.0974695 -0.10238 0)
(-0.0816917 -0.0883084 0)
(-0.0672308 -0.0742821 0)
(-0.0542377 -0.0606226 0)
(-0.0427994 -0.0476164 0)
(-0.032941 -0.0355064 0)
(-0.024633 -0.0244888 0)
(-0.0178001 -0.014715 0)
(-0.0123325 -0.00629831 0)
(-0.00809652 0.000677113 0)
(-0.00494345 0.0061454 0)
(-0.0027173 0.0100481 0)
(-0.00125969 0.0123248 0)
(-0.000412961 0.0129054 0)
(-2.16916e-05 0.0117062 0)
(7.0663e-05 0.00863087 0)
(3.10314e-05 0.00357342 0)
(-0.348373 -0.0636176 0)
(-0.348402 -0.0747836 0)
(-0.348141 -0.0859277 0)
(-0.347545 -0.0970108 0)
(-0.346559 -0.107988 0)
(-0.345114 -0.118804 0)
(-0.34313 -0.129389 0)
(-0.340517 -0.139659 0)
(-0.33717 -0.149515 0)
(-0.332979 -0.158838 0)
(-0.327826 -0.16749 0)
(-0.321593 -0.175318 0)
(-0.314163 -0.182151 0)
(-0.305434 -0.187806 0)
(-0.29532 -0.192094 0)
(-0.283766 -0.194827 0)
(-0.270751 -0.195828 0)
(-0.256305 -0.194947 0)
(-0.240513 -0.192068 0)
(-0.223517 -0.187128 0)
(-0.205523 -0.180128 0)
(-0.186795 -0.171141 0)
(-0.167645 -0.160319 0)
(-0.148421 -0.147891 0)
(-0.129487 -0.134157 0)
(-0.1112 -0.119469 0)
(-0.0938895 -0.104216 0)
(-0.0778354 -0.0887969 0)
(-0.0632548 -0.0735981 0)
(-0.0502927 -0.0589742 0)
(-0.0390201 -0.0452327 0)
(-0.0294397 -0.0326262 0)
(-0.0214951 -0.0213518 0)
(-0.0150834 -0.0115566 0)
(-0.0100683 -0.00334771 0)
(-0.00629178 0.00319577 0)
(-0.00358408 0.00800923 0)
(-0.00177071 0.0110307 0)
(-0.000676825 0.012191 0)
(-0.000129289 0.0114078 0)
(4.5992e-05 0.00858466 0)
(3.13352e-05 0.00361427 0)
(-0.344435 -0.0632798 0)
(-0.34482 -0.074668 0)
(-0.345015 -0.0860707 0)
(-0.344983 -0.0974602 0)
(-0.344676 -0.108804 0)
(-0.344032 -0.120058 0)
(-0.342973 -0.131168 0)
(-0.341412 -0.142062 0)
(-0.339243 -0.152651 0)
(-0.33635 -0.162828 0)
(-0.332604 -0.172463 0)
(-0.327868 -0.181403 0)
(-0.322002 -0.189474 0)
(-0.31487 -0.196481 0)
(-0.306344 -0.202214 0)
(-0.296321 -0.206454 0)
(-0.284728 -0.208985 0)
(-0.271537 -0.209603 0)
(-0.256773 -0.208134 0)
(-0.240529 -0.204449 0)
(-0.222965 -0.198481 0)
(-0.204316 -0.190244 0)
(-0.184884 -0.179836 0)
(-0.165025 -0.167453 0)
(-0.145134 -0.153379 0)
(-0.125619 -0.137977 0)
(-0.106878 -0.121671 0)
(-0.0892646 -0.104913 0)
(-0.0730744 -0.0881604 0)
(-0.0585241 -0.0718461 0)
(-0.0457454 -0.0563546 0)
(-0.034787 -0.0420096 0)
(-0.0256229 -0.0290679 0)
(-0.0181658 -0.0177224 0)
(-0.0122822 -0.00811258 0)
(-0.00780758 -0.000337473 0)
(-0.00455932 0.00552801 0)
(-0.00234609 0.00941821 0)
(-0.00097429 0.0112639 0)
(-0.000250967 0.0109835 0)
(1.77859e-05 0.00848022 0)
(3.15311e-05 0.00364367 0)
(-0.337814 -0.0626758 0)
(-0.338459 -0.0741925 0)
(-0.339005 -0.0857522 0)
(-0.339425 -0.0973383 0)
(-0.339677 -0.10893 0)
(-0.33971 -0.120499 0)
(-0.339455 -0.132002 0)
(-0.338832 -0.143385 0)
(-0.337741 -0.154574 0)
(-0.336067 -0.165476 0)
(-0.333677 -0.175975 0)
(-0.330426 -0.185925 0)
(-0.326157 -0.195158 0)
(-0.320707 -0.203477 0)
(-0.313915 -0.210658 0)
(-0.305632 -0.216461 0)
(-0.295733 -0.220633 0)
(-0.284128 -0.222923 0)
(-0.270778 -0.223098 0)
(-0.255709 -0.220958 0)
(-0.239023 -0.216361 0)
(-0.220904 -0.20924 0)
(-0.201618 -0.199625 0)
(-0.181512 -0.187653 0)
(-0.160993 -0.173569 0)
(-0.140508 -0.157729 0)
(-0.120512 -0.140571 0)
(-0.101439 -0.122598 0)
(-0.0836693 -0.104334 0)
(-0.0675033 -0.0862981 0)
(-0.0531501 -0.0689644 0)
(-0.0407203 -0.0527436 0)
(-0.0302325 -0.0379687 0)
(-0.021626 -0.0248939 0)
(-0.0147785 -0.0137033 0)
(-0.00952357 -0.00452519 0)
(-0.00566781 0.00254906 0)
(-0.00300325 0.00744654 0)
(-0.00131638 0.0100961 0)
(-0.000392557 0.0104162 0)
(-1.60657e-05 0.00830891 0)
(3.12769e-05 0.00365944 0)
(-0.329081 -0.0618965 0)
(-0.329893 -0.0734616 0)
(-0.33068 -0.0850894 0)
(-0.331426 -0.0967733 0)
(-0.332101 -0.108504 0)
(-0.332663 -0.120266 0)
(-0.333059 -0.132032 0)
(-0.333218 -0.143764 0)
(-0.333051 -0.155407 0)
(-0.332453 -0.166884 0)
(-0.331296 -0.178098 0)
(-0.329433 -0.188921 0)
(-0.326701 -0.199194 0)
(-0.322922 -0.208727 0)
(-0.317909 -0.217296 0)
(-0.311476 -0.224648 0)
(-0.30345 -0.230506 0)
(-0.293681 -0.234577 0)
(-0.282064 -0.236574 0)
(-0.268551 -0.236227 0)
(-0.25317 -0.233311 0)
(-0.236034 -0.227672 0)
(-0.217356 -0.219249 0)
(-0.197445 -0.208095 0)
(-0.176696 -0.194396 0)
(-0.155574 -0.178467 0)
(-0.134581 -0.160743 0)
(-0.114222 -0.141756 0)
(-0.0949639 -0.122094 0)
(-0.0772038 -0.102361 0)
(-0.0612417 -0.0831321 0)
(-0.0472678 -0.0649215 0)
(-0.0353618 -0.0481569 0)
(-0.0255042 -0.033172 0)
(-0.0175942 -0.0202115 0)
(-0.0114709 -0.00944551 0)
(-0.00693372 -0.000990477 0)
(-0.00375938 0.005068 0)
(-0.00171407 0.00865394 0)
(-0.000559913 0.00968427 0)
(-5.76664e-05 0.0080592 0)
(3.02742e-05 0.00365824 0)
(-0.318835 -0.0610266 0)
(-0.319726 -0.0725774 0)
(-0.32065 -0.0842014 0)
(-0.3216 -0.0959006 0)
(-0.322557 -0.107676 0)
(-0.323492 -0.119523 0)
(-0.324367 -0.131431 0)
(-0.325126 -0.143376 0)
(-0.325696 -0.155324 0)
(-0.325984 -0.167218 0)
(-0.325877 -0.178982 0)
(-0.325236 -0.190509 0)
(-0.323901 -0.201662 0)
(-0.321689 -0.212265 0)
(-0.318399 -0.222104 0)
(-0.313819 -0.230925 0)
(-0.307737 -0.238437 0)
(-0.299954 -0.244322 0)
(-0.290297 -0.248245 0)
(-0.278643 -0.249874 0)
(-0.264938 -0.248902 0)
(-0.249213 -0.245079 0)
(-0.231602 -0.23824 0)
(-0.212353 -0.228336 0)
(-0.191822 -0.21546 0)
(-0.170465 -0.199859 0)
(-0.148808 -0.181934 0)
(-0.127413 -0.16222 0)
(-0.10683 -0.141353 0)
(-0.0875559 -0.120018 0)
(-0.0699954 -0.0988954 0)
(-0.0544348 -0.0786175 0)
(-0.0410338 -0.0597262 0)
(-0.0298309 -0.0426561 0)
(-0.0207607 -0.0277321 0)
(-0.0136774 -0.0151822 0)
(-0.00837932 -0.00515999 0)
(-0.00463065 0.00222853 0)
(-0.00217774 0.00689803 0)
(-0.000758578 0.00876169 0)
(-0.000109067 0.00771669 0)
(2.81744e-05 0.00363566 0)
(-0.307649 -0.0601384 0)
(-0.308547 -0.0716311 0)
(-0.309517 -0.0831989 0)
(-0.310558 -0.0948505 0)
(-0.311664 -0.106595 0)
(-0.312821 -0.118438 0)
(-0.314003 -0.130381 0)