/*--------------------------------*- C++ -*----------------------------------*\
  =========                 |
  \\      /  F ield         | OpenFOAM: The Open Source CFD Toolbox
   \\    /   O peration     | Website:  https://openfoam.org
    \\  /    A nd           | Version:  9
     \\/     M anipulation  |
\*---------------------------------------------------------------------------*/
FoamFile
{
    format      ascii;
    class       volScalarField;
    location    "3.5";
    object      p;
}
// * * * * * * * * * * * * * * * * * * * * * * * * * * * * * * * * * * * * * //

dimensions      [0 2 -2 0 0 0 0];

internalField   nonuniform List<scalar> 
1260
(
-0.0981596
-0.0965718
-0.0949192
-0.0932066
-0.0914393
-0.0896232
-0.0877641
-0.0858675
-0.0839386
-0.0819813
-0.0799972
-0.077985
-0.0759389
-0.0738479
-0.0716947
-0.0694553
-0.0671008
-0.0646002
-0.0619284
-0.0590776
-0.0560742
-0.052997
-0.0499891
-0.0472524
-0.0450118
-0.0434505
-0.0426338
-0.0424732
-0.0428188
-0.0436067
-0.0981611
-0.0965694
-0.0949136
-0.0931987
-0.0914305
-0.089615
-0.0877585
-0.0858672
-0.0839471
-0.0820029
-0.0800377
-0.0780516
-0.0760409
-0.0739966
-0.0719036
-0.0697401
-0.0674785
-0.065088
-0.0625407
-0.059823
-0.0569506
-0.0539878
-0.0510623
-0.0483642
-0.0461172
-0.0445164
-0.0436489
-0.0434468
-0.0437721
-0.044563
-0.0980444
-0.0964469
-0.094786
-0.0930668
-0.0912955
-0.0894783
-0.0876221
-0.0857336
-0.0838195
-0.0818855
-0.0799357
-0.0779719
-0.075992
-0.0739891
-0.0719502
-0.0698559
-0.0676801
-0.0653927
-0.0629645
-0.0603767
-0.0576363
-0.0547942
-0.0519624
-0.0493182
-0.0470807
-0.0454537
-0.0445438
-0.0443038
-0.0446089
-0.0454008
-0.0978096
-0.0962043
-0.094536
-0.0928103
-0.0910335
-0.0892123
-0.0873539
-0.0854656
-0.0835547
-0.0816277
-0.07969
-0.0777446
-0.075791
-0.0738243
-0.0718337
-0.0698019
-0.0677048
-0.0655134
-0.0631978
-0.0607356
-0.0581262
-0.0554085
-0.0526795
-0.0501022
-0.0478889
-0.0462486
-0.0453049
-0.0450311
-0.0453166
-0.0461079
-0.0974569
-0.0958414
-0.0941634
-0.0924288
-0.090644
-0.0888162
-0.0869529
-0.085062
-0.0831513
-0.0812284
-0.0792993
-0.0773684
-0.0754368
-0.0735013
-0.0715532
-0.0695775
-0.067552
-0.0654493
-0.0632392
-0.0608973
-0.0584164
-0.0558247
-0.053205
-0.0507056
-0.0485297
-0.0468884
-0.0459197
-0.0456165
-0.0458835
-0.0466728
-0.0969867
-0.0953586
-0.0936684
-0.0919223
-0.0901269
-0.0882897
-0.0864186
-0.0845222
-0.0826087
-0.0806864
-0.0787624
-0.0768422
-0.0749283
-0.0730191
-0.071108
-0.069182
-0.0672212
-0.0651996
-0.0630879
-0.0608599
-0.0585034
-0.0560375
-0.0535314
-0.0511189
-0.048992
-0.0473613
-0.0463763
-0.0460484
-0.0462983
-0.047085
-0.0963997
-0.0947565
-0.0930515
-0.0912911
-0.0894822
-0.0876326
-0.0857509
-0.0838457
-0.0819262
-0.0800012
-0.0780788
-0.0761653
-0.0742647
-0.0723771
-0.0704975
-0.068615
-0.0667119
-0.064764
-0.062743
-0.060622
-0.0583849
-0.0560427
-0.0536527
-0.0513338
-0.0492661
-0.0476565
-0.0466636
-0.0463161
-0.0465508
-0.0473343
-0.0956969
-0.0940361
-0.0923135
-0.0905358
-0.0887104
-0.0868455
-0.0849498
-0.0830327
-0.0811037
-0.0791725
-0.0772479
-0.0753373
-0.0734457
-0.0715747
-0.0697212
-0.0678762
-0.0660239
-0.0641423
-0.0622043
-0.0601827
-0.0580589
-0.0558372
-0.0535636
-0.0513432
-0.049343
-0.0477643
-0.0467717
-0.0464095
-0.0466311
-0.0474116
-0.0948798
-0.0931985
-0.0914554
-0.0896576
-0.0878126
-0.085929
-0.0840161
-0.0820835
-0.0801416
-0.0782006
-0.0762699
-0.074358
-0.0724711
-0.070612
-0.0687793
-0.0669656
-0.0651575
-0.0633346
-0.0614717
-0.0595418
-0.0575243
-0.0554183
-0.05326
-0.0511411
-0.0492152
-0.0476759
-0.0466912
-0.0463195
-0.0465303
-0.0473082
-0.0939501
-0.0922455
-0.090479
-0.0886578
-0.08679
-0.0848844
-0.0829507
-0.0809992
-0.0790407
-0.0770859
-0.0751453
-0.073228
-0.0713413
-0.0694893
-0.0676719
-0.0658837
-0.064113
-0.0623415
-0.0605455
-0.058699
-0.0567803
-0.0547842
-0.0527384
-0.0507222
-0.0488757
-0.0473831
-0.0464134
-0.0460372
-0.0462399
-0.0470163
-0.0929098
-0.0911791
-0.0893862
-0.0875385
-0.0856444
-0.0837134
-0.0817554
-0.0797813
-0.0778023
-0.07583
-0.0738753
-0.0719483
-0.0700573
-0.0682075
-0.0664001
-0.0646314
-0.0628913
-0.0611636
-0.0594265
-0.0576549
-0.0558268
-0.0539337
-0.0519961
-0.0500821
-0.0483183
-0.0468786
-0.0459305
-0.0455546
-0.0457519
-0.0465282
-0.0917616
-0.090002
-0.0881795
-0.086302
-0.0843785
-0.0824184
-0.0804325
-0.0784319
-0.0764286
-0.0744346
-0.0724616
-0.0705206
-0.0686206
-0.066768
-0.0649652
-0.0632099
-0.0614937
-0.0598024
-0.0581158
-0.0564103
-0.054664
-0.052866
-0.051031
-0.049217
-0.0475377
-0.0461557
-0.0452348
-0.0448637
-0.0450587
-0.0458368
-0.0905085
-0.088717
-0.086862
-0.0849516
-0.082995
-0.0810024
-0.0789848
-0.0769539
-0.0749223
-0.0729025
-0.070907
-0.0689474
-0.0670337
-0.0651731
-0.0633693
-0.0616213
-0.0599222
-0.0582596
-0.056615
-0.0549665
-0.0532926
-0.0515809
-0.0498416
-0.0481237
-0.0465288
-0.0452078
-0.0443191
-0.0439571
-0.0441526
-0.0449351
-0.0891542
-0.087328
-0.0854374
-0.0834908
-0.0814979
-0.0794692
-0.0774161
-0.0753511
-0.073287
-0.0712372
-0.0692147
-0.0672319
-0.0652996
-0.0634258
-0.0616153
-0.0598681
-0.0581794
-0.0565375
-0.0549263
-0.0533252
-0.0517137
-0.0500787
-0.0484267
-0.0467992
-0.0452869
-0.0440287
-0.043176
-0.0428269
-0.0430261
-0.0438157
-0.0877028
-0.0858392
-0.0839101
-0.0819242
-0.0798916
-0.0778232
-0.075731
-0.0736279
-0.0715273
-0.0694432
-0.0673892
-0.0653785
-0.0634223
-0.0615299
-0.0597068
-0.0579542
-0.0562682
-0.0546392
-0.0530522
-0.0514886
-0.0499289
-0.0483599
-0.0467855
-0.0452411
-0.0438075
-0.0426121
-0.0417982
-0.0414652
-0.0416709
-0.0424712
-0.080257
-0.0781815
-0.07607
-0.073935
-0.0717899
-0.0696487
-0.0675259
-0.0654359
-0.0633922
-0.0614071
-0.0594904
-0.0576485
-0.0558835
-0.0541928
-0.052568
-0.0509959
-0.0494593
-0.04794
-0.0464253
-0.0449173
-0.0434467
-0.0420858
-0.0409514
-0.0401775
-0.0398631
-0.0400783
-0.0408933
-0.0784955
-0.0763739
-0.074216
-0.0720346
-0.0698437
-0.0676578
-0.065492
-0.0633612
-0.0612797
-0.0592602
-0.0573132
-0.0554459
-0.0536614
-0.051958
-0.0503284
-0.0487613
-0.0472403
-0.0457492
-0.0442759
-0.0428216
-0.0414135
-0.0401171
-0.0390395
-0.0383053
-0.0380111
-0.0382383
-0.0390724
-0.0766467
-0.0744763
-0.0722688
-0.0700377
-0.0677973
-0.0655627
-0.0633495
-0.0611731
-0.0590485
-0.0569888
-0.0550053
-0.0531058
-0.0512942
-0.0495694
-0.0479256
-0.0463523
-0.0448351
-0.0433589
-0.0419127
-0.0404976
-0.0391385
-0.0378958
-0.0368684
-0.0361715
-0.0358978
-0.0361394
-0.0369977
-0.0747191
-0.0724972
-0.0702373
-0.0679532
-0.0656598
-0.0633725
-0.0611075
-0.0588808
-0.0567076
-0.0546019
-0.0525753
-0.0506361
-0.0487889
-0.0470336
-0.0453651
-0.0437739
-0.0422475
-0.0407716
-0.0393367
-0.0379444
-0.0366184
-0.0354156
-0.0344287
-0.0337645
-0.0335103
-0.0337678
-0.034656
-0.0727222
-0.0704466
-0.0681317
-0.0657916
-0.0634417
-0.061098
-0.0587769
-0.0564949
-0.0542677
-0.0521096
-0.0500327
-0.0480458
-0.0461541
-0.044358
-0.0426533
-0.0410315
-0.039481
-0.0379895
-0.0365483
-0.0351602
-0.0338486
-0.032669
-0.0317097
-0.0310706
-0.0308328
-0.0311071
-0.0320314
-0.0706669
-0.0683357
-0.0659635
-0.0635649
-0.0611554
-0.0587515
-0.05637
-0.0540277
-0.0517406
-0.0495234
-0.0473886
-0.0453453
-0.0433991
-0.041551
-0.0397973
-0.0381305
-0.03654
-0.0350147
-0.0335476
-0.0321424
-0.0308236
-0.0296465
-0.028698
-0.0280732
-0.0278466
-0.0281373
-0.0291046
-0.0685655
-0.0661773
-0.063746
-0.0612865
-0.0588146
-0.056347
-0.0539009
-0.0514931
-0.0491401
-0.0468567
-0.0446555
-0.0425462
-0.0405344
-0.0386216
-0.0368047
-0.0350767
-0.0334281
-0.0318488
-0.0303334
-0.0288869
-0.0275357
-0.0263365
-0.0253777
-0.0247523
-0.0245289
-0.0248342
-0.0258519
-0.0664318
-0.0639856
-0.0614939
-0.0589716
-0.0564347
-0.0539001
-0.051385
-0.0489066
-0.0464812
-0.0441239
-0.0418473
-0.0396613
-0.0375715
-0.0355798
-0.0336835
-0.0318761
-0.0301487
-0.0284925
-0.0269032
-0.0253879
-0.0239749
-0.0227244
-0.0217291
-0.0210835
-0.0208518
-0.0211679
-0.0222443
-0.0642812
-0.0617767
-0.0592236
-0.056637
-0.0540328
-0.0514281
-0.0488399
-0.0462853
-0.0437808
-0.0413412
-0.0389792
-0.0367044
-0.0345228
-0.0324361
-0.0304419
-0.028534
-0.0267043
-0.0249448
-0.0232524
-0.0216364
-0.0201278
-0.0187915
-0.0177275
-0.0170368
-0.0167812
-0.017102
-0.0182461
-0.0621304
-0.0595678
-0.0569531
-0.054301
-0.0516277
-0.0489498
-0.0462843
-0.043648
-0.041057
-0.038526
-0.0360674
-0.0336905
-0.0314012
-0.0292012
-0.0270879
-0.0250556
-0.0230963
-0.021203
-0.019374
-0.0176204
-0.0159767
-0.0145138
-0.0133424
-0.0125752
-0.0122754
-0.0125919
-0.0138136
-0.0599976
-0.0573779
-0.0547016
-0.0519836
-0.0492395
-0.0464856
-0.0437385
-0.0410145
-0.0383293
-0.0356969
-0.0331293
-0.0306353
-0.0282204
-0.025886
-0.0236294
-0.0214448
-0.0193245
-0.017262
-0.0152572
-0.0133229
-0.0114981
-0.00986088
-0.00853564
-0.00765275
-0.00728261
-0.00758252
-0.00889321
-0.0579024
-0.0552268
-0.0524898
-0.0497056
-0.0468893
-0.0440566
-0.0412236
-0.0384057
-0.0356177
-0.032873
-0.0301826
-0.0275547
-0.024994
-0.0225012
-0.0200734
-0.0177042
-0.0153862
-0.0131134
-0.0108868
-0.00872137
-0.00666157
-0.00479353
-0.00325887
-0.00221237
-0.00173871
-0.00200626
-0.00341857
-0.0558648
-0.0531355
-0.0503388
-0.0474885
-0.0445989
-0.0416848
-0.0387613
-0.0358428
-0.032943
-0.0300739
-0.0272455
-0.0244648
-0.0217353
-0.0190569
-0.0164256
-0.0138347
-0.0112762
-0.00874453
-0.00624193
-0.00378693
-0.00142769
0.000737948
0.00254858
0.00381776
0.00443668
0.00422102
0.00269284
-0.0539057
-0.0511249
-0.0482701
-0.045354
-0.0423901
-0.039392
-0.0363732
-0.033347
-0.0303253
-0.0273187
-0.0243354
-0.0213808
-0.0184568
-0.0155618
-0.0126904
-0.00983456
-0.00698578
-0.00413848
-0.00129635
0.00151855
0.00425381
0.00679635
0.00896296
0.0105277
0.0113448
0.0112047
0.00954534
-0.052045
-0.0492155
-0.0463042
-0.043323
-0.0402837
-0.0371987
-0.0340797
-0.0309381
-0.0277838
-0.0246254
-0.0214687
-0.0183169
-0.0151697
-0.0120231
-0.00886956
-0.00569932
-0.00250238
0.000727166
0.00398438
0.00724363
0.0104445
0.0134604
0.0160795
0.0180302
0.0191135
0.0190783
0.0172734
-0.0503017
-0.0474262
-0.0444604
-0.0414144
-0.0382988
-0.0351237
-0.0318992
-0.028634
-0.0253357
-0.0220099
-0.0186598
-0.0152853
-0.011883
-0.00844569
-0.00496273
-0.00142137
0.00219067
0.00588042
0.00964203
0.0134458
0.0172211
0.0208292
0.024017
0.0264669
0.027906
0.0280137
0.0260543
-0.0486922
-0.0457734
-0.0427545
-0.0396441
-0.0364508
-0.0331826
-0.0298467
-0.0264493
-0.0229947
-0.0194852
-0.0159201
-0.0122953
-0.00860318
-0.00483197
-0.000966559
0.00301016
0.00711417
0.0113547
0.0157258
0.0201934
0.024676
0.0290212
0.0329235
0.0360174
0.037931
0.0382342
0.0361257
-0.047229
-0.0442691
-0.0411985
-0.0380237
-0.0347511
-0.031386
-0.0279328
-0.0243942
-0.0207707
-0.0170602
-0.0132574
-0.00935301
-0.00533361
-0.00118142
0.00312502
0.00760909
0.0122924
0.0171883
0.0222918
0.0275656
0.0329165
0.038159
0.0429873
0.0469102
0.049454
0.0500314
0.0478096
-0.0459193
-0.0429202
-0.0397986
-0.0365591
-0.0332052
-0.0297394
-0.0261627
-0.0224736
-0.0186682
-0.0147392
-0.0106753
-0.00646074
-0.00207456
0.00250903
0.00732011
0.0123909
0.0177515
0.0234219
0.0294007
0.0356468
0.0420497
0.0483935
0.0544346
0.0594147
0.0628006
0.0637829
0.0615409
-0.0447641
-0.0417268
-0.0385545
-0.0352493
-0.031812
-0.0282416
-0.0245351
-0.0206865
-0.0166865
-0.0125216
-0.00817321
-0.00361732
0.00117627
0.00624391
0.0116272
0.0173704
0.0235159
0.0300944
0.0371117
0.0445265
0.0522208
0.0599695
0.0673985
0.0738146
0.0783612
0.0799712
0.077899
-0.0437571
-0.040682
-0.0374587
-0.0340867
-0.0305637
-0.0268849
-0.0230428
-0.0190262
-0.0148196
-0.0104021
-0.0057467
-0.000819226
0.00442212
0.010027
0.0160518
0.0225573
0.0296026
0.037235
0.0454731
0.0542817
0.0635383
0.0729895
0.0821861
0.0904655
0.096599
0.0992042
0.0976408
-0.0428851
-0.0397721
-0.0364973
-0.0330573
-0.0294464
-0.0256558
-0.0216731
-0.0174812
-0.0130576
-0.00837286
-0.00339003
0.00193695
0.00766392
0.0138569
0.0205913
0.027949
0.0360121
0.0448516
0.0545079
0.0649615
0.0760928
0.0876292
0.0990793
0.10967
0.118046
0.122245
0.12174
-0.0421294
-0.0389782
-0.0356513
-0.0321425
-0.0284424
-0.0245377
-0.0204109
-0.0160383
-0.0113897
-0.00642629
-0.00109967
0.00464993
0.0108948
0.0177207
0.025226
0.0335195
0.0427139
0.0529128
0.0641905
0.0765572
0.0899121
0.10398
0.11823
0.131782
0.143321
0.150025
0.151409
-0.0414687
-0.0382794
-0.0349007
-0.0313231
-0.0275336
-0.0235144
-0.0192422
-0.0146867
-0.00980922
-0.00456079
0.00111954
0.00730677
0.0140919
0.0215832
0.0299067
0.0392039
0.0496263
0.0613221
0.0744144
0.0889631
0.104912
0.122009
0.139713
0.157116
0.172914
0.183521
0.188032
-0.0408844
-0.0376581
-0.0342288
-0.0305842
-0.0267073
-0.0225758
-0.0181607
-0.0134247
-0.00832035
-0.00278822
0.00324582
0.00987302
0.0172045
0.0253736
0.0345375
0.0448762
0.056589
0.069882
0.0849475
0.101922
0.12083
0.141488
0.163405
0.185716
0.207058
0.223501
0.233085
-0.0403663
-0.0371055
-0.0336291
-0.0299216
-0.0259626
-0.0217251
-0.0171746
-0.012267
-0.00694644
-0.00114294
0.00523063
0.0122818
0.0201421
0.0289707
0.038958
0.0503267
0.063332
0.0782522
0.095374
0.114949
0.137142
0.161909
0.188898
0.217314
0.245831
0.270314
0.288835
-0.0399182
-0.0366279
-0.0331105
-0.0293478
-0.0253161
-0.0209844
-0.0163131
-0.0112519
-0.00573716
0.000310576
0.00699039
0.0144247
0.0227641
0.0321922
0.0429315
0.0552473
0.0694545
0.0859134
0.105031
0.127225
0.152894
0.182276
0.215355
0.251527
0.289579
0.325443
0.360703
-0.0395641
-0.0362519
-0.0327031
-0.0288975
-0.0248084
-0.0204016
-0.0156334
-0.0104485
-0.004777
0.00146826
0.008396
0.0161407
0.0248684
0.0347824
0.0461321
0.059219
0.0744116
0.0921479
0.112963
0.137475
0.166426
0.200564
0.240665
0.286929
0.339177
0.394962
0.461012
-0.0393588
-0.0360364
-0.0324711
-0.0286412
-0.0245184
-0.0200662
-0.0152385
-0.00997668
-0.00420704
0.00216237
0.00924619
0.0171862
0.026158
0.0363769
0.0481091
0.0616784
0.0774887
0.0960306
0.117937
0.143986
0.175275
0.213196
0.259938
0.318073
0.391732
0.483882
0.609452
-0.0393626
-0.0360464
-0.032485
-0.0286562
-0.0245313
-0.0200734
-0.0152356
-0.00995872
-0.0041681
0.00222924
0.00934921
0.0173351
0.0263645
0.0366552
0.0484771
0.0621595
0.0781164
0.0968541
0.119043
0.145522
0.177572
0.216944
0.267152
0.333757
0.430721
0.574832
0.795401
)
;

boundaryField
{
    movingWall
    {
        type            zeroGradient;
    }
    fixedWalls
    {
        type            zeroGradient;
    }
    frontAndBack
    {
        type            empty;
    }
    procBoundary4to5
    {
        type            processor;
        value           nonuniform List<scalar> 
48
(
-0.0996781
-0.0996839
-0.0995736
-0.099347
-0.0990047
-0.0985472
-0.0979753
-0.0972901
-0.0964932
-0.0955862
-0.0945714
-0.0934514
-0.0922292
-0.0909083
-0.0894928
-0.0861592
-0.0842557
-0.0822852
-0.0822852
-0.0805688
-0.0787678
-0.0768903
-0.0749455
-0.0729438
-0.0708971
-0.0688186
-0.0667231
-0.0646268
-0.0625471
-0.060503
-0.058514
-0.0566003
-0.0547817
-0.053077
-0.0515025
-0.0500712
-0.048791
-0.0476636
-0.0466834
-0.045838
-0.045109
-0.0444752
-0.043917
-0.0434229
-0.0429951
-0.0426552
-0.0424548
-0.0424503
)
;
    }
    procBoundary4to6
    {
        type            processor;
        value           nonuniform List<scalar> 
30
(
-0.0980404
-0.0964548
-0.0948034
-0.0930911
-0.091323
-0.0895042
-0.0876402
-0.085736
-0.0837958
-0.0818223
-0.0798159
-0.0777734
-0.0756873
-0.0735441
-0.0713243
-0.0690022
-0.0665477
-0.0639307
-0.0611297
-0.0581444
-0.0550133
-0.0518304
-0.0487544
-0.0459963
-0.0437792
-0.0422707
-0.0415128
-0.0413965
-0.0417621
-0.0425446
)
;
    }
}


// ************************************************************************* //
