/*--------------------------------*- C++ -*----------------------------------*\
  =========                 |
  \\      /  F ield         | OpenFOAM: The Open Source CFD Toolbox
   \\    /   O peration     | Website:  https://openfoam.org
    \\  /    A nd           | Version:  9
     \\/     M anipulation  |
\*---------------------------------------------------------------------------*/
FoamFile
{
    format      ascii;
    class       surfaceScalarField;
    location    "3.5";
    object      phi;
}
// * * * * * * * * * * * * * * * * * * * * * * * * * * * * * * * * * * * * * //

dimensions      [0 3 -1 0 0 0 0];

internalField   nonuniform List<scalar> 
2445
(
-4.01492e-07
-1.85482e-06
-4.21222e-07
-1.96656e-06
-4.40954e-07
-2.07849e-06
-4.60637e-07
-2.19045e-06
-4.80247e-07
-2.30232e-06
-4.99809e-07
-2.41406e-06
-5.19423e-07
-2.52576e-06
-5.39291e-07
-2.63779e-06
-5.59755e-07
-2.75093e-06
-5.81328e-07
-2.86652e-06
-6.04707e-07
-2.98675e-06
-6.30762e-07
-3.11477e-06
-6.60453e-07
-3.2549e-06
-6.94676e-07
-3.41252e-06
-7.33975e-07
-3.59369e-06
-7.78138e-07
-3.80422e-06
-8.25689e-07
-4.04804e-06
-8.73349e-07
-4.32472e-06
-9.1563e-07
-4.62632e-06
-9.44768e-07
-4.93392e-06
-9.51293e-07
-5.21478e-06
-9.25461e-07
-5.42148e-06
-8.59677e-07
-5.49506e-06
-7.51571e-07
-5.37415e-06
-6.06844e-07
-5.01044e-06
-4.40346e-07
-4.38786e-06
-2.74039e-07
-3.53682e-06
-1.32114e-07
-2.53301e-06
-3.56807e-08
-1.47648e-06
-4.59983e-07
-3.14708e-07
-1.83384e-06
-3.35851e-07
-1.94542e-06
-3.57089e-07
-2.05725e-06
-3.7836e-07
-2.16918e-06
-3.99629e-07
-2.28105e-06
-4.20896e-07
-2.39279e-06
-4.42226e-07
-2.50443e-06
-4.63773e-07
-2.61625e-06
-4.8582e-07
-2.72888e-06
-5.08808e-07
-2.84354e-06
-5.33364e-07
-2.96219e-06
-5.60296e-07
-3.08784e-06
-5.90546e-07
-3.22465e-06
-6.25051e-07
-3.37801e-06
-6.64499e-07
-3.55424e-06
-7.08952e-07
-3.75977e-06
-7.57337e-07
-3.99966e-06
-8.06891e-07
-4.27516e-06
-8.52674e-07
-4.58053e-06
-8.87372e-07
-4.89922e-06
-9.01696e-07
-5.20046e-06
-8.85639e-07
-5.43753e-06
-8.30786e-07
-5.54992e-06
-7.33462e-07
-5.47147e-06
-5.97886e-07
-5.14602e-06
-4.3776e-07
-4.54798e-06
-2.74702e-07
-3.69988e-06
-1.33466e-07
-2.67424e-06
-3.63479e-08
-1.5736e-06
-4.96331e-07
-2.27419e-07
-1.81152e-06
-2.50008e-07
-1.92283e-06
-2.72791e-07
-2.03447e-06
-2.95704e-07
-2.14627e-06
-3.18701e-07
-2.25806e-06
-3.41763e-07
-2.36973e-06
-3.64926e-07
-2.48127e-06
-3.88305e-07
-2.59287e-06
-4.12124e-07
-2.70506e-06
-4.36761e-07
-2.8189e-06
-4.62767e-07
-2.93619e-06
-4.90885e-07
-3.05972e-06
-5.22016e-07
-3.19352e-06
-5.57113e-07
-3.34292e-06
-5.96965e-07
-3.51439e-06
-6.41856e-07
-3.71488e-06
-6.91073e-07
-3.95044e-06
-7.42332e-07
-4.22391e-06
-7.91231e-07
-4.53163e-06
-8.30939e-07
-4.85951e-06
-8.52419e-07
-5.17898e-06
-8.45507e-07
-5.44445e-06
-8.01087e-07
-5.59434e-06
-7.14268e-07
-5.55829e-06
-5.87813e-07
-5.27247e-06
-4.34232e-07
-4.70157e-06
-2.7471e-07
-3.8594e-06
-1.34473e-07
-2.81448e-06
-3.69141e-08
-1.67116e-06
-5.33245e-07
-1.39573e-07
-1.78782e-06
-1.63639e-07
-1.89876e-06
-1.88008e-07
-2.0101e-06
-2.12613e-07
-2.12166e-06
-2.37401e-07
-2.23327e-06
-2.62341e-07
-2.34479e-06
-2.87444e-07
-2.45616e-06
-3.12789e-07
-2.56752e-06
-3.38554e-07
-2.6793e-06
-3.6505e-07
-2.7924e-06
-3.9276e-07
-2.90848e-06
-4.22354e-07
-3.03013e-06
-4.5468e-07
-3.16119e-06
-4.90679e-07
-3.30692e-06
-5.31209e-07
-3.47386e-06
-5.76729e-07
-3.66936e-06
-6.26838e-07
-3.90033e-06
-6.79693e-07
-4.17105e-06
-7.31414e-07
-4.47991e-06
-7.7567e-07
-4.81526e-06
-8.03738e-07
-5.15091e-06
-8.05391e-07
-5.44279e-06
-7.70922e-07
-5.62881e-06
-6.94312e-07
-5.6349e-06
-5.76897e-07
-5.38989e-06
-4.29959e-07
-4.8485e-06
-2.74181e-07
-4.01518e-06
-1.35186e-07
-2.95347e-06
-3.73895e-08
-1.76896e-06
-5.70635e-07
-5.111e-08
-1.76273e-06
-7.66866e-08
-1.87319e-06
-1.0268e-07
-1.98411e-06
-1.29027e-07
-2.09531e-06
-1.55667e-07
-2.20663e-06
-1.82561e-07
-2.31789e-06
-2.09702e-07
-2.42902e-06
-2.37138e-07
-2.54009e-06
-2.65004e-07
-2.65143e-06
-2.93555e-07
-2.76385e-06
-3.23202e-07
-2.87883e-06
-3.54544e-07
-2.99878e-06
-3.88364e-07
-3.12737e-06
-4.25572e-07
-3.26971e-06
-4.67064e-07
-3.43236e-06
-5.13433e-07
-3.62299e-06
-5.64544e-07
-3.84922e-06
-6.18953e-07
-4.11664e-06
-6.73283e-07
-4.42558e-06
-7.21709e-07
-4.76683e-06
-7.55871e-07
-5.11675e-06
-7.65563e-07
-5.4331e-06
-7.4059e-07
-5.65378e-06
-6.73886e-07
-5.7016e-06
-5.65394e-07
-5.49838e-06
-4.25138e-07
-4.98876e-06
-2.73237e-07
-4.16708e-06
-1.35659e-07
-3.09105e-06
-3.77867e-08
-1.86683e-06
-6.08422e-07
3.80352e-08
-1.73621e-06
1.09148e-08
-1.84607e-06
-1.67447e-08
-1.95645e-06
-4.48805e-08
-2.06718e-06
-7.34331e-08
-2.17808e-06
-1.02355e-07
-2.28897e-06
-1.31625e-07
-2.39975e-06
-1.61268e-07
-2.51044e-06
-1.91379e-07
-2.62132e-06
-2.22162e-07
-2.73307e-06
-2.53964e-07
-2.84703e-06
-2.87308e-07
-2.96544e-06
-3.22906e-07
-3.09177e-06
-3.61625e-07
-3.23099e-06
-4.04367e-07
-3.38962e-06
-4.51825e-07
-3.57553e-06
-5.04085e-07
-3.79696e-06
-5.60064e-07
-4.06066e-06
-6.16858e-07
-4.36879e-06
-6.69151e-07
-4.71454e-06
-7.08983e-07
-5.07692e-06
-7.26245e-07
-5.41584e-06
-7.10343e-07
-5.66968e-06
-6.5325e-07
-5.7587e-06
-5.53543e-07
-5.59809e-06
-4.19961e-07
-5.12234e-06
-2.72006e-07
-4.31503e-06
-1.35954e-07
-3.2271e-06
-3.81205e-08
-1.96466e-06
-6.46542e-07
1.27935e-07
-1.70823e-06
9.9235e-08
-1.81737e-06
6.98681e-08
-1.92708e-06
3.98935e-08
-2.0372e-06
9.37014e-09
-2.14755e-06
-2.1652e-08
-2.25795e-06
-5.31401e-08
-2.36827e-06
-8.50978e-08
-2.47849e-06
-1.17589e-07
-2.58883e-06
-1.5077e-07
-2.69989e-06
-1.84926e-07
-2.81287e-06
-2.20509e-07
-2.92986e-06
-2.58156e-07
-3.05413e-06
-2.98675e-07
-3.19047e-06
-3.42955e-07
-3.34534e-06
-3.91756e-07
-3.52673e-06
-4.45343e-07
-3.74337e-06
-5.02953e-07
-4.00305e-06
-5.62125e-07
-4.30962e-06
-6.18049e-07
-4.65861e-06
-6.63193e-07
-5.03177e-06
-6.87609e-07
-5.39142e-06
-6.80394e-07
-5.6769e-06
-6.32631e-07
-5.80646e-06
-5.41563e-07
-5.68915e-06
-4.14613e-07
-5.24929e-06
-2.70616e-07
-4.45903e-06
-1.36133e-07
-3.36159e-06
-3.84074e-08
-2.06239e-06
-6.8495e-07
2.1867e-07
-1.67876e-06
1.88353e-07
-1.78705e-06
1.57234e-07
-1.89596e-06
1.25369e-07
-2.00534e-06
9.2813e-08
-2.115e-06
5.96198e-08
-2.22476e-06
2.5829e-08
-2.33447e-06
-8.54691e-09
-2.44411e-06
-4.35457e-08
-2.55383e-06
-7.92801e-08
-2.66415e-06
-1.15978e-07
-2.77617e-06
-1.54022e-07
-2.89181e-06
-1.93972e-07
-3.01418e-06
-2.3657e-07
-3.14787e-06
-2.82672e-07
-3.29924e-06
-3.33075e-07
-3.47633e-06
-3.88188e-07
-3.68826e-06
-4.47526e-07
-3.94372e-06
-5.09041e-07
-4.2481e-06
-5.68418e-07
-4.59923e-06
-6.18577e-07
-4.98161e-06
-6.49787e-07
-5.36021e-06
-6.50915e-07
-5.67577e-06
-6.12224e-07
-5.84515e-06
-5.29651e-07
-5.77173e-06
-4.09269e-07
-5.36968e-06
-2.69195e-07
-4.5991e-06
-1.36266e-07
-3.49452e-06
-3.86657e-08
-2.15999e-06
-7.23615e-07
3.10324e-07
-1.64777e-06
2.7835e-07
-1.75507e-06
2.45433e-07
-1.86305e-06
2.11624e-07
-1.97153e-06
1.76974e-07
-2.08035e-06
1.41537e-07
-2.18932e-06
1.05357e-07
-2.2983e-06
6.84602e-08
-2.40721e-06
3.08342e-08
-2.5162e-06
-7.59884e-09
-2.62572e-06
-4.70157e-08
-2.73676e-06
-8.77282e-08
-2.8511e-06
-1.30222e-07
-2.97168e-06
-1.75165e-07
-3.10293e-06
-2.23366e-07
-3.25104e-06
-2.75633e-07
-3.42406e-06
-3.32484e-07
-3.63141e-06
-3.93676e-07
-3.88252e-06
-4.57541e-07
-4.18424e-06
-5.20245e-07
-4.53653e-06
-5.75175e-07
-4.92668e-06
-6.1287e-07
-5.32252e-06
-6.22038e-07
-5.6666e-06
-5.92192e-07
-5.87499e-06
-5.17983e-07
-5.84594e-06
-4.04097e-07
-5.48356e-06
-2.67872e-07
-4.73533e-06
-1.36421e-07
-3.62597e-06
-3.89154e-08
-2.2575e-06
-7.62531e-07
4.02986e-07
-1.61522e-06
3.69313e-07
-1.7214e-06
3.3455e-07
-1.82828e-06
2.98741e-07
-1.93572e-06
2.61933e-07
-2.04354e-06
2.24178e-07
-2.15156e-06
1.85524e-07
-2.25964e-06
1.46006e-07
-2.3677e-06
1.05633e-07
-2.47583e-06
6.43603e-08
-2.58445e-06
2.20602e-08
-2.69446e-06
-2.15173e-08
-2.80752e-06
-6.6781e-08
-2.92642e-06
-1.14321e-07
-3.05539e-06
-1.64888e-07
-3.20047e-06
-2.19278e-07
-3.36967e-06
-2.7809e-07
-3.5726e-06
-3.41282e-07
-3.81933e-06
-4.07538e-07
-4.11798e-06
-4.73486e-07
-4.47058e-06
-5.32992e-07
-4.86718e-06
-5.7691e-07
-5.2786e-06
-5.93859e-07
-5.64965e-06
-5.72665e-07
-5.89619e-06
-5.06712e-07
-5.91189e-06
-3.99249e-07
-5.59102e-06
-2.66772e-07
-4.8678e-06
-1.36672e-07
-3.75607e-06
-3.91778e-08
-2.35499e-06
-8.01709e-07
4.9675e-07
-1.58107e-06
4.61333e-07
-1.68598e-06
4.24672e-07
-1.79162e-06
3.86804e-07
-1.89785e-06
3.47772e-07
-2.00451e-06
3.07622e-07
-2.11142e-06
2.66407e-07
-2.21843e-06
2.24169e-07
-2.32546e-06
1.80934e-07
-2.43259e-06
1.36687e-07
-2.5402e-06
9.13446e-08
-2.64911e-06
4.47171e-08
-2.7609e-06
-3.5299e-09
-2.87817e-06
-5.39069e-08
-3.00501e-06
-1.07094e-07
-3.14729e-06
-1.63862e-07
-3.3129e-06
-2.2486e-07
-3.5116e-06
-2.90216e-07
-3.75397e-06
-3.58929e-07
-4.04927e-06
-4.28074e-07
-4.40144e-06
-4.92005e-07
-4.80325e-06
-5.41928e-07
-5.22868e-06
-5.66439e-07
-5.62514e-06
-5.53741e-07
-5.90889e-06
-4.95964e-07
-5.96967e-06
-3.94867e-07
-5.69212e-06
-2.66018e-07
-4.99665e-06
-1.37094e-07
-3.88499e-06
-3.9476e-08
-2.45261e-06
-8.41185e-07
5.91709e-07
-1.54529e-06
5.54501e-07
-1.64878e-06
5.15889e-07
-1.75301e-06
4.759e-07
-1.85786e-06
4.34573e-07
-1.96318e-06
3.91951e-07
-2.06879e-06
3.48086e-07
-2.17456e-06
3.03029e-07
-2.2804e-06
2.56818e-07
-2.38638e-06
2.09466e-07
-2.49285e-06
1.6093e-07
-2.60058e-06
1.11078e-07
-2.71104e-06
5.96462e-08
-2.82674e-06
6.2069e-09
-2.95157e-06
-4.98452e-08
-3.09123e-06
-1.09237e-07
-3.25351e-06
-1.72645e-07
-3.44819e-06
-2.40337e-07
-3.68628e-06
-3.11596e-07
-3.97801e-06
-3.83921e-07
-4.32911e-06
-4.5216e-07
-4.73501e-06
-5.07909e-07
-5.17293e-06
-5.39805e-07
-5.59325e-06
-5.35487e-07
-5.9132e-06
-4.85844e-07
-6.01931e-06
-3.91077e-07
-5.78689e-06
-2.65732e-07
-5.122e-06
-1.37764e-07
-4.01296e-06
-3.98344e-08
-2.55054e-06
-8.81019e-07
6.87958e-07
-1.50783e-06
6.48909e-07
-1.60973e-06
6.08288e-07
-1.71239e-06
5.66115e-07
-1.81569e-06
5.2242e-07
-1.91949e-06
4.77245e-07
-2.02362e-06
4.30641e-07
-2.12796e-06
3.82664e-07
-2.23242e-06
3.33365e-07
-2.33709e-06
2.82782e-07
-2.44227e-06
2.30908e-07
-2.5487e-06
1.77664e-07
-2.6578e-06
1.2286e-07
-2.77194e-06
6.61459e-08
-2.89486e-06
6.99818e-09
-3.03209e-06
-5.52527e-08
-3.19126e-06
-1.21292e-07
-3.38215e-06
-1.91496e-07
-3.61608e-06
-2.65403e-07
-3.9041e-06
-3.40917e-07
-4.2536e-06
-4.13378e-07
-4.66255e-06
-4.7481e-07
-5.1115e-06
-5.13951e-07
-5.5541e-06
-5.17936e-07
-5.90922e-06
-4.76427e-07
-6.06082e-06
-3.87992e-07
-5.87532e-06
-2.66029e-07
-5.24396e-06
-1.3876e-07
-4.14023e-06
-4.02791e-08
-2.64902e-06
-9.21298e-07
7.8559e-07
-1.46864e-06
7.44648e-07
-1.56879e-06
7.01958e-07
-1.6697e-06
6.57532e-07
-1.77126e-06
6.11395e-07
-1.87335e-06
5.63584e-07
-1.97581e-06
5.1415e-07
-2.07852e-06
4.63152e-07
-2.18143e-06
4.10655e-07
-2.28459e-06
3.56716e-07
-2.38833e-06
3.01366e-07
-2.49335e-06
2.44576e-07
-2.60101e-06
1.86222e-07
-2.71358e-06
1.26036e-07
-2.83467e-06
6.35765e-08
-2.96963e-06
-1.76382e-09
-3.12592e-06
-7.06426e-08
-3.31327e-06
-1.43535e-07
-3.54319e-06
-2.20202e-07
-3.82744e-06
-2.9893e-07
-4.17487e-06
-3.75553e-07
-4.58592e-06
-4.42553e-07
-5.0445e-06
-4.88833e-07
-5.50782e-06
-5.01088e-07
-5.89697e-06
-4.67763e-07
-6.09414e-06
-3.85705e-07
-5.95738e-06
-2.67021e-07
-5.36264e-06
-1.40163e-07
-4.26709e-06
-4.08382e-08
-2.74834e-06
-9.62136e-07
8.84692e-07
8.41801e-07
7.96979e-07
7.50231e-07
-1.72452e-06
7.01575e-07
-1.82469e-06
6.51044e-07
-1.92528e-06
5.98688e-07
-2.02617e-06
5.44569e-07
-2.12731e-06
4.88765e-07
-2.22878e-06
4.31353e-07
-2.33091e-06
3.72395e-07
-2.43439e-06
3.11912e-07
-2.54053e-06
2.49844e-07
-2.65152e-06
1.86004e-07
-2.77083e-06
1.20035e-07
-2.90366e-06
5.14069e-08
-3.05729e-06
-2.05253e-08
-3.24134e-06
-9.62823e-08
-3.46743e-06
-1.75827e-07
-3.74789e-06
-2.57808e-07
-4.09289e-06
-3.38552e-07
-4.50518e-06
-4.11033e-07
-4.97202e-06
-4.64377e-07
-5.45448e-06
-4.84908e-07
-5.87643e-06
-4.59869e-07
-6.11918e-06
-3.84292e-07
-6.03296e-06
-2.68815e-07
-5.47812e-06
-1.42059e-07
-4.39384e-06
-4.15416e-08
-2.84886e-06
-1.00368e-06
8.44285e-07
-1.67537e-06
7.93032e-07
-1.77344e-06
7.39696e-07
-1.87194e-06
6.84325e-07
-1.9708e-06
6.26989e-07
-2.06997e-06
5.67772e-07
-2.16957e-06
5.06772e-07
-2.26991e-06
4.44084e-07
-2.37171e-06
3.79773e-07
-2.47622e-06
3.13842e-07
-2.58558e-06
2.46181e-07
-2.70317e-06
1.7652e-07
-2.834e-06
1.04406e-07
-2.98518e-06
2.9237e-08
-3.16617e-06
-4.95502e-08
-3.38864e-06
-1.32092e-07
-3.66535e-06
-2.17374e-07
-4.00761e-06
-3.02215e-07
-4.42034e-06
-3.80107e-07
-4.89412e-06
-4.4047e-07
-5.39412e-06
-4.69323e-07
-5.84758e-06
-4.5273e-07
-6.13577e-06
-3.83806e-07
-6.10188e-06
-2.71511e-07
-5.59042e-06
-1.44532e-07
-4.52082e-06
-4.24216e-08
-2.95097e-06
-1.0461e-06
9.39756e-07
-1.62377e-06
8.85827e-07
-1.71951e-06
8.29602e-07
-1.81572e-06
7.71128e-07
-1.91232e-06
7.10479e-07
-2.00932e-06
6.47749e-07
-2.10684e-06
5.83057e-07
-2.20522e-06
5.16525e-07
-2.30517e-06
4.48265e-07
-2.40796e-06
3.78337e-07
-2.51566e-06
3.06708e-07
-2.63154e-06
2.33193e-07
-2.76048e-06
1.5742e-07
-2.9094e-06
7.88379e-08
-3.08759e-06
-3.14268e-09
-3.30666e-06
-8.87908e-08
-3.5797e-06
-1.77425e-07
-3.91897e-06
-2.66347e-07
-4.33142e-06
-3.49599e-07
-4.81087e-06
-4.16956e-07
-5.32676e-06
-4.54218e-07
-5.81032e-06
-4.46293e-07
-6.1437e-06
-3.84272e-07
-6.1639e-06
-2.75197e-07
-5.69949e-06
-1.47673e-07
-4.64835e-06
-4.3513e-08
-3.05513e-06
-1.08961e-06
1.03669e-06
-1.56962e-06
9.80011e-07
-1.66283e-06
9.20816e-07
-1.75652e-06
8.59155e-07
-1.85066e-06
7.95104e-07
-1.94527e-06
7.2877e-07
-2.04051e-06
6.6029e-07
-2.13674e-06
5.89816e-07
-2.2347e-06
5.175e-07
-2.33564e-06
4.43462e-07
-2.44162e-06
3.67738e-07
-2.55582e-06
2.9023e-07
-2.68297e-06
2.10647e-07
-2.82982e-06
1.28499e-07
-3.00544e-06
4.31935e-08
-3.22136e-06
-4.56806e-08
-3.49083e-06
-1.37725e-07
-3.82693e-06
-2.30723e-07
-4.23842e-06
-3.19293e-07
-4.7223e-06
-3.93641e-07
-5.25241e-06
-4.39433e-07
-5.76453e-06
-4.40461e-07
-6.14267e-06
-3.85685e-07
-6.21868e-06
-2.79953e-07
-5.80522e-06
-1.51572e-07
-4.77673e-06
-4.48536e-08
-3.16185e-06
-1.13447e-06
1.13513e-06
-1.51287e-06
1.07562e-06
-1.60332e-06
1.01338e-06
-1.69428e-06
9.48454e-07
-1.78573e-06
8.80923e-07
-1.87774e-06
8.10907e-07
-1.97049e-06
7.38558e-07
-2.06439e-06
6.64059e-07
-2.1602e-06
5.87602e-07
-2.25918e-06
5.09362e-07
-2.36338e-06
4.29444e-07
-2.4759e-06
3.47829e-07
-2.60136e-06
2.64311e-07
-2.7463e-06
1.78464e-07
-2.9196e-06
8.96967e-08
-3.13259e-06
-2.50324e-09
-3.39863e-06
-9.80029e-08
-3.73143e-06
-1.9507e-07
-4.14135e-06
-2.88927e-07
-4.62844e-06
-3.70277e-07
-5.17106e-06
-4.24753e-07
-5.71005e-06
-4.35086e-07
-6.13234e-06
-3.88002e-07
-6.26576e-06
-2.8584e-07
-5.90738e-06
-1.56323e-07
-4.90625e-06
-4.64841e-08
-3.27169e-06
-1.18095e-06
1.23507e-06
-1.45345e-06
1.17267e-06
-1.54093e-06
1.10732e-06
-1.62893e-06
1.03907e-06
-1.71748e-06
9.67992e-07
-1.80666e-06
8.9423e-07
-1.89673e-06
8.17952e-07
-1.98811e-06
7.39369e-07
-2.08162e-06
6.58713e-07
-2.17853e-06
5.76206e-07
-2.28087e-06
4.92023e-07
-2.39172e-06
4.06219e-07
-2.51556e-06
3.18671e-07
-2.65875e-06
2.29017e-07
-2.82994e-06
1.36685e-07
-3.04026e-06
4.10804e-08
-3.30302e-06
-5.79339e-08
-3.63242e-06
-1.59073e-07
-4.04021e-06
-2.58188e-07
-4.52933e-06
-3.46562e-07
-5.08269e-06
-4.09907e-07
-5.64671e-06
-4.29966e-07
-6.11228e-06
-3.91135e-07
-6.3046e-06
-2.92899e-07
-6.00562e-06
-1.6202e-07
-5.03712e-06
-4.84489e-08
-3.38526e-06
-1.2294e-06
1.3365e-06
-1.39131e-06
1.27117e-06
-1.4756e-06
1.20266e-06
-1.56042e-06
1.13102e-06
-1.64584e-06
1.05636e-06
-1.732e-06
9.78816e-07
-1.81918e-06
8.98576e-07
-1.90788e-06
8.1588e-07
-1.99892e-06
7.30995e-07
-2.09364e-06
6.44195e-07
-2.19407e-06
5.55711e-07
-2.30323e-06
4.65673e-07
-2.42552e-06
3.74032e-07
-2.56711e-06
2.80494e-07
-2.73641e-06
1.84513e-07
-2.94428e-06
8.54205e-08
-3.20393e-06
-1.71454e-08
-3.52985e-06
-1.22353e-07
-3.935e-06
-2.26703e-07
-4.42498e-06
-3.22131e-07
-4.98726e-06
-3.94555e-07
-5.57428e-06
-4.24828e-07
-6.08201e-06
-3.94941e-07
-6.33448e-06
-3.01143e-07
-6.09942e-06
-1.68759e-07
-5.16951e-06
-5.07961e-08
-3.50322e-06
-1.2802e-06
1.43939e-06
-1.32642e-06
1.37108e-06
-1.40729e-06
1.29938e-06
-1.48872e-06
1.22435e-06
-1.57081e-06
1.14609e-06
-1.65374e-06
1.06475e-06
-1.73784e-06
9.8055e-07
-1.82368e-06
8.93749e-07
-1.91212e-06
8.04651e-07
-2.00454e-06
7.1357e-07
-2.10299e-06
6.20793e-07
-2.21046e-06
5.26516e-07
-2.33124e-06
4.30761e-07
-2.47136e-06
3.33298e-07
-2.63894e-06
2.33607e-07
-2.84459e-06
1.30969e-07
-3.10129e-06
2.4813e-08
-3.42369e-06
-8.44633e-08
-3.82573e-06
-1.94026e-07
-4.31542e-06
-2.96543e-07
-4.88474e-06
-3.7828e-07
-5.49255e-06
-4.19325e-07
-6.04096e-06
-3.9921e-07
-6.3546e-06
-3.1055e-07
-6.18808e-06
-1.76633e-07
-5.30343e-06
-5.35784e-08
-3.62628e-06
-1.33377e-06
1.54366e-06
-1.25874e-06
1.47237e-06
-1.336e-06
1.39749e-06
-1.41384e-06
1.31907e-06
-1.49239e-06
1.23722e-06
-1.5719e-06
1.15213e-06
-1.65275e-06
1.06402e-06
-1.73556e-06
9.73175e-07
-1.82128e-06
8.79927e-07
-1.9113e-06
7.84631e-07
-2.00769e-06
6.87623e-07
-2.11345e-06
5.89154e-07
-2.23277e-06
4.89308e-07
-2.37151e-06
3.87914e-07
-2.53755e-06
2.84486e-07
-2.74116e-06
1.7826e-07
-2.99507e-06
6.84798e-08
-3.31391e-06
-4.48685e-08
-3.71238e-06
-1.59626e-07
-4.20066e-06
-2.69273e-07
-4.7751e-06
-3.60574e-07
-5.40124e-06
-4.13016e-07
-5.98852e-06
-4.03656e-07
-6.36396e-06
-3.21052e-07
-6.27068e-06
-1.85731e-07
-5.43875e-06
-5.68544e-08
-3.75515e-06
-1.39063e-06
1.64923e-06
-1.18831e-06
1.57499e-06
-1.26175e-06
1.49695e-06
-1.3358e-06
1.4152e-06
-1.41064e-06
1.32986e-06
-1.48656e-06
1.2411e-06
-1.564e-06
1.14918e-06
-1.64365e-06
1.05441e-06
-1.7265e-06
9.57141e-07
-1.81403e-06
8.57761e-07
-1.90831e-06
7.56643e-07
-2.01233e-06
6.54086e-07
-2.13021e-06
5.50226e-07
-2.26765e-06
4.44942e-07
-2.43227e-06
3.37778e-07
-2.63399e-06
2.27939e-07
-2.88523e-06
1.14507e-07
-3.20048e-06
-2.9203e-09
-3.59495e-06
-1.22867e-07
-4.08071e-06
-2.39692e-07
-4.65827e-06
-3.40826e-07
-5.30011e-06
-4.05358e-07
-5.92399e-06
-4.07897e-07
-6.36142e-06
-3.32524e-07
-6.34605e-06
-1.96139e-07
-5.57513e-06
-6.06907e-08
-3.8906e-06
-1.45132e-06
1.75599e-06
-1.11518e-06
1.67886e-06
-1.18463e-06
1.59777e-06
-1.25472e-06
1.51281e-06
-1.32567e-06
1.4241e-06
-1.39785e-06
1.33184e-06
-1.47174e-06
1.2363e-06
-1.5481e-06
1.13779e-06
-1.628e-06
1.03671e-06
-1.71294e-06
9.33446e-07
-1.80505e-06
8.28415e-07
-1.9073e-06
7.21943e-07
-2.02374e-06
6.14205e-07
-2.15991e-06
5.05122e-07
-2.32318e-06
3.9426e-07
-2.52313e-06
2.80802e-07
-2.77177e-06
1.63686e-07
-3.08337e-06
4.21534e-08
-3.47342e-06
-8.29863e-08
-3.95557e-06
-2.07046e-07
-4.53421e-06
-3.18302e-07
-5.18885e-06
-3.95682e-07
-5.8466e-06
-4.11441e-07
-6.34566e-06
-3.44772e-07
-6.41272e-06
-2.07935e-07
-5.71197e-06
-6.51674e-08
-4.03337e-06
-1.51649e-06
1.86381e-06
-1.03946e-06
1.78394e-06
-1.10476e-06
1.69997e-06
-1.17074e-06
1.61199e-06
-1.23769e-06
1.52013e-06
-1.30599e-06
1.42462e-06
-1.37623e-06
1.32572e-06
-1.4492e-06
1.22377e-06
-1.52605e-06
1.11916e-06
-1.60833e-06
1.01232e-06
-1.69821e-06
9.03657e-07
-1.79864e-06
7.93522e-07
-1.91361e-06
6.82113e-07
-2.0485e-06
5.69375e-07
-2.21044e-06
4.54892e-07
-2.40865e-06
3.37826e-07
-2.6547e-06
2.16995e-07
-2.96254e-06
9.13148e-08
-3.34774e-06
-3.90577e-08
-3.8252e-06
-1.70432e-07
-4.40284e-06
-2.92122e-07
-5.06716e-06
-3.83178e-07
-5.75555e-06
-4.13663e-07
-6.31518e-06
-3.57513e-07
-6.46887e-06
-2.21186e-07
-5.8483e-06
-7.03857e-08
-4.18417e-06
-1.58687e-06
1.97261e-06
-9.61343e-07
1.89023e-06
-1.02238e-06
1.80363e-06
-1.08415e-06
1.71291e-06
-1.14697e-06
1.61824e-06
-1.21132e-06
1.51983e-06
-1.27781e-06
1.41795e-06
-1.34733e-06
1.31296e-06
-1.42105e-06
1.20524e-06
-1.50061e-06
1.09521e-06
-1.58819e-06
9.83296e-07
-1.68672e-06
8.69839e-07
-1.80015e-06
7.55042e-07
-1.93371e-06
6.38856e-07
-2.09426e-06
5.2087e-07
-2.29066e-06
4.00223e-07
-2.53405e-06
2.75634e-07
-2.83795e-06
1.45733e-07
-3.21784e-06
1.00601e-08
-3.68953e-06
-1.28761e-07
-4.26402e-06
-2.6123e-07
-4.9347e-06
-3.66861e-07
-5.64992e-06
-4.13781e-07
-6.26826e-06
-3.70358e-07
-6.5123e-06
-2.35951e-07
-5.9827e-06
-7.64833e-08
-4.34364e-06
-1.66336e-06
2.08238e-06
-8.81115e-07
1.9978e-06
-9.37803e-07
1.90894e-06
-9.95288e-07
1.81591e-06
-1.05394e-06
1.71887e-06
-1.11428e-06
1.61804e-06
-1.17698e-06
1.5137e-06
-1.24299e-06
1.40619e-06
-1.31354e-06
1.29589e-06
-1.39031e-06
1.1832e-06
-1.4755e-06
1.06853e-06
-1.57204e-06
9.5219e-07
-1.68381e-06
8.34373e-07
-1.81589e-06
7.15013e-07
-1.9749e-06
5.93686e-07
-2.16934e-06
4.69504e-07
-2.40987e-06
3.41097e-07
-2.70954e-06
2.06845e-07
-3.08359e-06
6.57065e-08
-3.54839e-06
-8.07223e-08
-4.11759e-06
-2.24354e-07
-4.79106e-06
-3.4554e-07
-5.52873e-06
-4.10824e-07
-6.20297e-06
-3.82788e-07
-6.54033e-06
-2.52273e-07
-6.11322e-06
-8.36564e-08
-4.51225e-06
-1.74701e-06
2.19324e-06
-7.9919e-07
2.10693e-06
-8.51501e-07
2.01633e-06
-9.04682e-07
1.92154e-06
-9.59151e-07
1.82272e-06
-1.01547e-06
1.72011e-06
-1.07437e-06
1.61397e-06
-1.13685e-06
1.50462e-06
-1.20419e-06
1.39241e-06
-1.2781e-06
1.27772e-06
-1.36081e-06
1.1609e-06
-1.45522e-06
1.04223e-06
-1.56514e-06
9.21857e-07
-1.69551e-06
7.99669e-07
-1.85271e-06
6.75209e-07
-2.04488e-06
5.4755e-07
-2.28221e-06
4.15244e-07
-2.57723e-06
2.7646e-07
-2.9448e-06
1.29642e-07
-3.40157e-06
-2.4654e-08
-3.96329e-06
-1.79941e-07
-4.63578e-06
-3.17772e-07
-5.3909e-06
-4.03584e-07
-6.11716e-06
-3.94112e-07
-6.5498e-06
-2.70173e-07
-6.23716e-06
-9.21917e-08
-4.69023e-06
-1.8392e-06
2.30559e-06
-7.16138e-07
2.21818e-06
-7.64096e-07
2.12651e-06
-8.13007e-07
2.03068e-06
-8.63327e-07
1.93087e-06
-9.15657e-07
1.82729e-06
-9.70784e-07
1.72017e-06
-1.02973e-06
1.60982e-06
-1.09384e-06
1.49653e-06
-1.16482e-06
1.38064e-06
-1.24491e-06
1.26242e-06
-1.337e-06
1.14209e-06
-1.44481e-06
1.01971e-06
-1.57314e-06
8.95117e-07
-1.72812e-06
7.6778e-07
-1.91754e-06
6.36718e-07
-2.15115e-06
5.00401e-07
-2.44092e-06
3.56819e-07
-2.80122e-06
2.0396e-07
-3.24871e-06
4.13644e-08
-3.8007e-06
-1.26126e-07
-4.46829e-06
-2.81779e-07
-5.23525e-06
-3.90551e-07
-6.00839e-06
-4.03423e-07
-6.53693e-06
-2.89628e-07
-6.35095e-06
-1.02503e-07
-4.87736e-06
-1.94171e-06
2.42027e-06
-6.32718e-07
2.33258e-06
-6.76408e-07
2.24071e-06
-7.21137e-07
2.14478e-06
-7.67394e-07
2.04494e-06
-8.15814e-07
1.94137e-06
-8.67216e-07
1.83429e-06
-9.22655e-07
1.72394e-06
-9.83488e-07
1.61057e-06
-1.05145e-06
1.49441e-06
-1.12876e-06
1.37568e-06
-1.21827e-06
1.25447e-06
-1.3236e-06
1.13075e-06
-1.44942e-06
1.00424e-06
-1.60161e-06
8.74334e-07
-1.78763e-06
7.39951e-07
-2.01677e-06
5.99478e-07
-2.30044e-06
4.50744e-07
-2.65249e-06
2.91343e-07
-3.08931e-06
1.19878e-07
-3.62923e-06
-6.05586e-08
-4.28785e-06
-2.35345e-07
-5.06046e-06
-3.69834e-07
-5.8739e-06
-4.09508e-07
-6.49726e-06
-3.10514e-07
-6.44995e-06
-1.15163e-07
-5.07271e-06
-2.05687e-06
2.53883e-06
-5.49912e-07
2.4519e-06
-5.89476e-07
2.36093e-06
-6.30163e-07
2.26602e-06
-6.72486e-07
2.16731e-06
-7.17102e-07
2.06494e-06
-7.64851e-07
1.95909e-06
-8.16803e-07
1.84992e-06
-8.7432e-07
1.73761e-06
-9.39132e-07
1.62228e-06
-1.01343e-06
1.50403e-06
-1.10001e-06
1.38283e-06
-1.20241e-06
1.25852e-06
-1.3251e-06
1.13067e-06
-1.47376e-06
9.98541e-07
-1.6555e-06
8.60934e-07
-1.87916e-06
7.16119e-07
-2.15563e-06
5.61776e-07
-2.49815e-06
3.9517e-07
-2.9227e-06
2.14082e-07
-3.44815e-06
1.98663e-08
-4.09363e-06
-1.75772e-07
-4.86482e-06
-3.39031e-07
-5.71064e-06
-4.10692e-07
-6.4256e-06
-3.32501e-07
-6.52814e-06
-1.30918e-07
-5.27429e-06
-2.18779e-06
2.66391e-06
-4.68938e-07
2.579e-06
-5.04567e-07
2.49023e-06
-5.41393e-07
2.39768e-06
-5.79942e-07
2.30146e-06
-6.20879e-07
2.20166e-06
-6.65052e-07
2.09839e-06
-7.13528e-07
1.99173e-06
-7.67658e-07
1.88174e-06
-8.29147e-07
1.76845e-06
-9.00142e-07
1.65179e-06
-9.83358e-07
1.5316e-06
-1.08221e-06
1.40752e-06
-1.20102e-06
1.27896e-06
-1.3452e-06
1.14499e-06
-1.52153e-06
1.00426e-06
-1.73843e-06
8.54878e-07
-2.00625e-06
6.9436e-07
-2.33763e-06
5.19685e-07
-2.74803e-06
3.27869e-07
-3.25633e-06
1.18359e-07
-3.88412e-06
-9.99409e-08
-4.64652e-06
-2.94868e-07
-5.51571e-06
-4.04619e-07
-6.31585e-06
-3.54916e-07
-6.57784e-06
-1.50673e-07
-5.47854e-06
-2.33846e-06
2.7997e-06
-3.91254e-07
2.7183e-06
-4.23169e-07
2.63325e-06
-4.56335e-07
2.54458e-06
-4.91279e-07
2.45236e-06
-5.28662e-07
2.35663e-06
-5.69319e-07
2.25741e-06
-6.14302e-07
2.15468e-06
-6.64928e-07
2.04838e-06
-7.22856e-07
1.93841e-06
-7.90166e-07
1.82452e-06
-8.69474e-07
1.70637e-06
-9.64061e-07
1.5834e-06
-1.07805e-06
1.45479e-06
-1.2166e-06
1.3194e-06
-1.38615e-06
1.17565e-06
-1.59468e-06
1.02144e-06
-1.85203e-06
8.54063e-07
-2.17026e-06
6.70236e-07
-2.5642e-06
4.66393e-07
-3.05249e-06
2.40726e-07
-3.65846e-06
-4.07933e-10
-4.40539e-06
-2.32854e-07
-5.28327e-06
-3.88131e-07
-6.16057e-06
-3.76487e-07
-6.58948e-06
-1.75375e-07
-5.67965e-06
-2.51383e-06
2.95268e-06
-3.18501e-07
2.87644e-06
-3.46928e-07
2.79674e-06
-3.7663e-07
2.71358e-06
-4.08122e-07
2.62697e-06
-4.42046e-07
2.53686e-06
-4.79213e-07
2.44319e-06
-5.20635e-07
2.34584e-06
-5.67579e-07
2.24462e-06
-6.21635e-07
2.13925e-06
-6.84791e-07
2.02931e-06
-7.59537e-07
1.91424e-06
-8.48993e-07
1.79325e-06
-9.57061e-07
1.66528e-06
-1.08862e-06
1.52888e-06
-1.24975e-06
1.38221e-06
-1.448e-06
1.22286e-06
-1.69268e-06
1.04787e-06
-1.99526e-06
8.53607e-07
-2.36994e-06
6.35966e-07
-2.83485e-06
3.91378e-07
-3.41387e-06
1.21703e-07
-4.13571e-06
-1.49004e-07
-5.01256e-06
-3.56583e-07
-5.95299e-06
-3.9472e-07
-6.55135e-06
-2.05681e-07
-5.86869e-06
-2.71952e-06
3.13235e-06
-2.52401e-07
3.06296e-06
-2.77535e-07
2.99026e-06
-3.03932e-07
2.91422e-06
-3.32079e-07
2.83476e-06
-3.62589e-07
2.75178e-06
-3.9623e-07
2.6651e-06
-4.33958e-07
2.57449e-06
-4.7697e-07
2.47962e-06
-5.26762e-07
2.38003e-06
-5.85204e-07
2.27513e-06
-6.54633e-07
2.16411e-06
-7.37971e-07
2.04592e-06
-8.38873e-07
1.9192e-06
-9.61903e-07
1.7822e-06
-1.11275e-06
1.63269e-06
-1.29849e-06
1.46791e-06
-1.5279e-06
1.2845e-06
-1.81185e-06
1.07845e-06
-2.16389e-06
8.45088e-07
-2.60149e-06
5.79599e-07
-3.14838e-06
2.81076e-07
-3.83719e-06
-3.30705e-08
-4.69841e-06
-3.0294e-07
-5.68312e-06
-4.05341e-07
-6.44895e-06
-2.41425e-07
-6.0326e-06
-2.96094e-06
3.35211e-06
-1.9456e-07
3.29111e-06
-2.16535e-07
3.22689e-06
-2.39715e-07
3.15937e-06
-2.64555e-07
3.0884e-06
-2.91623e-07
3.0138e-06
-3.21627e-07
2.93529e-06
-3.55455e-07
2.85253e-06
-3.9421e-07
2.76504e-06
-4.39271e-07
2.6722e-06
-4.92362e-07
2.5732e-06
-5.55634e-07
2.46701e-06
-6.31777e-07
2.35229e-06
-7.24155e-07
2.22736e-06
-8.36971e-07
2.09008e-06
-9.75478e-07
1.93782e-06
-1.14623e-06
1.76733e-06
-1.35742e-06
1.57474e-06
-1.61926e-06
1.3555e-06
-1.94465e-06
1.10432e-06
-2.35031e-06
8.15339e-07
-2.8594e-06
4.84415e-07
-3.50627e-06
1.21134e-07
-4.33513e-06
-2.18699e-07
-5.34329e-06
-4.01383e-07
-6.26626e-06
-2.80724e-07
-6.15326e-06
-3.24167e-06
3.62997e-06
-1.46189e-07
3.57849e-06
-1.65051e-07
3.52379e-06
-1.85019e-07
3.46574e-06
-2.06505e-07
3.40414e-06
-2.30022e-07
3.33872e-06
-2.56207e-07
3.26913e-06
-2.85859e-07
3.19489e-06
-3.1997e-07
3.11539e-06
-3.59779e-07
3.02987e-06
-4.06835e-07
2.9373e-06
-4.63068e-07
2.83642e-06
-5.30895e-07
2.7256e-06
-6.13339e-07
2.60282e-06
-7.14186e-07
2.46553e-06
-8.38188e-07
2.3106e-06
-9.91305e-07
2.13423e-06
-1.18105e-06
1.93188e-06
-1.41691e-06
1.69827e-06
-1.71104e-06
1.42733e-06
-2.07937e-06
1.11213e-06
-2.5442e-06
7.45672e-07
-3.13981e-06
3.30271e-07
-3.91973e-06
-8.79881e-08
-4.92503e-06
-3.71444e-07
-5.98281e-06
-3.18785e-07
-6.20592e-06
-3.56045e-06
3.98887e-06
-1.07759e-07
3.94729e-06
-1.23466e-07
3.90242e-06
-1.40147e-07
3.85407e-06
-1.5816e-07
3.802e-06
-1.77954e-07
3.74588e-06
-2.00084e-07
3.68526e-06
-2.25244e-07
3.61959e-06
-2.54298e-07
3.54813e-06
-2.88322e-07
3.46996e-06
-3.28661e-07
3.38389e-06
-3.76992e-07
3.2884e-06
-4.35413e-07
3.18162e-06
-5.06554e-07
3.06115e-06
-5.93718e-07
2.92403e-06
-7.01071e-07
2.76661e-06
-8.33877e-07
2.58441e-06
-9.98856e-07
2.37212e-06
-1.20461e-06
2.1235e-06
-1.46242e-06
1.83141e-06
-1.78727e-06
1.48769e-06
-2.20047e-06
1.08297e-06
-2.73509e-06
6.1215e-07
-3.44892e-06
1.05963e-07
-4.41884e-06
-2.9993e-07
-5.57691e-06
-3.46962e-07
-6.15889e-06
-3.90741e-06
4.45588e-06
-7.8658e-08
4.42353e-06
-9.11183e-08
4.38778e-06
-1.04395e-07
4.34841e-06
-1.18788e-07
4.30513e-06
-1.34671e-07
4.25755e-06
-1.52508e-07
4.20518e-06
-1.72876e-07
4.14738e-06
-1.96495e-07
4.08332e-06
-2.24257e-07
4.01193e-06
-2.57279e-07
3.93189e-06
-2.96951e-07
3.84149e-06
-3.45012e-07
3.73859e-06
-4.03648e-07
3.62047e-06
-4.75603e-07
3.48377e-06
-5.6437e-07
3.32428e-06
-6.74389e-07
3.13685e-06
-8.11427e-07
2.91523e-06
-9.82993e-07
2.65204e-06
-1.19922e-06
2.33868e-06
-1.47392e-06
1.96546e-06
-1.82725e-06
1.52074e-06
-2.29037e-06
9.92283e-07
-2.92045e-06
3.90408e-07
-3.81697e-06
-1.59516e-07
-5.02699e-06
-3.52621e-07
-5.96578e-06
-4.26003e-06
5.05977e-06
-5.70153e-08
5.03482e-06
-6.61657e-08
5.00639e-06
-7.5961e-08
4.97424e-06
-8.66373e-08
4.93805e-06
-9.84879e-08
4.89742e-06
-1.11877e-07
4.8518e-06
-1.27255e-07
4.80049e-06
-1.45183e-07
4.74259e-06
-1.66358e-07
4.67696e-06
-1.91646e-07
4.60213e-06
-2.22126e-07
4.51627e-06
-2.59146e-07
4.41702e-06
-3.044e-07
4.30143e-06
-3.60014e-07
4.16578e-06
-4.28719e-07
4.00538e-06
-5.13992e-07
3.81442e-06
-6.20463e-07
3.58566e-06
-7.54233e-07
3.31038e-06
-9.23944e-07
2.97812e-06
-1.14167e-06
2.57698e-06
-1.4261e-06
2.09277e-06
-1.80617e-06
1.50805e-06
-2.33573e-06
8.12026e-07
-3.12094e-06
9.64696e-08
-4.31143e-06
-3.02784e-07
-5.56653e-06
-4.56282e-06
5.82645e-06
-3.99306e-08
5.80614e-06
-4.58535e-08
5.78242e-06
-5.2245e-08
5.75506e-06
-5.92736e-08
5.72372e-06
-6.71483e-08
5.68797e-06
-7.61273e-08
5.64724e-06
-8.65306e-08
5.60081e-06
-9.87534e-08
5.54774e-06
-1.13287e-07
5.48683e-06
-1.30737e-07
5.41657e-06
-1.5186e-07
5.33501e-06
-1.77594e-07
5.23974e-06
-2.09121e-07
5.12763e-06
-2.47912e-07
4.99479e-06
-2.95879e-07
4.83623e-06
-3.5543e-07
4.64565e-06
-4.29885e-07
4.41501e-06
-5.23589e-07
4.13424e-06
-6.43169e-07
3.79059e-06
-7.98016e-07
3.36887e-06
-1.00439e-06
2.85052e-06
-1.28781e-06
2.21349e-06
-1.69871e-06
1.42835e-06
-2.3358e-06
5.39603e-07
-3.42268e-06
-1.15385e-07
-4.91154e-06
-4.6782e-06
6.773e-06
-2.44554e-08
6.75466e-06
-2.75122e-08
6.73327e-06
-3.0861e-08
6.7086e-06
-3.46023e-08
6.68031e-06
-3.88606e-08
6.64798e-06