/*--------------------------------*- C++ -*----------------------------------*\
  =========                 |
  \\      /  F ield         | OpenFOAM: The Open Source CFD Toolbox
   \\    /   O peration     | Website:  https://openfoam.org
    \\  /    A nd           | Version:  9
     \\/     M anipulation  |
\*---------------------------------------------------------------------------*/
FoamFile
{
    format      ascii;
    class       volScalarField;
    location    "1";
    object      p;
}
// * * * * * * * * * * * * * * * * * * * * * * * * * * * * * * * * * * * * * //

dimensions      [0 2 -2 0 0 0 0];

internalField   nonuniform List<scalar> 
1240
(
0.00127148
0.00126789
0.00125578
0.00123516
0.00120617
0.0011691
0.00112435
0.00107243
0.00101397
0.000949683
0.000880347
0.000806809
0.00072995
0.00065067
0.000569869
0.000488433
0.000407213
0.000327019
0.000248601
0.000172653
9.97979e-05
3.05916e-05
-3.44762e-05
-9.49815e-05
-0.000150558
-0.000200891
-0.000245711
-0.000284787
-0.00031792
-0.00034495
-0.000365756
-0.000380286
-0.000388602
-0.000390967
-0.000388014
-0.000381018
-0.000372075
-0.000364264
0.0012248
0.00122052
0.00120817
0.00118775
0.00115942
0.00112345
0.00108023
0.00103024
0.000974086
0.000912438
0.000846045
0.000775702
0.000702242
0.000626517
0.000549377
0.000471657
0.000394161
0.000317655
0.000242847
0.000170394
0.000100884
3.48436e-05
-2.72652e-05
-8.50437e-05
-0.000138151
-0.000186298
-0.000229248
-0.000266806
-0.000298823
-0.000325194
-0.000345876
-0.0003609
-0.000370414
-0.000374731
-0.000374448
-0.00037058
-0.000364295
-0.000356467
0.00119475
0.00119003
0.00117747
0.00115708
0.00112902
0.00109355
0.00105106
0.00100204
0.000947061
0.000886787
0.000821954
0.000753338
0.00068175
0.000608019
0.000532971
0.000457416
0.000382134
0.000307862
0.000235285
0.000165034
9.7671e-05
3.37e-05
-2.64425e-05
-8.23815e-05
-0.0001338
-0.000180437
-0.000222081
-0.000258569
-0.000289782
-0.000315652
-0.000336164
-0.000351373
-0.000361425
-0.000366584
-0.000367323
-0.000364392
-0.000358052
-0.00034748
0.00117272
0.00116773
0.00115498
0.00113452
0.0011065
0.0010712
0.00102899
0.000980369
0.000925914
0.000866289
0.000802221
0.00073449
0.000663902
0.000591277
0.000517435
0.000443176
0.000369265
0.000296427
0.000225329
0.000156582
9.07305e-05
2.82544e-05
-3.04319e-05
-8.49779e-05
-0.000135093
-0.000180542
-0.000221141
-0.000256753
-0.000287286
-0.00031269
-0.00033296
-0.000348148
-0.000358359
-0.000363767
-0.0003647
-0.000361671
-0.000354232
-0.00034035
0.00115473
0.00114958
0.0011367
0.00111612
0.00108803
0.00105269
0.00101049
0.000961918
0.000907571
0.000848121
0.000784304
0.000716905
0.00064674
0.000574636
0.000501413
0.000427872
0.000354775
0.00028284
0.000212724
0.000145024
8.02687e-05
1.89173e-05
-3.86382e-05
-9.20713e-05
-0.000141118
-0.00018557
-0.000225271
-0.00026011
-0.000290014
-0.000314949
-0.000334914
-0.000349943
-0.000360097
-0.000365459
-0.000366231
-0.000362744
-0.000354035
-0.000337173
0.00113995
0.00113482
0.00112188
0.00110121
0.00107298
0.00103746
0.000995046
0.00094624
0.000891649
0.000831961
0.000767932
0.000700366
0.000630096
0.000557964
0.000484806
0.000411431
0.000338609
0.000267056
0.00019743
0.000130318
6.62359e-05
5.62716e-06
-5.11368e-05
-0.000103753
-0.000151985
-0.000195649
-0.000234615
-0.000268796
-0.00029814
-0.000322624
-0.000342247
-0.000357025
-0.000366978
-0.000372114
-0.000372535
-0.000368447
-0.000358537
-0.000339255
0.00112723
0.0011223
0.00110945
0.00108877
0.00106041
0.00102464
0.000981873
0.000932624
0.000877515
0.000817258
0.000752635
0.000684475
0.00061364
0.000540997
0.000467406
0.000393695
0.000320649
0.000248995
0.000179395
0.000112433
4.86177e-05
-1.16201e-05
-6.79273e-05
-0.000120023
-0.000167693
-0.000210782
-0.000249185
-0.000282838
-0.000311707
-0.000335781
-0.00035506
-0.000369545
-0.000379223
-0.000384048
-0.000384045
-0.000379346
-0.000368409
-0.00034728
0.00111505
0.00111058
0.00109804
0.0010775
0.00104911
0.00101313
0.00096997
0.000920169
0.000864372
0.000803314
0.000737808
0.000668721
0.000596948
0.000523391
0.000448942
0.00037446
0.000300753
0.000228565
0.00015857
9.13577e-05
2.74332e-05
-3.27819e-05
-8.89486e-05
-0.000140806
-0.000188162
-0.000230887
-0.000268901
-0.000302162
-0.000330656
-0.000354385
-0.000373351
-0.00038755
-0.000396943
-0.000401445
-0.000401035
-0.000395796
-0.000384049
-0.000361581
0.00108476
0.00109719
0.00110171
0.00109806
0.00108617
0.00106605
0.00103784
0.00100178
0.000958314
0.000907973
0.000851427
0.000789445
0.000722876
0.000652625
0.000579631
0.00050484
0.000429184
0.00035356
0.00027881
0.000205705
0.000134937
6.71055e-05
2.72162e-06
-5.77982e-05
-0.000114126
-0.000166018
-0.000213304
-0.000255876
-0.00029368
-0.000326697
-0.000354934
-0.000378407
-0.000397126
-0.000411083
-0.000420229
-0.000424452
-0.000423703
-0.000418037
-0.000405693
-0.0003823
0.00101473
0.00104353
0.00106518
0.00107921
0.00108521
0.0010829
0.00107213
0.00105285
0.00102516
0.000989333
0.000945774
0.000895045
0.000837834
0.000774939
0.000707249
0.000635713
0.000561319
0.000485064
0.000407933
0.000330867
0.00025475
0.000180391
0.000108508
3.97222e-05
-2.54481e-05
-8.65842e-05
-0.000143365
-0.00019556
-0.000243018
-0.000285654
-0.000323436
-0.000356371
-0.000384487
-0.000407817
-0.000426382
-0.000440178
-0.000449151
-0.000453176
-0.000452186
-0.000446222
-0.000433476
-0.000409483
0.000983501
0.00101472
0.00103866
0.00105494
0.00106312
0.00106281
0.00105377
0.00103591
0.00100931
0.000974187
0.000930964
0.000880197
0.00082259
0.00075897
0.000690263
0.000617467
0.000541625
0.000463792
0.000385011
0.000306282
0.000228543
0.000152644
7.93476e-05
9.29915e-06
-5.69638e-05
-0.000119015
-0.000176534
-0.0002293
-0.000277177
-0.0003201
-0.000358062
-0.000391095
-0.000419247
-0.000442571
-0.000461104
-0.000474849
-0.000483753
-0.000487687
-0.000486573
-0.000480445
-0.00046747
-0.000443131
0.000940351
0.000974602
0.00100159
0.00102094
0.00103213
0.00103465
0.00102819
0.0010126
0.00098788
0.000954239
0.000912051
0.000861867
0.000804393
0.000740478
0.000671083
0.000597253
0.00052009
0.000440716
0.00036024
0.000279732
0.000200194
0.000122539
4.75738e-05
-2.40129e-05
-9.16554e-05
-0.00015491
-0.000213451
-0.00026706
-0.000315613
-0.000359063
-0.000397426
-0.000430755
-0.000459124
-0.000482607
-0.000501256
-0.000515089
-0.000524056
-0.000528027
-0.000526922
-0.000520768
-0.00050772
-0.000483237
0.000879942
0.00091798
0.000948899
0.000972304
0.000987546
0.000994028
0.000991326
0.00097919
0.000957551
0.000926538
0.000886474
0.000837872
0.000781427
0.000717991
0.000648551
0.000574199
0.000496095
0.00041543
0.000333393
0.000251135
0.000169739
9.01909e-05
1.33647e-05
-5.99963e-05
-0.000129283
-0.000194022
-0.00025387
-0.000308605
-0.000358109
-0.000402348
-0.000441356
-0.00047521
-0.000504006
-0.000527841
-0.000546787
-0.000560874
-0.000570062
-0.000574223
-0.000573273
-0.000567237
-0.000554261
-0.000529801
0.000794886
0.000837547
0.000873444
0.000902122
0.000922802
0.000934755
0.000937421
0.000930418
0.000913555
0.000886848
0.000850529
0.000805041
0.000751032
0.000689337
0.000620952
0.000546998
0.000468693
0.000387301
0.0003041
0.000220335
0.000137186
5.5736e-05
-2.30556e-05
-9.83682e-05
-0.00016953
-0.000236022
-0.000297468
-0.00035363
-0.000404382
-0.000449701
-0.000489634
-0.000524276
-0.000553748
-0.000578166
-0.000597625
-0.000612167
-0.000621764
-0.00062629
-0.000625662
-0.000619895
-0.000607135
-0.000582845
0.000675025
0.000723229
0.00076535
0.00080083
0.000828726
0.000848143
0.000858348
0.000858774
0.000849055
0.000829041
0.000798816
0.000758702
0.000709253
0.000651245
0.00058565
0.000513603
0.000436362
0.000355265
0.000271684
0.000186973
0.000102433
1.92653e-05
-6.14549e-05
-0.000138803
-0.000212017
-0.000280506
-0.000343841
-0.000401745
-0.000454076
-0.000500805
-0.000541985
-0.000577727
-0.000608169
-0.000633448
-0.000653678
-0.000668917
-0.000679146
-0.000684245
-0.000684126
-0.000678796
-0.0006664
-0.000642423
0.000506635
0.000561377
0.000611179
0.000655328
0.000692684
0.000722147
0.000742751
0.00075369
0.000754349
0.000744338
0.000723517
0.000692011
0.000650214
0.00059878
0.000538606
0.0004708
0.000396638
0.000317519
0.000234911
0.000150294
6.51083e-05
-1.92916e-05
-0.000101681
-0.000180992
-0.000256336
-0.000327015
-0.000392512
-0.000452488
-0.000506761
-0.000555275
-0.000598078
-0.000635287
-0.000667051
-0.000693525
-0.000714838
-0.000731064
-0.000742193
-0.000748107
-0.000748715
-0.00074401
-0.000732142
-0.000708623
0.000271599
0.000333903
0.000393038
0.000448079
0.000497656
0.000540418
0.000575108
0.000600598
0.000615937
0.0006204
0.00061352
0.000595125
0.000565346
0.000524629
0.000473715
0.000413623
0.000345601
0.000271084
0.000191626
0.00010884
2.43333e-05
-6.03531e-05
-0.000143799
-0.000224745
-0.000302124
-0.000375079
-0.000442964
-0.000505336
-0.000561934
-0.000612656
-0.000657519
-0.000696628
-0.000730136
-0.000758206
-0.00078098
-0.000798543
-0.000810891
-0.00081791
-0.000819498
-0.000815637
-0.000804478
-0.000781575
-5.33153e-05
1.75144e-05
8.77709e-05
0.000156256
0.000221348
0.000281396
0.000334777
0.000379955
0.000415536
0.000440338
0.000453441
0.000454237
0.000442463
0.000418226
0.000382002
0.000334619
0.000277224
0.00021123
0.000138255
6.00403e-05
-2.16193e-05
-0.000104958
-0.000188306
-0.00027015
-0.000349179
-0.000424309
-0.0004947
-0.000559745
-0.000619059
-0.000672447
-0.000719864
-0.000761381
-0.000797134
-0.000827282
-0.00085197
-0.000871289
-0.000885241
-0.000893706
-0.000896577
-0.000893812
-0.000883568
-0.000861458
-0.000496912
-0.000416782
-0.00033359
-0.000248861
-0.000164476
-8.24382e-05
-4.80413e-06
6.63808e-05
0.000129163
0.000181758
0.000222634
0.00025058
0.000264766
0.000264787
0.000250691
0.000222973
0.000182558
0.000130749
6.91662e-05
-3.41316e-07
-7.57869e-05
-0.000155143
-0.000236433
-0.000317816
-0.000397646
-0.000474527
-0.000547335
-0.000615221
-0.000677601
-0.000734126
-0.000784644
-0.000829148
-0.000867731
-0.000900526
-0.00092767
-0.000949249
-0.000965261
-0.000975582
-0.000980089
-0.000978714
-0.000969626
-0.000948505
-0.00109352
-0.00100368
-0.000905881
-0.000802014
-0.000694213
-0.000584869
-0.000476539
-0.000371872
-0.00027351
-0.000183991
-0.00010564
-4.04765e-05
9.88795e-06
4.4319e-05
6.22166e-05
6.35429e-05
4.88209e-05
1.91017e-05
-2.40987e-05
-7.8888e-05
-0.000143105
-0.000214441
-0.000290554
-0.000369188
-0.000448265
-0.000525958
-0.000600744
-0.00067142
-0.000737105
-0.000797209
-0.000851397
-0.000899529
-0.00094161
-0.000977718
-0.00100795
-0.00103239
-0.001051
-0.00106366
-0.00107022
-0.00107058
-0.00106292
-0.00104302
-0.00188221
-0.0017828
-0.0016691
-0.00154336
-0.00140792
-0.00126558
-0.00111945
-0.000972864
-0.000829262
-0.000692094
-0.00056467
-0.000450036
-0.000350841
-0.000269218
-0.000206687
-0.000164091
-0.000141558
-0.000138509
-0.000153705
-0.000185332
-0.000231122
-0.000288492
-0.000354697
-0.000426979
-0.000502708
-0.00057949
-0.000655255
-0.000728299
-0.000797304
-0.00086132
-0.000919723
-0.000972161
-0.00101848
-0.00105866
-0.00109273
-0.00112071
-0.00114257
-0.00115813
-0.00116723
-0.00116973
-0.00116381
-0.00114537
-0.002905
-0.00279696
-0.00266672
-0.00251682
-0.00234978
-0.00216879
-0.00197751
-0.00178001
-0.00158061
-0.0013838
-0.00119407
-0.0010157
-0.000852662
-0.000708381
-0.000585633
-0.000486406
-0.000411812
-0.000362054
-0.000336435
-0.000333431
-0.000350805
-0.000385771
-0.000435173
-0.000495687
-0.000564007
-0.000637016
-0.000711912
-0.000786306
-0.00085826
-0.000926297
-0.000989364
-0.00104677
-0.00109812
-0.00114321
-0.00118194
-0.00121428
-0.00124011
-0.00125924
-0.00127144
-0.00127654
-0.00127274
-0.00125604
-0.00420406
-0.00408927
-0.00394278
-0.0037673
-0.00356543
-0.0033407
-0.00309727
-0.00283993
-0.00257393
-0.00230489
-0.00203857
-0.00178073
-0.00153687
-0.00131207
-0.00111071
-0.000936317
-0.000791421
-0.000677412
-0.00059452
-0.000541832
-0.000517396
-0.000518383
-0.000541296
-0.000582221
-0.000637075
-0.000701849
-0.000772806
-0.000846637
-0.000920555
-0.000992335
-0.0010603
-0.00112325
-0.00118042
-0.00123131
-0.00127565
-0.00131323
-0.00134389
-0.00136733
-0.00138329
-0.00139153
-0.00139026
-0.00137562
-0.00581776
-0.00569921
-0.00553792
-0.00533667
-0.00509798
-0.00482561
-0.00452415
-0.00419901
-0.00385631
-0.00350279
-0.00314556
-0.00279195
-0.00244923
-0.00212437
-0.00182374
-0.00155287
-0.00131616
-0.00111672
-0.000956203
-0.000834788
-0.000751203
-0.000702874
-0.000686153
-0.000696599
-0.000729308
-0.000779231
-0.000841475
-0.000911548
-0.000985525
-0.00106015
-0.00113287
-0.00120175
-0.00126545
-0.00132306
-0.00137399
-0.00141783
-0.00145425
-0.00148287
-0.00150334
-0.00151532
-0.00151705
-0.00150484
-0.00777608
-0.0076578
-0.00748448
-0.00725877
-0.00698299
-0.00666099
-0.00629757
-0.00589862
-0.00547099
-0.00502238
-0.00456121
-0.00409637
-0.00363699
-0.00319214
-0.00277047
-0.00237992
-0.0020273
-0.00171802
-0.0014558
-0.00124253
-0.00107818
-0.000960931
-0.000887348
-0.000852678
-0.000851251
-0.000876902
-0.000923381
-0.000984727
-0.00105555
-0.00113121
-0.00120793
-0.00128278
-0.00135356
-0.00141875
-0.0014773
-0.00152847
-0.00157169
-0.00160645
-0.00163225
-0.00164868
-0.00165396
-0.00164459
-0.0100958
-0.00998266
-0.00980135
-0.00955415
-0.00924309
-0.00887187
-0.00844532
-0.00796953
-0.0074518
-0.00690059
-0.00632534
-0.00573637
-0.00514459
-0.00456119
-0.00399731
-0.00346361
-0.00296976
-0.00252408
-0.00213306
-0.00180106
-0.00153012
-0.00131987
-0.00116766
-0.00106887
-0.00101732
-0.00100576
-0.00102647
-0.00107176
-0.0011344
-0.00120797
-0.00128706
-0.00136733
-0.00144543
-0.00151893
-0.0015861
-0.00164571
-0.00169686
-0.00173881
-0.0017709
-0.00179255
-0.001802
-0.00179596
-0.0127764
-0.0126737
-0.0124895
-0.0122253
-0.011883
-0.0114657
-0.0109781
-0.0104262
-0.00981743
-0.00916049
-0.00846556
-0.00774399
-0.0070082
-0.00627135
-0.00554697
-0.00484853
-0.00418891
-0.00357984
-0.00303137
-0.00255117
-0.00214425
-0.00181265
-0.00155541
-0.00136875
-0.00124647
-0.00118056
-0.00116183
-0.00118067
-0.00122769
-0.00129425
-0.0013728
-0.0014571
-0.00154224
-0.0016245
-0.00170117
-0.00177034
-0.00183062
-0.0018809
-0.00192029
-0.00194806
-0.00196239
-0.00196023
-0.0157977
-0.0157106
-0.015529
-0.0152537
-0.0148859
-0.0144285
-0.0138855
-0.0132624
-0.0125664
-0.011806
-0.0109917
-0.0101352
-0.00924991
-0.00835058
-0.00745268
-0.00657221
-0.00572553
-0.00492817
-0.00419423
-0.00353555
-0.00296113
-0.00247655
-0.00208371
-0.00178072
-0.00156227
-0.00142013
-0.00134398
-0.00132229
-0.00134322
-0.00139547
-0.00146883
-0.00155461
-0.00164574
-0.00173676
-0.00182363
-0.00190341
-0.00197401
-0.00203384
-0.00208168
-0.00211651
-0.00213654
-0.00213892
-0.0191195
-0.0190526
-0.0188789
-0.0185988
-0.018213
-0.0177235
-0.0171337
-0.0164484
-0.0156739
-0.0148182
-0.0138912
-0.0129045
-0.0118719
-0.0108087
-0.00973128
-0.00865808
-0.0076093
-0.00660378
-0.00565993
-0.00479435
-0.00402102
-0.00335034
-0.00278841
-0.00233668
-0.00199196
-0.00174688
-0.00159062
-0.00151003
-0.0014908
-0.00151858
-0.00157995
-0.0016631
-0.00175818
-0.0018574
-0.00195483
-0.00204616
-0.00212829
-0.00219896
-0.00225648
-0.00229943
-0.00232612
-0.00233382
-0.0226846
-0.0226407
-0.0224797
-0.0222009
-0.0218048
-0.0212926
-0.0206669
-0.0199315
-0.0190915
-0.0181537
-0.0171271
-0.0160223
-0.0148524
-0.0136321
-0.0123781
-0.0111123
-0.00985602
-0.00863077
-0.0074594
-0.00636367
-0.00536324
-0.00447442
-0.00370902
-0.00307346
-0.00256841
-0.00218883
-0.00192464
-0.00176184
-0.0016839
-0.00167331
-0.00171297
-0.00178727
-0.00188281
-0.00198871
-0.00209658
-0.00220016
-0.00229498
-0.00237782
-0.00244633
-0.00249868
-0.00253292
-0.00254696
-0.0264039
-0.0262585
-0.0259864
-0.0255874
-0.0250623
-0.0244127
-0.023641
-0.0227513
-0.0217488
-0.0206408
-0.0194364
-0.0181468
-0.0167856
-0.0153709
)
;

boundaryField
{
    movingWall
    {
        type            zeroGradient;
    }
    fixedWalls
    {
        type            zeroGradient;
    }
    frontAndBack
    {
        type            empty;
    }
    procBoundary7to1
    {
        type            processor;
        value           nonuniform List<scalar> 
33
(
0.00126668
0.00122111
0.00119172
0.00117007
0.00115224
0.00113738
0.00112431
0.00110024
0.00111151
0.00111151
0.001038
0.00106487
0.00106487
0.000979507
0.000945692
0.000899425
0.000835297
0.000745898
0.00062107
0.000447149
0.000206167
-0.00012485
-0.0005743
-0.00117593
-0.00196803
-0.00299173
-0.00428817
-0.00589475
-0.00784069
-0.0101424
-0.0127993
-0.0157919
-0.0190816
)
;
    }
    procBoundary7to6
    {
        type            processor;
        value           nonuniform List<scalar> 
45
(
-0.0226131
-0.0264235
-0.0139236
-0.0124644
-0.0110183
-0.00961167
-0.00827101
-0.00702187
-0.00588722
-0.00488588
-0.004031
-0.00332907
-0.00277945
-0.00237457
-0.00210093
-0.00194063
-0.00187325
-0.00187772
-0.00193406
-0.0020245
-0.00213422
-0.00225152
-0.00236758
-0.00247602
-0.0025723
-0.00265317
-0.00271616
-0.00275918
-0.00278064
-0.0264235
-0.0302661
-0.0301378
-0.0298762
-0.0294808
-0.0289517
-0.0282897
-0.0274963
-0.0265739
-0.0255262
-0.0243584
-0.0230775
-0.0216926
-0.0202159
-0.0139236
-0.0186637
)
;
    }
}


// ************************************************************************* //
