/*--------------------------------*- C++ -*----------------------------------*\
  =========                 |
  \\      /  F ield         | OpenFOAM: The Open Source CFD Toolbox
   \\    /   O peration     | Website:  https://openfoam.org
    \\  /    A nd           | Version:  9
     \\/     M anipulation  |
\*---------------------------------------------------------------------------*/
FoamFile
{
    format      ascii;
    class       surfaceScalarField;
    location    "1";
    object      phi;
}
// * * * * * * * * * * * * * * * * * * * * * * * * * * * * * * * * * * * * * //

dimensions      [0 3 -1 0 0 0 0];

internalField   nonuniform List<scalar> 
2407
(
-1.38528e-08
-2.21581e-09
-1.16041e-08
-2.24874e-09
-9.34575e-09
-2.25833e-09
-7.10153e-09
-2.24421e-09
-4.89494e-09
-2.20659e-09
-2.74889e-09
-2.14605e-09
-6.85312e-10
-2.06358e-09
1.27528e-09
-1.96059e-09
3.11409e-09
-1.83881e-09
4.81444e-09
-1.70035e-09
6.36203e-09
-1.54759e-09
7.74516e-09
-1.38314e-09
8.95484e-09
-1.20968e-09
9.98481e-09
-1.02997e-09
1.08315e-08
-8.46721e-10
1.14941e-08
-6.62556e-10
1.1974e-08
-4.79912e-10
1.2275e-08
-3.01012e-10
1.24028e-08
-1.27825e-10
1.23648e-08
3.79972e-11
1.21699e-08
1.94962e-10
1.18279e-08
3.41983e-10
1.13498e-08
4.78099e-10
1.07473e-08
6.02529e-10
1.00327e-08
7.14562e-10
9.21928e-09
8.13446e-10
8.32104e-09
8.98239e-10
7.35341e-09
9.67632e-10
6.33368e-09
1.01973e-09
5.28192e-09
1.05176e-09
4.22216e-09
1.05976e-09
3.18399e-09
1.03817e-09
2.20457e-09
9.79417e-10
1.33071e-09
8.7386e-10
6.19762e-10
7.10949e-10
1.36674e-10
4.83086e-10
-6.24025e-11
1.99076e-10
-6.24004e-11
-4.1788e-08
-8.09674e-09
-3.58193e-08
-8.21738e-09
-2.9821e-08
-8.25668e-09
-2.38519e-08
-8.2133e-09
-1.79708e-08
-8.08768e-09
-1.22353e-08
-7.88157e-09
-6.7007e-09
-7.59815e-09
-1.41935e-09
-7.24194e-09
3.56065e-09
-6.81881e-09
8.19594e-09
-6.33563e-09
1.24488e-08
-5.80043e-09
1.62875e-08
-5.2219e-09
1.9687e-08
-4.60918e-09
2.26288e-08
-3.97168e-09
2.51008e-08
-3.31875e-09
2.70977e-08
-2.6595e-09
2.86204e-08
-2.00254e-09
2.96752e-08
-1.35583e-09
3.02739e-08
-7.26563e-10
3.0433e-08
-1.21059e-10
3.01728e-08
4.55161e-10
2.95173e-08
9.97463e-10
2.84936e-08
1.50182e-09
2.71314e-08
1.96469e-09
2.54633e-08
2.38273e-09
2.35243e-08
2.75239e-09
2.13531e-08
3.06951e-09
1.8992e-08
3.32871e-09
1.64889e-08
3.52279e-09
1.38987e-08
3.64199e-09
1.12852e-08
3.67324e-09
8.72387e-09
3.59953e-09
6.30358e-09
3.3997e-09
4.1277e-09
3.04974e-09
2.31097e-09
2.52768e-09
9.69408e-10
1.82465e-09
1.98256e-10
9.70232e-10
1.35856e-10
-6.99887e-08
-1.70427e-08
-6.09057e-08
-1.73004e-08
-5.17696e-08
-1.73928e-08
-4.2666e-08
-1.73168e-08
-3.36806e-08
-1.70731e-08
-2.48973e-08
-1.66648e-08
-1.63976e-08
-1.60979e-08
-8.25868e-09
-1.53808e-08
-5.52373e-10
-1.45251e-08
6.65636e-09
-1.35444e-08
1.33099e-08
-1.24539e-08
1.93593e-08
-1.12713e-08
2.47648e-08
-1.00147e-08
2.94959e-08
-8.70272e-09
3.35315e-08
-7.35443e-09
3.68603e-08
-5.98828e-09
3.94798e-08
-4.62199e-09
4.1396e-08
-3.2721e-09
4.26232e-08
-1.95374e-09
4.31827e-08
-6.80501e-10
4.31022e-08
5.35636e-10
4.24155e-08
1.68419e-09
4.11614e-08
2.75593e-09
3.93836e-08
3.74249e-09
3.71304e-08
4.63584e-09
3.44552e-08
5.42761e-09
3.14165e-08
6.10823e-09
2.80793e-08
6.66592e-09
2.45164e-08
7.08567e-09
2.08104e-08
7.34802e-09
1.70555e-08
7.42808e-09
1.33601e-08
7.29499e-09
9.8474e-09
6.91238e-09
6.6556e-09
6.24153e-09
3.93348e-09
5.2498e-09
1.83116e-09
3.92696e-09
4.83786e-10
2.31761e-09
6.19642e-10
-9.86958e-08
-2.85847e-08
-8.69671e-08
-2.90291e-08
-7.51558e-08
-2.92041e-08
-6.33679e-08
-2.91047e-08
-5.17098e-08
-2.87312e-08
-4.02867e-08
-2.80879e-08
-2.9201e-08
-2.71836e-08
-1.85503e-08
-2.60315e-08
-8.42614e-09
-2.46493e-08
1.08776e-09
-2.30583e-08
9.91704e-09
-2.12832e-08
1.79968e-08
-1.93512e-08
2.52736e-08
-1.72915e-08
3.17053e-08
-1.51344e-08
3.72614e-08
-1.29105e-08
4.19232e-08
-1.06501e-08
4.56835e-08
-8.38227e-09
4.85459e-08
-6.13453e-09
5.05245e-08
-3.93232e-09
5.16427e-08
-1.79875e-09
5.19329e-08
2.45473e-10
5.14352e-08
2.1819e-09
5.01971e-08
3.99401e-09
4.82729e-08
5.66665e-09
4.57236e-08
7.18521e-09
4.26166e-08
8.53457e-09
3.90269e-08
9.69794e-09
3.50375e-08
1.06554e-08
3.07409e-08
1.13823e-08
2.62409e-08
1.18479e-08
2.16546e-08
1.20145e-08
1.71134e-08
1.18362e-08
1.27646e-08
1.12611e-08
8.77083e-09
1.02353e-08
5.3075e-09
8.71313e-09
2.55936e-09
6.67511e-09
7.18119e-10
4.15885e-09
1.33776e-09
-1.28377e-07
-4.23618e-08
-1.14358e-07
-4.30486e-08
-1.00215e-07
-4.33464e-08
-8.60727e-08
-4.32474e-08
-7.20533e-08
-4.27506e-08
-5.82802e-08
-4.1861e-08
-4.48736e-08
-4.05902e-08
-3.19491e-08
-3.8956e-08
-1.96156e-08
-3.69828e-08
-7.97371e-09
-3.47002e-08
2.88585e-09
-3.21428e-08
1.28839e-08
-2.93492e-08
2.19534e-08
-2.6361e-08
3.00405e-08
-2.32214e-08
3.71047e-08
-1.99747e-08
4.31192e-08
-1.66647e-08
4.8071e-08
-1.3334e-08
5.19596e-08
-1.00232e-08
5.47974e-08
-6.77007e-09
5.6608e-08
-3.60943e-09
5.74263e-08
-5.72776e-10
5.72967e-08
2.3115e-09
5.6273e-08
5.01767e-09
5.44178e-08
7.52193e-09
5.18016e-08
9.80133e-09
4.85038e-08
1.18325e-08
4.4612e-08
1.35897e-08
4.02237e-08
1.50437e-08
3.5447e-08
1.6159e-08
3.04021e-08
1.68928e-08
2.52231e-08
1.71935e-08
2.00592e-08
1.70001e-08
1.5076e-08
1.62443e-08
1.04563e-08
1.4855e-08
6.40071e-09
1.27687e-08
3.13022e-09
9.9456e-09
8.94013e-10
6.39505e-09
2.23177e-09
-1.59748e-07
-5.81046e-08
-1.43694e-07
-5.91027e-08
-1.27461e-07
-5.95794e-08
-1.11185e-07
-5.95226e-08
-9.5007e-08
-5.8929e-08
-7.90645e-08
-5.78035e-08
-6.3495e-08
-5.61597e-08
-4.84311e-08
-5.402e-08
-3.39986e-08
-5.14152e-08
-2.03149e-08
-4.83839e-08
-7.48636e-09
-4.49713e-08
4.39253e-09
-4.12281e-08
1.5241e-08
-3.72094e-08
2.49927e-08
-3.29731e-08
3.35965e-08
-2.85785e-08
4.10168e-08
-2.40849e-08
4.7233e-08
-1.95503e-08
5.22401e-08
-1.50302e-08
5.60472e-08
-1.05771e-08
5.86771e-08
-6.23936e-09
6.01655e-08
-2.06122e-09
6.056e-08
1.91699e-09
5.99192e-08
5.65854e-09
5.83118e-08
9.12927e-09
5.58168e-08
1.22963e-08
5.25227e-08
1.51266e-08
4.8528e-08
1.75844e-08
4.39419e-08
1.96298e-08
3.88849e-08
2.1216e-08
3.34905e-08
2.22872e-08
2.79065e-08
2.27774e-08
2.22968e-08
2.26099e-08
1.68427e-08
2.16983e-08
1.17461e-08
1.99517e-08
7.23199e-09
1.72828e-08
3.55651e-09
1.36211e-08
1.01997e-09
8.93159e-09
3.25174e-09
-1.93781e-07
-7.56202e-08
-1.75864e-07
-7.70202e-08
-1.57688e-07
-7.77546e-08
-1.39406e-07
-7.78053e-08
-1.2117e-07
-7.71649e-08
-1.03136e-07
-7.58371e-08
-8.5459e-08
-7.38367e-08
-6.82888e-08
-7.11902e-08
-5.17693e-08
-6.79348e-08
-3.60354e-08
-6.41178e-08
-2.12109e-08
-5.97958e-08
-7.4066e-09
-5.50324e-08
5.28141e-09
-4.98974e-08
1.6773e-08
-4.44647e-08
2.70049e-08
-3.88104e-08
3.59312e-08
-3.30111e-08
4.35232e-08
-2.71423e-08
4.97695e-08
-2.12766e-08
5.46755e-08
-1.54831e-08
5.8262e-08
-9.82584e-09
6.05648e-08
-4.36408e-09
6.16337e-08
8.48121e-10
6.15311e-08
5.76118e-09
6.03314e-08
1.0329e-08
5.81204e-08
1.45073e-08
5.4995e-08
1.8252e-08
5.1063e-08
2.15164e-08
4.64436e-08
2.42492e-08
4.12682e-08
2.63913e-08
3.56819e-08
2.78735e-08
2.98444e-08
2.86149e-08
2.39328e-08
2.85215e-08
1.81434e-08
2.74877e-08
1.26961e-08
2.5399e-08
7.84001e-09
2.21389e-08
3.86287e-09
1.75982e-08
1.10713e-09
1.16873e-08
4.35887e-09
-2.31719e-07
-9.47849e-08
-2.12033e-07
-9.67063e-08
-1.91981e-07
-9.78069e-08
-1.71726e-07
-9.80596e-08
-1.5144e-07
-9.74507e-08
-1.31297e-07
-9.5981e-08
-1.11468e-07
-9.36656e-08
-9.21237e-08
-9.0534e-08
-7.34291e-08
-8.66294e-08
-5.55389e-08
-8.20081e-08
-3.85967e-08
-7.67379e-08
-2.27325e-08
-7.08966e-08
-8.06015e-09
-6.45698e-08
5.32408e-09
-5.7849e-08
1.73426e-08
-5.08289e-08
2.79372e-08
-4.36058e-08
3.70696e-08
-3.62746e-08
4.47208e-08
-2.89278e-08
5.08909e-08
-2.16533e-08
5.55985e-08
-1.45334e-08
5.88787e-08
-7.64432e-09
6.0783e-08
-1.05616e-09
6.13774e-08
5.16678e-09
6.07416e-08
1.09647e-08
5.89682e-08
1.62807e-08
5.61617e-08
2.10584e-08
5.24389e-08
2.52392e-08
4.79287e-08
2.87595e-08
4.27726e-08
3.15473e-08
3.71266e-08
3.35196e-08
3.1162e-08
3.45794e-08
2.50687e-08
3.46149e-08
1.90578e-08
3.34986e-08
1.3367e-08
3.10898e-08
8.26762e-09
2.72383e-08
4.07526e-09
2.17906e-08
1.16562e-09
1.4597e-08
5.52449e-09
-3.15721e-07
-1.07589e-07
-2.9581e-07
-1.11995e-07
-2.75063e-07
-1.15532e-07
-2.53636e-07
-1.18134e-07
-2.31696e-07
-1.19747e-07
-2.09424e-07
-1.20332e-07
-1.87007e-07
-1.19867e-07
-1.64641e-07
-1.18348e-07
-1.42518e-07
-1.15788e-07
-1.20833e-07
-1.12219e-07
-9.97731e-08
-1.07689e-07
-7.95185e-08
-1.02263e-07
-6.02365e-08
-9.60199e-08
-4.20799e-08
-8.90532e-08
-2.51843e-08
-8.14654e-08
-9.66574e-09
-7.33675e-08
4.3807e-09
-6.48754e-08
1.6882e-08
-5.6107e-08
2.77874e-08
-4.71801e-08
3.7069e-08
-3.82094e-08
4.47204e-08
-2.93047e-08
5.07565e-08
-2.05694e-08
5.52116e-08
-1.20995e-08
5.81388e-08
-3.98327e-09
5.96076e-08
3.69798e-09
5.97033e-08
1.0869e-08
5.85256e-08
1.74585e-08
5.61873e-08
2.33967e-08
5.28145e-08
2.86121e-08
4.85459e-08
3.30281e-08
4.3534e-08
3.65593e-08
3.79456e-08
3.9108e-08
3.19643e-08
4.05607e-08
2.5793e-08
4.07862e-08
1.96579e-08
3.96337e-08
1.38142e-08
3.69335e-08
8.55378e-09
3.24987e-08
4.21628e-09
2.61281e-08
1.20345e-09
1.76098e-08
6.72794e-09
-4.07904e-07
-1.13764e-07
-3.8917e-07
-1.21118e-07
-3.69112e-07
-1.27647e-07
-3.47854e-07
-1.33253e-07
-3.25542e-07
-1.37843e-07
-3.02344e-07
-1.41332e-07
-2.78442e-07
-1.43649e-07
-2.54032e-07
-1.44741e-07
-2.29324e-07
-1.44575e-07
-2.04533e-07
-1.43139e-07
-1.7988e-07
-1.40441e-07
-1.55587e-07
-1.36513e-07
-1.3187e-07
-1.31406e-07
-1.08938e-07
-1.25195e-07
-8.69879e-08
-1.1797e-07
-6.62016e-08
-1.0984e-07
-4.6741e-08
-1.00926e-07
-2.8747e-08
-9.13615e-08
-1.23367e-08
-8.12857e-08
2.39823e-09
-7.08419e-08
1.53917e-08
-6.01736e-08
2.66037e-08
-4.94214e-08
3.60198e-08
-3.87208e-08
4.365e-08
-2.81995e-08
4.95271e-08
-1.79766e-08
5.37055e-08
-8.1617e-09
5.6259e-08
1.14448e-09
5.72791e-08
9.84893e-09
5.68733e-08
1.78643e-08
5.5164e-08
2.51059e-08
5.22877e-08
3.14884e-08
4.83943e-08
3.69214e-08
4.36482e-08
4.13055e-08
3.82287e-08
4.45275e-08
3.23324e-08
4.6457e-08
2.61765e-08
4.69421e-08
2.00028e-08
4.58074e-08
1.40836e-08
4.28526e-08
8.73052e-09
3.78518e-08
4.30394e-09
3.05547e-08
1.22658e-09
2.06872e-08
7.95451e-09
-4.72083e-07
-1.31532e-07
-4.52606e-07
-1.40596e-07
-4.31521e-07
-1.48732e-07
-4.08957e-07
-1.55817e-07
-3.85067e-07
-1.61733e-07
-3.60026e-07
-1.66372e-07
-3.34033e-07
-1.69643e-07
-3.07303e-07
-1.71472e-07
-2.80067e-07
-1.71811e-07
-2.52569e-07
-1.70636e-07
-2.25061e-07
-1.67949e-07
-1.97797e-07
-1.63777e-07
-1.71029e-07
-1.58174e-07
-1.45001e-07
-1.51222e-07
-1.19948e-07
-1.43023e-07
-9.60848e-08
-1.33702e-07
-7.36084e-08
-1.23402e-07
-5.26903e-08
-1.1228e-07
-3.34754e-08
-1.00501e-07
-1.60798e-08
-8.82376e-08
-5.89204e-10
-7.56642e-08
1.2941e-08
-6.29516e-08
2.44853e-08
-5.02651e-08
3.4047e-08
-3.77612e-08
4.16565e-08
-2.55862e-08
4.73695e-08
-1.38747e-08
5.12642e-08
-2.7502e-09
5.34393e-08
7.67385e-09
5.40118e-08
1.72918e-08
5.31153e-08
2.60025e-08
5.08985e-08
3.37052e-08
4.75247e-08
4.02952e-08
4.31721e-08
4.56581e-08
3.80343e-08
4.96653e-08
3.23231e-08
5.21682e-08
2.62712e-08
5.2994e-08
2.01369e-08
5.19417e-08
1.42106e-08
4.87789e-08
8.82229e-09
4.32401e-08
4.35169e-09
3.50253e-08
1.23929e-09
2.37996e-08
9.1938e-09
-5.47097e-07
-1.4955e-07
-5.27031e-07
-1.60661e-07
-5.05015e-07
-1.70748e-07
-4.81175e-07
-1.79657e-07
-4.55668e-07
-1.8724e-07
-4.2868e-07
-1.9336e-07
-4.00424e-07
-1.97898e-07
-3.71137e-07
-2.00759e-07
-3.41078e-07
-2.01871e-07
-3.1052e-07
-2.01194e-07
-2.79753e-07
-1.98717e-07
-2.49068e-07
-1.94462e-07
-2.1876e-07
-1.88483e-07
-1.89117e-07
-1.80865e-07
-1.60417e-07
-1.71723e-07
-1.32921e-07
-1.61199e-07
-1.06865e-07
-1.49458e-07
-8.24616e-08
-1.36683e-07
-5.98903e-08
-1.23072e-07
-3.9298e-08
-1.0883e-07
-2.07967e-08
-9.41655e-08
-4.46194e-09
-7.92863e-08
9.66588e-09
-6.43929e-08
2.15808e-08
-4.96761e-08
3.13092e-08
-3.53146e-08
3.89073e-08
-2.14727e-08
4.44581e-08
-8.30099e-09
4.80687e-08
4.06325e-09
4.98673e-08
1.54932e-08
5.00008e-08
2.5869e-08
4.86328e-08
3.50732e-08
4.59426e-08
4.29853e-08
4.21249e-08
4.94758e-08
3.73906e-08
5.43996e-08
3.19686e-08
5.75901e-08
2.61096e-08
5.88531e-08
2.00902e-08
5.79611e-08
1.42194e-08
5.46497e-08
8.84628e-09
4.86132e-08
4.36896e-09
3.95026e-08
1.24452e-09
2.6924e-08
1.04383e-08
-6.34997e-07
-1.67588e-07
-6.1451e-07
-1.81148e-07
-5.9166e-07
-1.93598e-07
-5.66568e-07
-2.04748e-07
-5.39396e-07
-2.14413e-07
-5.10337e-07
-2.22419e-07
-4.7962e-07
-2.28615e-07
-4.47506e-07
-2.32873e-07
-4.14281e-07
-2.35095e-07
-3.80257e-07
-2.35218e-07
-3.45761e-07
-2.33213e-07
-3.11131e-07
-2.29091e-07
-2.76712e-07
-2.22902e-07
-2.42843e-07
-2.14733e-07
-2.09856e-07
-2.0471e-07
-1.78064e-07
-1.92991e-07
-1.47756e-07
-1.79766e-07
-1.19192e-07
-1.65247e-07
-9.25984e-08
-1.49666e-07
-6.81603e-08
-1.33268e-07
-4.60234e-08
-1.16302e-07
-2.62905e-08
-9.90191e-08
-9.02224e-09
-8.16612e-08
5.76231e-09
-6.44607e-08
1.80828e-08
-4.76351e-08
2.79947e-08
-3.13847e-08
3.5586e-08
-1.58923e-08
4.0973e-08
-1.32378e-09
4.42971e-08
1.21691e-08
4.57209e-08
2.44451e-08
4.54261e-08
3.5368e-08
4.36113e-08
4.48002e-08
4.04911e-08
5.2596e-08
3.62969e-08
5.85938e-08
3.12783e-08
6.26087e-08
2.57065e-08
6.44249e-08
1.98787e-08
6.37889e-08
1.41246e-08
6.04038e-08
8.81326e-09
5.39245e-08
4.36181e-09
4.3954e-08
1.24415e-09
3.00417e-08
1.16825e-08
-7.37685e-07
-1.85394e-07
-7.16959e-07
-2.01875e-07
-6.93383e-07
-2.17174e-07
-6.67075e-07
-2.31057e-07
-6.38193e-07
-2.43295e-07
-6.06939e-07
-2.53673e-07
-5.73558e-07
-2.61996e-07
-5.38333e-07
-2.68098e-07
-5.01582e-07
-2.71847e-07
-4.63652e-07
-2.73147e-07
-4.24918e-07
-2.71948e-07
-3.85769e-07
-2.68241e-07
-3.46604e-07
-2.62067e-07
-3.07825e-07
-2.53512e-07
-2.69825e-07
-2.4271e-07
-2.32982e-07
-2.29834e-07
-1.97648e-07
-2.151e-07
-1.64143e-07
-1.98752e-07
-1.32749e-07
-1.81061e-07
-1.03701e-07
-1.62315e-07
-7.71903e-08
-1.42814e-07
-5.33539e-08
-1.22856e-07
-3.228e-08
-1.02735e-07
-1.40069e-08
-8.27339e-08
1.4746e-09
-6.31165e-08
1.4217e-08
-4.41271e-08
2.43121e-08
-2.59874e-08
3.18865e-08
-8.89809e-09
3.70961e-08
6.95953e-09
4.01224e-08
2.14188e-08
4.11684e-08
3.4322e-08
4.04557e-08
4.55128e-08
3.82233e-08
5.48284e-08
3.47269e-08
6.20902e-08
3.02408e-08
6.70949e-08
2.50604e-08
6.96054e-08
1.95066e-08
6.93426e-08
1.39322e-08
6.59782e-08
8.72857e-09
5.91282e-08
4.33349e-09
4.83491e-08
1.23922e-09
3.31359e-08
1.29217e-08
-8.5675e-07
-2.02694e-07
-8.3599e-07
-2.22634e-07
-8.11825e-07
-2.41339e-07
-7.84359e-07
-2.58523e-07
-7.5375e-07
-2.73905e-07
-7.20203e-07
-2.87219e-07
-6.83976e-07
-2.98223e-07
-6.45373e-07
-3.06701e-07
-6.04743e-07
-3.12477e-07
-5.62472e-07
-3.15418e-07
-5.18981e-07
-3.15438e-07
-4.74716e-07
-3.12506e-07
-4.30139e-07
-3.06644e-07
-3.85719e-07
-2.97932e-07
-3.41922e-07
-2.86506e-07
-2.99201e-07
-2.72556e-07
-2.57983e-07
-2.56318e-07
-2.18661e-07
-2.38074e-07
-1.81586e-07
-2.18135e-07
-1.47058e-07
-1.96843e-07
-1.15322e-07
-1.74549e-07
-8.65643e-08
-1.51614e-07
-6.09085e-08
-1.28391e-07
-3.842e-08
-1.05222e-07
-1.91063e-08
-8.24302e-08
-2.9216e-09
-6.03117e-08
1.0228e-08
-3.9137e-08
2.04787e-08
-1.91488e-08
2.8003e-08
-5.64742e-10
3.30035e-08
1.64183e-08
3.57082e-08
3.16172e-08
3.63664e-08
4.48547e-08
3.52457e-08
5.59491e-08
3.26313e-08
6.47046e-08
2.88267e-08
7.08995e-08
2.41557e-08
7.42763e-08
1.89674e-08
7.4531e-08
1.3641e-08
7.13046e-08
8.59312e-09
6.41761e-08
4.28512e-09
5.26571e-08
1.2302e-09
3.61908e-08
1.41519e-08
-9.93307e-07
-2.19192e-07
-9.7275e-07
-2.43191e-07
-9.48168e-07
-2.65921e-07
-9.1965e-07
-2.87041e-07
-8.87345e-07
-3.0621e-07
-8.51459e-07
-3.23105e-07
-8.12258e-07
-3.37424e-07
-7.70064e-07
-3.48895e-07
-7.25251e-07
-3.5729e-07
-6.78245e-07
-3.62425e-07
-6.29512e-07
-3.64171e-07
-5.79557e-07
-3.62462e-07
-5.28907e-07
-3.57294e-07
-4.78107e-07
-3.48732e-07
-4.27703e-07
-3.36909e-07
-3.78235e-07
-3.22024e-07
-3.30217e-07
-3.04336e-07
-2.8413e-07
-2.8416e-07
-2.4041e-07
-2.61856e-07
-1.99435e-07
-2.37817e-07
-1.61521e-07
-2.12463e-07
-1.26915e-07
-1.8622e-07
-9.57907e-08
-1.59515e-07
-6.82506e-08
-1.32762e-07
-4.43273e-08
-1.06354e-07
-2.39877e-08
-8.06513e-08
-7.13954e-09
-5.59852e-08
6.36196e-09
-3.26503e-08
1.6706e-08
-1.09088e-08
2.41191e-08
9.00524e-09
2.88578e-08
2.68785e-08
3.12034e-08
4.25091e-08
3.14577e-08
5.56948e-08
2.99407e-08
6.62215e-08
2.69906e-08
7.38497e-08
2.29653e-08
7.83016e-08
1.82462e-08
7.925e-08
1.32439e-08
7.63069e-08
8.40438e-09
6.90156e-08
4.21616e-09
5.68453e-08
1.21709e-09
3.91899e-08
1.5369e-08
-1.14782e-06
-2.34569e-07
-1.12774e-06
-2.6327e-07
-1.10297e-06
-2.90696e-07
-1.07357e-06
-3.16441e-07
-1.03967e-06
-3.40102e-07
-1.00149e-06
-3.61289e-07
-9.59279e-07
-3.79634e-07
-9.13375e-07
-3.948e-07
-8.64172e-07
-4.06493e-07
-8.12126e-07
-4.1447e-07
-7.5775e-07
-4.18547e-07
-7.01601e-07
-4.1861e-07
-6.44276e-07
-4.14619e-07
-5.86397e-07
-4.06611e-07
-5.28599e-07
-3.94707e-07
-4.71515e-07
-3.79108e-07
-4.15762e-07
-3.6009e-07
-3.61923e-07
-3.38e-07
-3.10534e-07
-3.13245e-07
-2.6207e-07
-2.86281e-07
-2.16937e-07
-2.57596e-07
-1.75458e-07
-2.27699e-07
-1.37874e-07
-1.97099e-07
-1.04339e-07
-1.66298e-07
-7.49212e-08
-1.35771e-07
-4.96102e-08
-1.05962e-07
-2.83208e-08
-7.72746e-08
-1.09031e-08
-5.0068e-08
2.84839e-09
-2.46603e-08
1.31854e-08
-1.33172e-09
2.03964e-08
1.96674e-08
2.47998e-08
3.81057e-08
2.67368e-08
5.37578e-08
2.65686e-08
6.63897e-08
2.46743e-08
7.5744e-08
2.14518e-08
8.15241e-08
1.73212e-08
8.33806e-08
1.27295e-08
8.08985e-08
8.15726e-09
7.35879e-08
4.12495e-09
6.08776e-08
1.19965e-09
4.21152e-08
1.65686e-08
-1.31994e-06
-2.48482e-07
-1.30066e-06
-2.82554e-07
-1.27598e-06
-3.15375e-07
-1.24595e-06
-3.4647e-07
-1.21068e-06
-3.7537e-07
-1.17036e-06
-4.01613e-07
-1.12524e-06
-4.24757e-07
-1.07564e-06
-4.44392e-07
-1.02199e-06
-4.60148e-07
-9.64749e-07
-4.7171e-07
-9.04469e-07
-4.78827e-07
-8.41758e-07
-4.81322e-07
-7.77275e-07
-4.79102e-07
-7.11719e-07
-4.72166e-07
-6.45818e-07
-4.60608e-07
-5.80307e-07
-4.44619e-07
-5.15913e-07
-4.24483e-07
-4.53337e-07
-4.00576e-07
-3.93234e-07
-3.73348e-07
-3.36195e-07
-3.43319e-07
-2.82736e-07
-3.11056e-07
-2.33279e-07
-2.77155e-07
-1.88152e-07
-2.42227e-07
-1.47577e-07
-2.06873e-07
-1.11676e-07
-1.71672e-07
-8.04723e-08
-1.37166e-07
-5.38976e-08
-1.03849e-07
-3.18026e-08
-7.21629e-08
-1.39682e-08
-4.24947e-08
-1.17236e-10
-1.51827e-08
1.00738e-08
9.47644e-09
1.69642e-08
3.12153e-08
2.09412e-08
4.97808e-08
2.24134e-08
6.49175e-08
2.1808e-08
7.63495e-08
1.957e-08
8.37621e-08
1.6165e-08
8.67857e-08
1.2083e-08
8.49806e-08
7.84488e-09
7.7826e-08
4.00908e-09
6.47134e-08
1.17745e-09
4.49468e-08
1.77461e-08
-1.50836e-06
-2.60574e-07
-1.49024e-06
-3.00681e-07
-1.46602e-06
-3.39595e-07
-1.43571e-06
-3.76774e-07
-1.39941e-06
-4.11676e-07
-1.35725e-06
-4.43767e-07
-1.30948e-06
-4.72525e-07
-1.25642e-06
-4.97459e-07
-1.19845e-06
-5.18115e-07
-1.13607e-06
-5.34093e-07
-1.06983e-06
-5.4506e-07
-1.00039e-06
-5.50762e-07
-9.28461e-07
-5.51036e-07
-8.54804e-07
-5.45823e-07
-7.80241e-07
-5.35172e-07
-7.05612e-07
-5.19248e-07
-6.31764e-07
-4.98331e-07
-5.59528e-07
-4.72812e-07
-4.89693e-07
-4.43182e-07
-4.22991e-07
-4.10022e-07
-3.60069e-07
-3.73979e-07
-3.01474e-07
-3.3575e-07
-2.47645e-07
-2.96056e-07
-1.98897e-07
-2.5562e-07
-1.55426e-07
-2.15143e-07
-1.17306e-07
-1.75286e-07
-8.4499e-08
-1.36656e-07
-5.68668e-08
-9.97952e-08
-3.41814e-08
-6.51801e-08
-1.6142e-08
-3.32221e-08
-2.38894e-09
-4.27665e-09
7.48262e-09
2.13437e-08
1.39111e-08
4.33523e-08
1.736e-08
6.14686e-08
1.83123e-08
7.53972e-08
1.72681e-08
8.48063e-08
1.4746e-08
8.93077e-08
1.12868e-08
8.84397e-08
7.45909e-09
8.16537e-08
3.86573e-09
6.83068e-08
1.15005e-09
4.76625e-08
1.88961e-08
-1.7107e-06
-2.70481e-07
-1.69413e-06
-3.1725e-07
-1.6708e-06
-3.62921e-07
-1.64069e-06
-4.06887e-07
-1.60383e-06
-4.48538e-07
-1.56033e-06
-4.87264e-07
-1.51039e-06
-5.22464e-07
-1.45429e-06
-5.53558e-07
-1.3924e-06
-5.80002e-07
-1.3252e-06
-6.013e-07
-1.25323e-06
-6.17022e-07
-1.17718e-06
-6.2682e-07
-1.09777e-06
-6.30443e-07
-1.01584e-06
-6.27749e-07
-9.32291e-07
-6.18723e-07
-8.48058e-07
-6.03481e-07
-7.64112e-07
-5.82277e-07
-6.81423e-07
-5.55501e-07
-6.00934e-07
-5.23672e-07
-5.23532e-07
-4.87423e-07
-4.50026e-07
-4.47485e-07
-3.81116e-07
-4.0466e-07
-3.17379e-07
-3.59793e-07
-2.59256e-07
-3.13743e-07
-2.07041e-07
-2.67358e-07
-1.60885e-07
-2.21442e-07
-1.20799e-07
-1.76742e-07
-8.66691e-08
-1.33925e-07
-5.82682e-08
-9.3581e-08
-3.52766e-08
-5.62137e-08
-1.72989e-08
-2.22543e-08
-3.88221e-09
7.92695e-09
5.46899e-09
3.40011e-08
1.12801e-08
5.56575e-08
1.40982e-08
7.25791e-08
1.44875e-08
8.4417e-08
1.30287e-08
9.07666e-08
1.03216e-08
9.11468e-08
6.99084e-09
8.49845e-08
3.6918e-09
7.16058e-08
1.11697e-09
5.02373e-08
2.00131e-08
-1.92342e-06
-2.77855e-07
-1.90883e-06
-3.31835e-07
-1.8869e-06
-3.84852e-07
-1.85755e-06
-4.3624e-07
-1.82076e-06
-4.85327e-07
-1.77659e-06
-5.31431e-07
-1.72518e-06
-5.73873e-07
-1.66676e-06
-6.11984e-07
-1.60164e-06
-6.45123e-07
-1.53025e-06
-6.72691e-07
-1.45312e-06
-6.9415e-07
-1.3709e-06
-7.09038e-07
-1.28435e-06
-7.16994e-07
-1.19433e-06
-7.17773e-07
-1.10179e-06
-7.11264e-07
-1.00776e-06
-6.97507e-07
-9.13334e-07
-6.76703e-07
-8.19621e-07
-6.49215e-07
-7.27725e-07
-6.15567e-07
-6.38715e-07
-5.76433e-07
-5.53582e-07
-5.32618e-07
-4.73212e-07
-4.8503e-07
-3.98357e-07
-4.34647e-07
-3.29617e-07
-3.82484e-07
-2.6742e-07
-3.29555e-07
-2.12023e-07
-2.76839e-07
-1.63515e-07
-2.25249e-07
-1.21827e-07
-1.75614e-07
-8.67466e-08
-1.28661e-07
-5.79449e-08
-8.50153e-08
-3.49943e-08
-4.5205e-08
-1.73923e-08
-9.67506e-09
-4.58203e-09
2.11909e-08
4.03106e-09
4.70444e-08
9.06702e-09
6.75432e-08
1.11636e-08
8.23204e-08
1.09736e-08
9.09566e-08
9.16581e-09
9.29546e-08
6.43023e-09
8.77201e-08
3.48402e-09
7.4552e-08
1.0778e-09
5.26436e-08
2.10909e-08
-2.14186e-06
-2.82386e-07
-2.12968e-06
-3.44008e-07
-2.10969e-06
-4.04842e-07
-2.08176e-06
-4.64173e-07
-2.04581e-06
-5.21278e-07
-2.00183e-06
-5.75411e-07
-1.94988e-06
-6.2582e-07
-1.89011e-06
-6.71753e-07
-1.82276e-06
-7.12472e-07
-1.74819e-06
-7.47271e-07
-1.66684e-06
-7.75491e-07
-1.57934e-06
-7.96544e-07
-1.4864e-06
-8.09937e-07
-1.38888e-06
-8.15292e-07
-1.28776e-06
-8.12376e-07
-1.18416e-06
-8.01116e-07
-1.07924e-06
-7.81623e-07
-9.7425e-07
-7.542e-07
-8.70472e-07
-7.19344e-07
-7.69161e-07
-6.77745e-07
-6.71518e-07
-6.30262e-07
-5.78646e-07
-5.77901e-07
-4.91513e-07
-5.2178e-07
-4.10917e-07
-4.6308e-07
-3.37464e-07
-4.03008e-07
-2.7156e-07
-3.42743e-07
-2.13404e-07
-2.83406e-07
-1.63001e-07
-2.26017e-07
-1.20178e-07
-1.71483e-07
-8.46111e-08
-1.20582e-07
-5.58475e-08
-7.39685e-08
-3.33379e-08
-3.21847e-08
-1.64609e-08
4.31388e-09
-4.54627e-09
3.51298e-08
3.10803e-09
5.98889e-08
7.22372e-09
7.82047e-08
8.53645e-09
8.96439e-08
7.79526e-09
9.36958e-08
5.76623e-09
8.97491e-08
3.23877e-09
7.70795e-08
1.03208e-09
5.48503e-08
2.2123e-08
-2.3603e-06
-2.83844e-07
-2.35093e-06
-3.53381e-07
-2.33343e-06
-4.22342e-07
-2.30763e-06
-4.89977e-07
-2.27338e-06
-5.55525e-07
-2.2306e-06
-6.18192e-07
-2.17925e-06
-6.77167e-07
-2.11938e-06
-7.31621e-07
-2.05113e-06
-7.80728e-07
-1.97472e-06
-8.23674e-07
-1.89054e-06
-8.59678e-07
-1.79907e-06
-8.88011e-07
-1.70097e-06
-9.08031e-07
-1.59707e-06
-9.19202e-07
-1.48831e-06
-9.21131e-07
-1.37583e-06
-9.13597e-07
-1.26088e-06
-8.96576e-07
-1.14481e-06
-8.70265e-07
-1.02906e-06
-8.35092e-07
-9.15089e-07
-7.91719e-07
-8.04317e-07
-7.41034e-07
-6.98097e-07
-6.84121e-07
-5.97651e-07
-6.22225e-07
-5.04026e-07
-5.56705e-07
-4.18058e-07
-4.88977e-07
-3.40347e-07
-4.20454e-07
-2.71252e-07
-3.525e-07
-2.10894e-07
-2.86375e-07
-1.59171e-07
-2.23207e-07
-1.15783e-07
-1.6397e-07
-8.02709e-08
-1.09481e-07
-5.20428e-08
-6.04128e-08
-3.04133e-08
-1.73156e-08
-1.46312e-08
1.93476e-08
-3.90388e-09
4.91615e-08
2.58527e-09
7.17156e-08
5.66687e-09
8.65623e-08
6.18232e-09
9.31803e-08
4.98612e-09
9.09453e-08
2.95186e-09
7.91138e-08
9.79284e-10
5.68228e-08
2.31023e-08
-2.5722e-06
-2.82114e-07
-2.56593e-06
-3.59648e-07
-2.55143e-06
-4.36846e-07
-2.52846e-06
-5.12942e-07
-2.49683e-06
-5.87157e-07
-2.45636e-06
-6.58668e-07
-2.4069e-06
-7.2662e-07
-2.34839e-06
-7.9013e-07
-2.28083e-06
-8.48293e-07
-2.2043e-06
-9.00198e-07
-2.11904e-06
-9.44941e-07
-2.0254e-06
-9.81653e-07
-1.92391e-06
-1.00953e-06
-1.81526e-06
-1.02784e-06
-1.70037e-06
-1.03602e-06
-1.58032e-06
-1.03365e-06
-1.45638e-06
-1.02052e-06
-1.32999e-06
-9.96659e-07
-1.2027e-06
-9.6238e-07
-1.07616e-06
-9.18262e-07
-9.52021e-07
-8.65169e-07
-8.31915e-07
-8.04227e-07
-7.17352e-07
-7.36788e-07
-6.09676e-07
-6.64381e-07
-5.10009e-07
-5.88643e-07
-4.19212e-07
-5.11251e-07
-3.37862e-07
-4.33851e-07
-2.66245e-07
-3.57992e-07
-2.04375e-07
-2.85077e-07
-1.52016e-07
-2.16329e-07
-1.0872e-07
-1.52777e-07
-7.38691e-08
-9.5264e-08
-4.67165e-08
-4.44682e-08
-2.64279e-08
-9.40964e-10
-1.21122e-08
3.48458e-08
-2.84703e-09
6.24504e-08
2.30604e-09
8.14092e-08
4.29438e-09
9.1192e-08
4.0746e-09
9.11651e-08
2.61808e-09
8.05703e-08
9.18683e-10
5.85222e-08
2.40209e-08
-2.77048e-06
-2.77236e-07
-2.7675e-06
-3.62635e-07
-2.75639e-06
-4.47953e-07
-2.7369e-06
-5.32431e-07
-2.70876e-06
-6.15293e-07
-2.67172e-06
-6.95713e-07
-2.62552e-06
-7.72818e-07
-2.56996e-06
-8.4569e-07
-2.50488e-06
-9.13371e-07
-2.43022e-06
-9.74867e-07
-2.34599e-06
-1.02917e-06
-2.25238e-06
-1.07526e-06
-2.14972e-06
-1.11218e-06
-2.03856e-06
-1.139e-06
-1.91965e-06
-1.15493e-06
-1.79398e-06
-1.15932e-06
-1.66276e-06
-1.15173e-06
-1.52746e-06
-1.13197e-06
-1.38969e-06
-1.10014e-06
-1.25127e-06
-1.05669e-06
-1.11406e-06
-1.00237e-06
-9.79978e-07
-9.38312e-07
-8.50846e-07
-8.6592e-07
-7.28358e-07
-7.86869e-07
-6.13984e-07
-7.03017e-07
-5.08913e-07
-6.16323e-07
-4.1401e-07
-5.28753e-07
-3.29803e-07
-4.422e-07
-2.56477e-07
-3.58402e-07
-1.93909e-07
-2.78897e-07
-1.41698e-07
-2.04988e-07
-9.92218e-08
-1.3774e-07
-6.56847e-08
-7.80052e-08
-4.017e-08
-2.64557e-08
-2.1683e-08
1.63588e-08
-9.18484e-09
4.99522e-08
-1.61588e-09
7.38403e-08
2.092e-09
8.74841e-08
3.01269e-09
9.02444e-08
2.23061e-09
8.13524e-08
8.49152e-10
5.99037e-08
2.48701e-08
-2.94805e-06
-2.69435e-07
-2.94834e-06
-3.62341e-07
-2.94087e-06
-4.55422e-07
-2.92536e-06
-5.47947e-07
-2.90148e-06
-6.39169e-07
-2.86891e-06
-7.28286e-07
-2.82729e-06
-8.14437e-07
-2.77628e-06
-8.96701e-07
-2.71556e-06
-9.7409e-07
-2.64486e-06
-1.04556e-06
-2.56402e-06
-1.11001e-06
-2.47296e-06
-1.16632e-06
-2.37179e-06
-1.21334e-06
-2.26082e-06
-1.24997e-06
-2.14059e-06
-1.27517e-06
-2.01189e-06
-1.28802e-06
-1.87581e-06
-1.28781e-06
-1.73373e-06
-1.27405e-06
-1.5873e-06
-1.24657e-06
-1.4384e-06
-1.20559e-06
-1.28908e-06
-1.15169e-06
-1.14152e-06
-1.08588e-06
-9.97864e-07
-1.00957e-06
-8.60198e-07
-9.24535e-07
-7.30396e-07
-8.32819e-07
-6.10051e-07
-7.36668e-07
-5.00403e-07
-6.38402e-07
-4.02298e-07
-5.40304e-07
-3.16178e-07
-4.44522e-07
-2.42095e-07
-3.5298e-07
-1.7975e-07
-2.67333e-07
-1.28551e-07
-1.8894e-07
-8.76726e-08
-1.18883e-07
-5.61257e-08
-5.80025e-08
-3.28095e-08
-6.9574e-09
-1.65598e-08
3.37025e-08
-6.18252e-09
6.3463e-08
-4.73226e-10
8.17748e-08
1.77641e-09
8.79948e-08
1.78039e-09
8.13484e-08
7.68986e-10
6.09151e-08
2.56391e-08
-3.0983e-06
-2.59126e-07
-3.10168e-06
-3.58966e-07
-3.09788e-06
-4.59217e-07
-3.08663e-06
-5.59201e-07
-3.06757e-06
-6.58225e-07
-3.04032e-06
-7.55539e-07
-3.00443e-06
-8.50325e-07
-2.95944e-06
-9.41692e-07
-2.90487e-06
-1.02866e-06
-2.84025e-06
-1.11017e-06
-2.76519e-06
-1.18508e-06
-2.67936e-06
-1.25215e-06
-2.58258e-06
-1.31012e-06
-2.47487e-06
-1.35768e-06
-2.35648e-06
-1.39357e-06
-2.22792e-06
-1.41657e-06
-2.09007e-06
-1.42566e-06
-1.94411e-06
-1.42e-06
-1.79161e-06
-1.39908e-06
-1.63443e-06
-1.36277e-06
-1.47474e-06
-1.31137e-06
-1.31492e-06
-1.2457e-06
-1.15745e-06
-1.16704e-06
-1.00479e-06
-1.07719e-06
-8.59276e-07
-9.78335e-07
-7.22972e-07
-8.72972e-07
-5.97585e-07
-7.63789e-07
-4.84383e-07
-6.53506e-07
-3.84157e-07
-5.44748e-07
-2.97223e-07
-4.39914e-07
-2.23456e-07
-3.411e-07
-1.62346e-07
-2.5005e-07
-1.13076e-07
-1.68153e-07
-7.45994e-08
-9.64788e-08
-4.57146e-08
-3.58422e-08
-2.51265e-08
1.31143e-08
-1.1494e-08
4.98305e-08
-3.46012e-09
7.37409e-08
3.34959e-10
8.41997e-08
1.25546e-09
8.04279e-08
6.75711e-10
6.14948e-08
2.63148e-08
-3.21581e-06
-2.46897e-07
-3.22186e-06
-3.52916e-07
-3.22154e-06
-4.59539e-07
-3.21457e-06
-5.66166e-07
-3.20062e-06
-6.7218e-07
-3.17924e-06
-7.76912e-07
-3.14995e-06
-8.7962e-07
-3.11216e-06
-9.79477e-07
-3.06527e-06
-1.07556e-06
-3.00863e-06
-1.16682e-06
-2.9416e-06
-1.25211e-06
-2.8636e-06
-1.33015e-06
-2.77416e-06
-1.39957e-06
-2.67293e-06
-1.45891e-06
-2.55982e-06
-1.50668e-06
-2.435e-06
-1.5414e-06
-2.29899e-06
-1.56167e-06
-2.15271e-06
-1.56629e-06
-1.99748e-06
-1.55431e-06
-1.83505e-06
-1.52519e-06
-1.6676e-06
-1.47883e-06
-1.4976e-06
-1.41569e-06
-1.3278e-06
-1.33685e-06
-1.16104e-06
-1.24396e-06
-1.00011e-06
-1.13926e-06
-8.47629e-07
-1.02546e-06
-7.05843e-07
-9.05575e-07
-5.76552e-07
-7.82798e-07
-4.61013e-07
-6.60287e-07
-3.59916e-07
-5.41011e-07
-2.73404e-07
-4.27613e-07
-2.01126e-07
-3.22328e-07
-1.42326e-07
-2.26954e-07
-9.59311e-08
-1.42873e-07
-6.06527e-08
-7.11206e-08
-3.50644e-08
-1.24739e-08
-1.76687e-08
3.24348e-08
-6.94012e-09
6.30123e-08
-1.34768e-09
7.86072e-08
6.40884e-10
7.84393e-08
5.65901e-10
6.15698e-08
2.68807e-08
-3.29681e-06
-2.33473e-07
-3.30495e-06
-3.44777e-07
-3.30768e-06
-4.56812e-07
-3.30475e-06
-5.69087e-07
-3.29586e-06
-6.81075e-07
-3.28056e-06
-7.92212e-07
-3.25832e-06
-9.01859e-07
-3.22851e-06
-1.00929e-06
-3.1904e-06
-1.11366e-06
-3.14321e-06
-1.21401e-06
-3.0861e-06
-1.30922e-06
-3.01824e-06
-1.39801e-06
-2.93883e-06
-1.47897e-06
-2.8472e-06
-1.55054e-06
-2.74283e-06
-1.61104e-06
-2.62548e-06
-1.65875e-06
-2.49527e-06
-1.69187e-06
-2.3527e-06
-1.70886e-06
-2.19873e-06
-1.70828e-06
-2.03485e-06
-1.68907e-06
-1.86307e-06
-1.65061e-06
-1.68587e-06
-1.5929e-06
-1.50612e-06
-1.51659e-06
-1.32698e-06
-1.4231e-06
-1.1517e-06
-1.31454e-06
-9.83436e-07
-1.19372e-06
-8.25073e-07
-1.06394e-06
-6.79042e-07
-9.28829e-07
-5.47192e-07
-7.92136e-07
-4.30722e-07
-6.57482e-07
-3.3016e-07
-5.28174e-07
-2.4542e-07
-4.07068e-07
-1.75878e-07
-2.96495e-07
-1.20491e-07
-1.98261e-07
-7.79071e-08
-1.13704e-07
-4.6578e-08
-4.3803e-08
-2.48442e-08
1.07011e-08
-1.09979e-08
4.9166e-08
-3.31899e-09
7.09283e-08
-8.69701e-11
7.52073e-08
4.34846e-10
6.1048e-08
2.73155e-08
-3.33967e-06