/*--------------------------------*- C++ -*----------------------------------*\
  =========                 |
  \\      /  F ield         | OpenFOAM: The Open Source CFD Toolbox
   \\    /   O peration     | Website:  https://openfoam.org
    \\  /    A nd           | Version:  9
     \\/     M anipulation  |
\*---------------------------------------------------------------------------*/
FoamFile
{
    format      ascii;
    class       volVectorField;
    location    "1";
    object      U;
}
// * * * * * * * * * * * * * * * * * * * * * * * * * * * * * * * * * * * * * //

dimensions      [0 1 -1 0 0 0 0];

internalField   nonuniform List<vector> 
1240
(
(-0.00149709 -6.38255e-05 0)
(-0.00127335 -6.47792e-05 0)
(-0.00104747 -6.50059e-05 0)
(-0.000821821 -6.44957e-05 0)
(-0.000598761 -6.32578e-05 0)
(-0.000380625 -6.1314e-05 0)
(-0.000169663 -5.86989e-05 0)
(3.1992e-05 -5.54614e-05 0)
(0.000222365 -5.16586e-05 0)
(0.000399677 -4.73608e-05 0)
(0.000562376 -4.2648e-05 0)
(0.000709157 -3.7605e-05 0)
(0.000838984 -3.23193e-05 0)
(0.000951092 -2.68795e-05 0)
(0.00104499 -2.13719e-05 0)
(0.00112047 -1.58778e-05 0)
(0.00117755 -1.04722e-05 0)
(0.0012165 -5.22109e-06 0)
(0.00123781 -1.81544e-07 0)
(0.00124213 4.5997e-06 0)
(0.00123028 9.08813e-06 0)
(0.00120321 1.32555e-05 0)
(0.00116195 1.70827e-05 0)
(0.00110765 2.05571e-05 0)
(0.0010415 2.36689e-05 0)
(0.000964778 2.64078e-05 0)
(0.000878845 2.87575e-05 0)
(0.000785164 3.06895e-05 0)
(0.000685354 3.21538e-05 0)
(0.000581262 3.30674e-05 0)
(0.000475069 3.32971e-05 0)
(0.000369423 3.26362e-05 0)
(0.000267635 3.07731e-05 0)
(0.000173904 2.72641e-05 0)
(9.34826e-05 2.15564e-05 0)
(3.24337e-05 1.31449e-05 0)
(-2.80291e-06 2.27465e-06 0)
(-6.57525e-06 -6.55724e-06 0)
(-0.00447564 -0.000426547 0)
(-0.00388181 -0.000432879 0)
(-0.00328207 -0.000434781 0)
(-0.0026823 -0.00043218 0)
(-0.00208841 -0.000425109 0)
(-0.00150623 -0.000413674 0)
(-0.000941436 -0.00039806 0)
(-0.000399434 -0.000378528 0)
(0.000114735 -0.000355406 0)
(0.000596478 -0.000329084 0)
(0.00104173 -0.000300013 0)
(0.001447 -0.000268679 0)
(0.00180946 -0.000235592 0)
(0.0021269 -0.000201269 0)
(0.00239782 -0.000166226 0)
(0.00262134 -0.000130958 0)
(0.00279726 -9.59325e-05 0)
(0.00292593 -6.15734e-05 0)
(0.00300829 -2.82604e-05 0)
(0.00304576 3.67803e-06 0)
(0.00304018 3.39664e-05 0)
(0.0029938 6.23725e-05 0)
(0.00290917 8.87056e-05 0)
(0.00278913 0.000112804 0)
(0.0026368 0.000134516 0)
(0.00245556 0.000153682 0)
(0.00224907 0.000170107 0)
(0.00202136 0.000183525 0)
(0.00177691 0.000193561 0)
(0.00152082 0.000199682 0)
(0.00125896 0.000201141 0)
(0.000998262 0.00019692 0)
(0.000746901 0.000185681 0)
(0.000514553 0.0001658 0)
(0.000312239 0.000135637 0)
(0.00015138 9.42702e-05 0)
(4.35553e-05 4.3622e-05 0)
(2.19542e-06 -2.84465e-06 0)
(-0.00745053 -0.00118245 0)
(-0.00654709 -0.00120012 0)
(-0.00563408 -0.00120606 0)
(-0.00472002 -0.00120008 0)
(-0.00381352 -0.00118223 0)
(-0.00292307 -0.00115274 0)
(-0.00205699 -0.00111207 0)
(-0.00122324 -0.00106086 0)
(-0.000429308 -0.000999923 0)
(0.000317947 -0.00093026 0)
(0.00101236 -0.000852992 0)
(0.00164861 -0.000769372 0)
(0.00222223 -0.000680706 0)
(0.00272971 -0.000588338 0)
(0.00316846 -0.000493617 0)
(0.00353688 -0.000397854 0)
(0.00383427 -0.000302295 0)
(0.00406083 -0.000208099 0)
(0.0042176 -0.000116315 0)
(0.00430635 -2.78761e-05 0)
(0.00432956 5.64047e-05 0)
(0.00429033 0.000135826 0)
(0.00419229 0.000209779 0)
(0.00403958 0.000277722 0)
(0.0038368 0.000339135 0)
(0.00358902 0.000393474 0)
(0.00330181 0.000440103 0)
(0.00298133 0.000478218 0)
(0.00263443 0.000506765 0)
(0.00226883 0.000524339 0)
(0.00189331 0.000529098 0)
(0.00151797 0.000518697 0)
(0.00115437 0.000490301 0)
(0.000815696 0.000440807 0)
(0.000516352 0.00036754 0)
(0.000270666 0.000269697 0)
(9.45534e-05 0.00015149 0)
(1.30697e-05 3.2291e-05 0)
(-0.0104525 -0.00222116 0)
(-0.00928651 -0.00225501 0)
(-0.00810695 -0.00226756 0)
(-0.00692439 -0.00225843 0)
(-0.00574951 -0.00222767 0)
(-0.00459292 -0.00217567 0)
(-0.00346503 -0.00210315 0)
(-0.00237589 -0.00201122 0)
(-0.00133499 -0.0019013 0)
(-0.000351124 -0.00177512 0)
(0.000567757 -0.00163466 0)
(0.00141466 -0.00148211 0)
(0.00218369 -0.0013198 0)
(0.00287002 -0.00115015 0)
(0.00347004 -0.000975582 0)
(0.00398128 -0.000798478 0)
(0.00440246 -0.000621128 0)
(0.0047334 -0.000445681 0)
(0.00497502 -0.00027411 0)
(0.0051292 -0.000108196 0)
(0.00519875 5.04773e-05 0)
(0.00518731 0.000200516 0)
(0.00509929 0.000340681 0)
(0.00493977 0.000469842 0)
(0.00471452 0.000586915 0)
(0.00442996 0.000690766 0)
(0.00409319 0.000780119 0)
(0.00371207 0.000853426 0)
(0.00329536 0.000908741 0)
(0.00285281 0.000943587 0)
(0.00239544 0.000954847 0)
(0.00193561 0.000938714 0)
(0.00148728 0.00089079 0)
(0.00106605 0.000806482 0)
(0.00068875 0.000681988 0)
(0.000372193 0.000516099 0)
(0.000137209 0.000313499 0)
(2.16313e-05 9.35996e-05 0)
(-0.013534 -0.00349477 0)
(-0.0121413 -0.00354985 0)
(-0.0107303 -0.00357235 0)
(-0.00931299 -0.00356167 0)
(-0.00790187 -0.00351779 0)
(-0.00650927 -0.00344121 0)
(-0.00514738 -0.00333293 0)
(-0.00382807 -0.00319453 0)
(-0.00256258 -0.00302808 0)
(-0.00136145 -0.00283614 0)
(-0.000234265 -0.00262164 0)
(0.000810438 -0.00238785 0)
(0.00176533 -0.00213828 0)
(0.00262434 -0.00187656 0)
(0.00338276 -0.0016064 0)
(0.00403722 -0.00133145 0)
(0.00458574 -0.00105526 0)
(0.00502764 -0.000781172 0)
(0.00536354 -0.000512305 0)
(0.00559527 -0.000251501 0)
(0.00572576 -1.32205e-06 0)
(0.005759 0.000235939 0)
(0.00569993 0.000458215 0)
(0.00555435 0.000663602 0)
(0.00532894 0.000850261 0)
(0.00503119 0.0010163 0)
(0.00466942 0.00115965 0)
(0.00425288 0.00127784 0)
(0.00379181 0.00136793 0)
(0.00329759 0.00142624 0)
(0.00278288 0.00144832 0)
(0.00226181 0.00142885 0)
(0.00175012 0.00136186 0)
(0.00126532 0.00124114 0)
(0.000826347 0.0010614 0)
(0.000452601 0.000819953 0)
(0.000169904 0.000519594 0)
(2.76793e-05 0.000175225 0)
(-0.0167712 -0.00497615 0)
(-0.0151782 -0.00505849 0)
(-0.0135606 -0.00509561 0)
(-0.0119318 -0.00508655 0)
(-0.0103057 -0.00503115 0)
(-0.00869622 -0.00492992 0)
(-0.0071173 -0.00478412 0)
(-0.00558245 -0.0045958 0)
(-0.00410462 -0.00436769 0)
(-0.00269604 -0.00410321 0)
(-0.00136793 -0.00380633 0)
(-0.000130372 -0.0034815 0)
(0.00100784 -0.00313351 0)
(0.00203933 -0.00276739 0)
(0.00295821 -0.00238828 0)
(0.00376014 -0.00200129 0)
(0.00444232 -0.0016114 0)
(0.00500347 -0.00122336 0)
(0.00544382 -0.000841642 0)
(0.00576497 -0.000470346 0)
(0.00596989 -0.000113214 0)
(0.00606275 0.000226367 0)
(0.00604888 0.000545318 0)
(0.00593466 0.000840782 0)
(0.00572748 0.00111001 0)
(0.00543572 0.00135019 0)
(0.00506871 0.00155831 0)
(0.00463683 0.00173092 0)
(0.00415152 0.00186392 0)
(0.00362545 0.0019524 0)
(0.00307266 0.0019905 0)
(0.00250867 0.00197136 0)
(0.0019507 0.00188728 0)
(0.00141797 0.00173025 0)
(0.000931496 0.00149287 0)
(0.000513277 0.00116987 0)
(0.000193747 0.000760244 0)
(3.17372e-05 0.000271805 0)
(-0.0202656 -0.00664289 0)
(-0.0184905 -0.00676026 0)
(-0.0166823 -0.00681859 0)
(-0.0148556 -0.00681639 0)
(-0.0130259 -0.00675318 0)
(-0.0112086 -0.00662943 0)
(-0.00941929 -0.00644657 0)
(-0.00767329 -0.00620708 0)
(-0.00598536 -0.00591436 0)
(-0.00436947 -0.00557271 0)
(-0.00283863 -0.00518718 0)
(-0.00140461 -0.00476349 0)
(-7.77836e-05 -0.00430785 0)
(0.00113301 -0.0038268 0)
(0.00222057 -0.00332708 0)
(0.00317944 -0.00281543 0)
(0.00400589 -0.00229848 0)
(0.00469792 -0.00178257 0)
(0.00525525 -0.00127372 0)
(0.00567921 -0.000777508 0)
(0.00597265 -0.000299051 0)
(0.00613987 0.000156981 0)
(0.00618651 0.000586316 0)
(0.00611943 0.000984982 0)
(0.00594665 0.00134916 0)
(0.0056773 0.00167502 0)
(0.00532162 0.00195847 0)
(0.00489094 0.00219496 0)
(0.00439776 0.00237921 0)
(0.00385588 0.00250499 0)
(0.00328049 0.00256499 0)
(0.00268837 0.00255068 0)
(0.00209812 0.00245252 0)
(0.00153059 0.00226032 0)
(0.0010088 0.00196402 0)
(0.000557305 0.00155479 0)
(0.000210506 0.00102657 0)
(3.43676e-05 0.00037887 0)
(-0.0241449 -0.00847907 0)
(-0.0221988 -0.00864179 0)
(-0.0202079 -0.00873051 0)
(-0.0181884 -0.00874299 0)
(-0.0161572 -0.00867826 0)
(-0.0141314 -0.00853659 0)
(-0.0121285 -0.00831951 0)
(-0.0101658 -0.00802983 0)
(-0.00825989 -0.00767161 0)
(-0.00642693 -0.00725002 0)
(-0.00468191 -0.00677126 0)
(-0.00303855 -0.00624239 0)
(-0.00150908 -0.00567115 0)
(-0.000104053 -0.00506576 0)
(0.00116781 -0.00443471 0)
(0.00229971 -0.00378658 0)
(0.00328681 -0.00312984 0)
(0.00412627 -0.00247267 0)
(0.00481715 -0.00182286 0)
(0.00536041 -0.00118767 0)
(0.00575876 -0.000573809 0)
(0.00601656 1.25738e-05 0)
(0.00613971 0.000565831 0)
(0.00613552 0.00108071 0)
(0.00601263 0.00155219 0)
(0.0057809 0.00197527 0)
(0.00545139 0.00234472 0)
(0.00503637 0.00265481 0)
(0.00454936 0.00289899 0)
(0.00400517 0.00306968 0)
(0.00342014 0.003158 0)
(0.00281222 0.00315369 0)
(0.00220141 0.00304514 0)
(0.00161013 0.00281966 0)
(0.00106338 0.002464 0)
(0.000588077 0.00196515 0)
(0.000221903 0.00131119 0)
(3.60248e-05 0.000493046 0)
(-0.0325446 -0.00978117 0)
(-0.0305991 -0.0101682 0)
(-0.0285626 -0.0104754 0)
(-0.02645 -0.0106972 0)
(-0.0242772 -0.0108288 0)
(-0.0220621 -0.010867 0)
(-0.019823 -0.0108101 0)
(-0.017579 -0.010658 0)
(-0.0153498 -0.0104122 0)
(-0.0131546 -0.0100758 0)
(-0.0110129 -0.00965323 0)
(-0.00894283 -0.00915072 0)
(-0.006962 -0.00857559 0)
(-0.00508646 -0.00793634 0)
(-0.0033307 -0.00724235 0)
(-0.00170732 -0.00650368 0)
(-0.000226935 -0.00573083 0)
(0.00110204 -0.00493441 0)
(0.0022734 -0.00412499 0)
(0.00328323 -0.00331285 0)
(0.00412982 -0.0025078 0)
(0.00481363 -0.00171905 0)
(0.00533715 -0.000955133 0)
(0.00570477 -0.000223906 0)
(0.00592267 0.000467413 0)
(0.00599863 0.00111212 0)
(0.0059419 0.00170384 0)
(0.00576314 0.0022363 0)
(0.0054743 0.00270302 0)
(0.00508861 0.003097 0)
(0.0046206 0.00341041 0)
(0.00408621 0.0036342 0)
(0.00350289 0.00375789 0)
(0.00288989 0.00376933 0)
(0.00226856 0.00365467 0)
(0.00166296 0.00339843 0)
(0.00109995 0.00298382 0)
(0.000608635 0.00239316 0)
(0.000229361 0.00160837 0)
(3.7035e-05 0.000611898 0)
(-0.041692 -0.0104949 0)
(-0.0398879 -0.0111526 0)
(-0.0379455 -0.0117331 0)
(-0.0358764 -0.0122276 0)
(-0.033694 -0.0126279 0)
(-0.0314142 -0.0129268 0)
(-0.0290545 -0.0131179 0)
(-0.026634 -0.0131969 0)
(-0.0241728 -0.0131611 0)
(-0.0216924 -0.0130096 0)
(-0.0192148 -0.0127437 0)
(-0.0167621 -0.0123666 0)
(-0.0143563 -0.0118833 0)
(-0.0120188 -0.0113008 0)
(-0.00976995 -0.0106276 0)
(-0.00762885 -0.00987366 0)
(-0.0056127 -0.00905026 0)
(-0.00373672 -0.00816948 0)
(-0.00201386 -0.00724402 0)
(-0.000454571 -0.00628687 0)
(0.000933223 -0.00531099 0)
(0.00214423 -0.00432904 0)
(0.00317574 -0.00335321 0)
(0.00402757 -0.00239494 0)
(0.0047019 -0.00146489 0)
(0.00520312 -0.000572896 0)
(0.00553769 0.000272026 0)
(0.00571392 0.00106152 0)
(0.00574179 0.00178771 0)
(0.00563282 0.00244289 0)
(0.00539998 0.00301927 0)
(0.00505758 0.0035085 0)
(0.00462132 0.00390137 0)
(0.00410834 0.00418735 0)
(0.00353738 0.00435424 0)
(0.00292903 0.00438792 0)
(0.00230612 0.00427212 0)
(0.00169435 0.00398835 0)
(0.00112243 0.00351602 0)
(0.000621445 0.00283258 0)
(0.00023397 0.00191368 0)
(3.76228e-05 0.000733692 0)
(-0.0481399 -0.012253 0)
(-0.0462758 -0.0130664 0)
(-0.0442448 -0.013792 0)
(-0.0420588 -0.0144188 0)
(-0.0397321 -0.0149366 0)
(-0.037281 -0.0153358 0)
(-0.0347242 -0.0156083 0)
(-0.0320825 -0.0157481 0)
(-0.0293783 -0.0157511 0)
(-0.0266355 -0.0156156 0)
(-0.023879 -0.0153422 0)
(-0.0211341 -0.014934 0)
(-0.0184263 -0.0143963 0)
(-0.0157806 -0.0137368 0)
(-0.0132209 -0.0129653 0)
(-0.0107699 -0.0120935 0)
(-0.00844834 -0.0111344 0)
(-0.00627463 -0.0101024 0)
(-0.00426467 -0.0090129 0)
(-0.00243158 -0.00788142 0)
(-0.000785434 -0.00672373 0)
(0.000666675 -0.00555532 0)
(0.00192073 -0.00439109 0)
(0.00297566 -0.00324515 0)
(0.0038332 -0.00213063 0)
(0.00449771 -0.00105966 0)
(0.00497592 -4.33477e-05 0)
(0.00527675 0.000908053 0)
(0.00541103 0.00178495 0)
(0.00539132 0.00257811 0)
(0.00523177 0.00327825 0)
(0.00494798 0.00387564 0)
(0.00455702 0.00435961 0)
(0.00407744 0.00471809 0)
(0.00352943 0.00493712 0)
(0.00293512 0.00500049 0)
(0.00231895 0.0048894 0)
(0.00170834 0.00458222 0)
(0.00113382 0.00405441 0)
(0.000628377 0.00327843 0)
(0.000236524 0.0022238 0)
(3.79398e-05 0.000857203 0)
(-0.0556622 -0.0140468 0)
(-0.0537564 -0.0150464 0)
(-0.0516493 -0.0159482 0)
(-0.0493529 -0.0167386 0)
(-0.0468814 -0.0174043 0)
(-0.0442518 -0.0179333 0)
(-0.0414841 -0.0183152 0)
(-0.0386008 -0.0185417 0)
(-0.0356269 -0.0186071 0)
(-0.0325891 -0.0185081 0)
(-0.0295157 -0.0182444 0)
(-0.0264357 -0.0178187 0)
(-0.0233788 -0.0172364 0)
(-0.0203743 -0.0165058 0)
(-0.0174504 -0.0156379 0)
(-0.0146344 -0.014646 0)
(-0.0119512 -0.0135453 0)
(-0.00942327 -0.012353 0)
(-0.00707038 -0.0110869 0)
(-0.00490891 -0.00976599 0)
(-0.00295183 -0.00840914 0)
(-0.00120851 -0.00703514 0)
(0.000315264 -0.00566213 0)
(0.00161721 -0.00430736 0)
(0.0026984 -0.00298689 0)
(0.00356304 -0.00171558 0)
(0.00421815 -0.000506989 0)
(0.00467331 0.000626433 0)
(0.00494036 0.00167314 0)
(0.00503311 0.00262214 0)
(0.00496711 0.00346258 0)
(0.00475953 0.00418322 0)
(0.00442907 0.00477187 0)
(0.00399597 0.00521487 0)
(0.00348216 0.00549646 0)
(0.0029115 0.00559829 0)
(0.00231025 0.00549895 0)
(0.00170768 0.0051736 0)
(0.00113623 0.00459366 0)
(0.00063075 0.00372668 0)
(0.000237576 0.00253615 0)
(3.80864e-05 0.00098156 0)
(-0.0644631 -0.0158542 0)
(-0.0625356 -0.0170769 0)
(-0.0603659 -0.0181926 0)
(-0.0579652 -0.0191844 0)
(-0.0553477 -0.0200356 0)
(-0.0525309 -0.0207311 0)
(-0.0495361 -0.0212574 0)
(-0.0463878 -0.0216036 0)
(-0.0431135 -0.0217613 0)
(-0.0397432 -0.0217255 0)
(-0.0363089 -0.0214944 0)
(-0.0328441 -0.0210698 0)
(-0.0293831 -0.0204569 0)
(-0.0259604 -0.0196645 0)
(-0.0226096 -0.0187046 0)
(-0.0193631 -0.0175922 0)
(-0.0162512 -0.0163451 0)
(-0.0133015 -0.0149829 0)
(-0.0105384 -0.013527 0)
(-0.0079826 -0.0119998 0)
(-0.00565068 -0.010424 0)
(-0.00355508 -0.00882229 0)
(-0.00170396 -0.00721672 0)
(-0.00010125 -0.00562822 0)
(0.00125312 -0.00407641 0)
(0.002363 -0.00257937 0)
(0.00323566 -0.0011536 0)
(0.00388139 0.000185846 0)
(0.00431317 0.00142515 0)
(0.00454628 0.00255135 0)
(0.00459799 0.00355179 0)
(0.00448735 0.00441363 0)
(0.00423502 0.00512312 0)
(0.00386329 0.00566493 0)
(0.00339613 0.00602148 0)
(0.00285948 0.00617228 0)
(0.00228165 0.00609327 0)
(0.00169399 0.00575637 0)
(0.00113096 0.00512902 0)
(0.000629405 0.00417389 0)
(0.000237481 0.0028487 0)
(3.81257e-05 0.00110613 0)
(-0.074732 -0.017651 0)
(-0.0728045 -0.0191404 0)
(-0.0705867 -0.020515 0)
(-0.068089 -0.0217535 0)
(-0.0653251 -0.0228356 0)
(-0.0623128 -0.023742 0)
(-0.0590746 -0.0244556 0)
(-0.0556368 -0.0249619 0)
(-0.0520298 -0.0252494 0)
(-0.0482868 -0.0253106 0)
(-0.0444442 -0.0251416 0)
(-0.0405402 -0.0247428 0)
(-0.0366145 -0.0241186 0)
(-0.0327075 -0.0232781 0)
(-0.0288589 -0.0222342 0)
(-0.0251077 -0.0210035 0)
(-0.0214904 -0.0196062 0)
(-0.0180408 -0.0180652 0)
(-0.0147893 -0.0164054 0)
(-0.0117619 -0.0146534 0)
(-0.00897977 -0.0128364 0)
(-0.00645949 -0.0109816 0)
(-0.00421232 -0.0091158 0)
(-0.00224453 -0.00726432 0)
(-0.000557496 -0.00545107 0)
(0.000851949 -0.00369806 0)
(0.00199115 -0.00202534 0)
(0.00287112 -0.00045107 0)
(0.00350613 0.00100824 0)
(0.00391314 0.0023373 0)
(0.00411145 0.00352147 0)
(0.00412236 0.00454613 0)
(0.00396892 0.00539586 0)
(0.00367585 0.00605368 0)
(0.00326959 0.00650016 0)
(0.00277853 0.00671264 0)
(0.00223338 0.00666449 0)
(0.00166783 0.00632442 0)
(0.00111863 0.00565593 0)
(0.000624792 0.00461698 0)
(0.000236439 0.00315971 0)
(3.80946e-05 0.00123042 0)
(-0.0866266 -0.0194109 0)
(-0.084723 -0.0212178 0)
(-0.0824744 -0.0229033 0)
(-0.0798895 -0.0244417 0)
(-0.0769813 -0.0258079 0)
(-0.0737677 -0.0269777 0)
(-0.0702721 -0.0279296 0)
(-0.0665226 -0.0286448 0)
(-0.0625518 -0.029108 0)
(-0.0583968 -0.0293081 0)
(-0.054098 -0.0292383 0)
(-0.0496989 -0.028897 0)
(-0.0452452 -0.0282875 0)
(-0.0407838 -0.0274182 0)
(-0.0363615 -0.0263028 0)
(-0.0320246 -0.0249594 0)
(-0.0278173 -0.0234108 0)
(-0.0237809 -0.021683 0)
(-0.0199529 -0.0198052 0)
(-0.0163659 -0.0178087 0)
(-0.0130472 -0.0157259 0)
(-0.0100186 -0.0135894 0)
(-0.00729542 -0.0114314 0)
(-0.00488722 -0.00928284 0)
(-0.00279751 -0.00717274 0)
(-0.00102428 -0.00512791 0)
(0.000439611 -0.00317272 0)
(0.00160581 -0.00132912 0)
(0.00248989 0.000383138 0)
(0.00311076 0.001946 0)
(0.00349007 0.00334252 0)
(0.00365175 0.0045561 0)
(0.0036217 0.00556955 0)
(0.00342758 0.00636416 0)
(0.00309876 0.00691868 0)
(0.00266654 0.00720836 0)
(0.00216446 0.00720402 0)
(0.00162892 0.00687125 0)
(0.00109929 0.00616977 0)
(0.000617044 0.00505293 0)
(0.000234533 0.00346759 0)
(3.80119e-05 0.00135401 0)
(-0.100257 -0.0211056 0)
(-0.0984041 -0.0232869 0)
(-0.0961451 -0.0253425 0)
(-0.0934871 -0.0272412 0)
(-0.0904415 -0.0289522 0)
(-0.0870262 -0.0304461 0)
(-0.0832646 -0.0316959 0)
(-0.0791863 -0.0326775 0)
(-0.074826 -0.0333709 0)
(-0.070224 -0.0337604 0)
(-0.0654251 -0.0338357 0)
(-0.0604779 -0.0335921 0)
(-0.0554343 -0.0330308 0)
(-0.0503482 -0.0321592 0)
(-0.0452745 -0.030991 0)
(-0.0402678 -0.0295456 0)
(-0.035381 -0.0278481 0)
(-0.0306642 -0.0259281 0)
(-0.0261636 -0.0238192 0)
(-0.0219201 -0.021558 0)
(-0.0179686 -0.0191829 0)
(-0.0143372 -0.0167328 0)
(-0.0110471 -0.0142467 0)
(-0.00811212 -0.0117619 0)
(-0.00553887 -0.00931376 0)
(-0.00332723 -0.00693501 0)
(-0.00147074 -0.00465532 0)
(4.26062e-05 -0.00250129 0)
(0.00122971 -0.000496692 0)
(0.00211155 0.00133711 0)
(0.00271241 0.00298044 0)
(0.00305933 0.00441443 0)
(0.00318154 0.00561996 0)
(0.00311016 0.00657652 0)
(0.00287808 0.00726107 0)
(0.00252003 0.00764682 0)
(0.00207288 0.00770216 0)
(0.00157625 0.00738972 0)
(0.00107253 0.00666554 0)
(0.000606057 0.00547861 0)
(0.000231762 0.00377073 0)
(3.78848e-05 0.0014765 0)
(-0.115668 -0.0227043 0)
(-0.113896 -0.0253226 0)
(-0.111652 -0.0278133 0)
(-0.10894 -0.0301388 0)
(-0.105771 -0.0322624 0)
(-0.102162 -0.0341484 0)
(-0.0981347 -0.0357635 0)
(-0.09372 -0.0370776 0)
(-0.0889541 -0.0380647 0)
(-0.0838797 -0.0387038 0)
(-0.0785453 -0.0389796 0)
(-0.0730048 -0.0388833 0)
(-0.0673159 -0.038413 0)
(-0.0615401 -0.0375742 0)
(-0.0557405 -0.0363799 0)
(-0.0499808 -0.0348501 0)
(-0.044324 -0.0330118 0)
(-0.0388304 -0.0308982 0)
(-0.0335562 -0.0285476 0)
(-0.0285525 -0.0260023 0)
(-0.0238634 -0.0233076 0)
(-0.0195257 -0.0205099 0)
(-0.0155675 -0.0176557 0)
(-0.0120086 -0.0147905 0)
(-0.00886018 -0.0119572 0)
(-0.00612487 -0.00919573 0)
(-0.00379772 -0.00654234 0)
(-0.00186676 -0.00402944 0)
(-0.000313991 -0.00168573 0)
(0.00088369 0.000463319 0)
(0.00175351 0.00239472 0)
(0.00232597 0.00408692 0)
(0.00263419 0.00551865 0)
(0.00271335 0.00666753 0)
(0.00260048 0.0075087 0)
(0.00233437 0.00801343 0)
(0.00195584 0.00814784 0)
(0.00150827 0.00787174 0)
(0.00103761 0.00713771 0)
(0.000591557 0.00589062 0)
(0.000228069 0.00406745 0)
(3.77146e-05 0.00159748 0)
(-0.132824 -0.024174 0)
(-0.131165 -0.0272956 0)
(-0.128966 -0.0302903 0)
(-0.126228 -0.033114 0)
(-0.12296 -0.0357233 0)
(-0.119175 -0.0380756 0)
(-0.114895 -0.0401306 0)
(-0.11015 -0.0418512 0)
(-0.104977 -0.0432044 0)
(-0.0994196 -0.0441627 0)
(-0.0935294 -0.0447045 0)
(-0.0873642 -0.0448157 0)
(-0.0809876 -0.0444901 0)
(-0.0744679 -0.0437298 0)
(-0.0678769 -0.0425459 0)
(-0.0612881 -0.0409582 0)
(-0.054775 -0.0389951 0)
(-0.0484096 -0.0366929 0)
(-0.04226 -0.0340946 0)
(-0.036389 -0.0312487 0)
(-0.0308523 -0.028208 0)
(-0.025697 -0.0250274 0)
(-0.0209608 -0.0217626 0)
(-0.0166712 -0.0184683 0)
(-0.0128455 -0.0151968 0)
(-0.00949074 -0.011997 0)
(-0.00660446 -0.00891306 0)
(-0.00417553 -0.00598478 0)
(-0.00218524 -0.00324699 0)
(-0.000608462 -0.000730304 0)
(0.000585097 0.00153819 0)
(0.00142982 0.00353373 0)
(0.00196322 0.00523252 0)
(0.0022252 0.00661015 0)
(0.0022576 0.00763994 0)
(0.002104 0.00829133 0)
(0.00180986 0.00852831 0)
(0.001423 0.00830808 0)
(0.000993546 0.00758004 0)
(0.000573153 0.00628514 0)
(0.000223366 0.00435586 0)
(3.75008e-05 0.00171649 0)
(-0.151592 -0.02548 0)
(-0.150081 -0.0291723 0)
(-0.147964 -0.0327416 0)
(-0.145237 -0.0361371 0)
(-0.141903 -0.0393083 0)
(-0.137975 -0.0422053 0)
(-0.133473 -0.0447802 0)
(-0.128422 -0.046988 0)
(-0.122859 -0.0487878 0)
(-0.116829 -0.050144 0)
(-0.110383 -0.0510279 0)
(-0.103583 -0.0514182 0)
(-0.0964957 -0.0513028 0)
(-0.0891965 -0.0506789 0)
(-0.081765 -0.0495542 0)
(-0.0742844 -0.047947 0)
(-0.0668397 -0.0458858 0)
(-0.0595152 -0.0434092 0)
(-0.0523926 -0.0405647 0)
(-0.0455485 -0.0374071 0)
(-0.0390522 -0.0339972 0)
(-0.032964 -0.0303994 0)
(-0.0273332 -0.0266799 0)
(-0.0221978 -0.0229045 0)
(-0.0175833 -0.0191366 0)
(-0.0135032 -0.015436 0)
(-0.00995898 -0.011857 0)
(-0.00694155 -0.00844825 0)
(-0.00443224 -0.00525252 0)
(-0.00240424 -0.00230684 0)
(-0.000824174 0.000356524 0)
(0.000346497 0.00270882 0)
(0.00115019 0.00472325 0)
(0.0016322 0.00637309 0)
(0.00183992 0.0076298 0)
(0.00182253 0.00846105 0)
(0.00163093 0.00882889 0)
(0.00131812 0.00868819 0)
(0.000939166 0.00798539 0)
(0.000550384 0.00665785 0)
(0.00021755 0.00463385 0)
(3.72446e-05 0.00183303 0)
(-0.171732 -0.0265864 0)
(-0.170408 -0.0309149 0)
(-0.168415 -0.0351279 0)
(-0.165743 -0.0391679 0)
(-0.162392 -0.0429773 0)
(-0.15837 -0.0464989 0)
(-0.153692 -0.0496765 0)
(-0.148382 -0.0524567 0)
(-0.142473 -0.0547897 0)
(-0.136005 -0.0566311 0)
(-0.129032 -0.057943 0)
(-0.121613 -0.0586957 0)
(-0.11382 -0.058869 0)
(-0.105733 -0.0584535 0)
(-0.0974359 -0.0574514 0)
(-0.089023 -0.0558775 0)
(-0.08059 -0.0537588 0)
(-0.0722344 -0.051135 0)
(-0.0640526 -0.0480568 0)
(-0.0561368 -0.0445852 0)
(-0.0485725 -0.0407893 0)
(-0.0414356 -0.0367437 0)
(-0.0347904 -0.0325265 0)
(-0.0286881 -0.0282163 0)
(-0.0231654 -0.02389 0)
(-0.0182447 -0.0196202 0)
(-0.0139338 -0.0154738 0)
(-0.0102272 -0.0115109 0)
(-0.00710738 -0.00778384 0)
(-0.00454667 -0.00433805 0)
(-0.00250882 -0.00121235 0)
(-0.000950972 0.00155946 0)
(0.000174628 0.00394684 0)
(0.000919293 0.00592039 0)
(0.00133681 0.00744953 0)
(0.00148281 0.00850022 0)
(0.00141452 0.00903278 0)
(0.00119103 0.00899998 0)
(0.000873173 0.00834567 0)
(0.000522742 0.00700389 0)
(0.000210514 0.00489909 0)
(3.69511e-05 0.00194657 0)
(-0.192891 -0.0274576 0)
(-0.191793 -0.032482 0)
(-0.18997 -0.0374024 0)
(-0.187407 -0.0421549 0)
(-0.184099 -0.0466754 0)
(-0.180049 -0.050899 0)
(-0.175266 -0.0547617 0)
(-0.169767 -0.0582011 0)
(-0.163581 -0.0611579 0)
(-0.156743 -0.0635777 0)
(-0.149303 -0.0654124 0)
(-0.141318 -0.0666218 0)
(-0.13286 -0.0671759 0)
(-0.124009 -0.067056 0)
(-0.114856 -0.0662565 0)
(-0.105501 -0.064786 0)
(-0.0960514 -0.062668 0)
(-0.0866169 -0.0599407 0)
(-0.0773094 -0.0566569 0)
(-0.0682385 -0.0528824 0)
(-0.0595078 -0.0486942 0)
(-0.051212 -0.0441779 0)
(-0.0434337 -0.0394243 0)
(-0.036241 -0.0345269 0)
(-0.0296853 -0.029578 0)
(-0.0238011 -0.024666 0)
(-0.0186056 -0.0198733 0)
(-0.0140991 -0.0152737 0)
(-0.0102674 -0.0109323 0)
(-0.00708271 -0.0069049 0)
(-0.00450671 -0.00323884 0)
(-0.00249233 2.55869e-05 0)
(-0.000986149 0.00285309 0)
(6.97844e-05 0.00521093 0)
(0.000736458 0.00706624 0)
(0.00107689 0.00838326 0)
(0.00115564 0.00912074 0)
(0.00103886 0.00922969 0)
(0.000794133 0.00865165 0)
(0.000489677 0.00731777 0)
(0.000202151 0.00514893 0)
(3.66299e-05 0.00205652 0)
(-0.214604 -0.0280607 0)
(-0.213769 -0.0338311 0)
(-0.212165 -0.0395129 0)
(-0.209771 -0.0450369 0)
(-0.206577 -0.050333 0)
(-0.20258 -0.0553296 0)
(-0.197781 -0.0599548 0)
(-0.19219 -0.0641375 0)
(-0.185827 -0.0678088 0)
(-0.17872 -0.0709035 0)
(-0.170911 -0.073362 0)
(-0.162453 -0.0751321 0)
(-0.153411 -0.0761717 0)
(-0.143865 -0.0764503 0)
(-0.133908 -0.0759515 0)
(-0.123644 -0.0746746 0)
(-0.113187 -0.0726361 0)
(-0.102661 -0.0698703 0)
(-0.0921912 -0.066429 0)
(-0.0819061 -0.0623813 0)
(-0.0719296 -0.0578107 0)
(-0.0623779 -0.0528132 0)
(-0.0533555 -0.0474936 0)
(-0.0449513 -0.0419614 0)
(-0.037236 -0.0363271 0)
(-0.0302604 -0.0306977 0)
(-0.0240546 -0.0251741 0)
(-0.0186286 -0.0198477 0)
(-0.0139734 -0.0147992 0)
(-0.0100636 -0.0100979 0)
(-0.00685951 -0.0058022 0)
(-0.00431049 -0.00196075 0)
(-0.00235734 0.00138494 0)
(-0.000934957 0.00419789 0)
(2.56362e-05 0.00644244 0)
(0.000595846 0.008081 0)
(0.000848646 0.00907089 0)
(0.000858376 0.00936165 0)
(0.000700446 0.0088929 0)
(0.000450583 0.00759327 0)
(0.000192349 0.00538047 0)
(3.62944e-05 0.00216225 0)
(-0.236302 -0.0283683 0)
(-0.23576 -0.0349209 0)
(-0.234422 -0.0414043 0)
(-0.232261 -0.047745 0)
(-0.229261 -0.0538684 0)
(-0.22541 -0.059697 0)
(-0.220704 -0.0651522 0)
(-0.21514 -0.0701549 0)
(-0.208729 -0.0746266 0)
(-0.201489 -0.0784913 0)
(-0.193449 -0.081677 0)
(-0.184652 -0.0841183 0)
(-0.175156 -0.0857587 0)
(-0.165034 -0.0865533 0)
(-0.154375 -0.0864717 0)
(-0.143284 -0.0855001 0)
(-0.13188 -0.0836442 0)
(-0.120295 -0.0809299 0)
(-0.108669 -0.0774049 0)
(-0.0971467 -0.0731377 0)
(-0.0858747 -0.0682166 0)
(-0.074993 -0.0627467 0)
(-0.0646313 -0.0568463 0)
(-0.0549041 -0.0506423 0)
(-0.0459062 -0.0442654 0)
(-0.03771 -0.0378445 0)
(-0.0303635 -0.0315027 0)
(-0.0238904 -0.025353 0)
(-0.0182912 -0.0194958 0)
(-0.013545 -0.0140177 0)
(-0.00961311 -0.00899111 0)
(-0.00644202 -0.00447603 0)
(-0.00396712 -0.000522083 0)
(-0.00211589 0.00282817 0)
(-0.000810587 0.00553552 0)
(2.95748e-05 0.00756026 0)
(0.000487149 0.00885833 0)
(0.000645886 0.00937807 0)
(0.00059027 0.0090576 0)
(0.000404755 0.00782341 0)
(0.000180975 0.00559043 0)
(3.59592e-05 0.00226307 0)
(-0.257334 -0.0283624 0)
(-0.257107 -0.0357158 0)
(-0.256076 -0.0430228 0)
(-0.254207 -0.0502072 0)
(-0.251481 -0.0571914 0)
(-0.247879 -0.0638941 0)
(-0.243385 -0.0702313 0)
(-0.237988 -0.0761171 0)
(-0.231683 -0.0814646 0)
(-0.224474 -0.0861872 0)
(-0.216378 -0.0902006 0)
(-0.207422 -0.0934251 0)
(-0.19765 -0.0957884 0)
(-0.187123 -0.0972285 0)
(-0.175923 -0.0976975 0)
(-0.164147 -0.0971647 0)
(-0.151914 -0.0956198 0)
(-0.13936 -0.0930758 0)
(-0.126637 -0.0895709 0)
(-0.113904 -0.0851687 0)
(-0.10133 -0.0799581 0)
(-0.0890788 -0.0740507 0)
(-0.0773097 -0.0675771 0)
(-0.0661668 -0.0606817 0)
(-0.0557747 -0.0535169 0)
(-0.0462333 -0.0462368 0)
(-0.0376148 -0.0389906 0)
(-0.0299624 -0.0319175 0)
(-0.0232906 -0.0251427 0)
(-0.0175876 -0.0187745 0)
(-0.012818 -0.0129041 0)
(-0.00892768 -0.00760591 0)
(-0.00584724 -0.00294063 0)
(-0.00349678 0.0010417 0)
(-0.00178928 0.00429717 0)
(-0.000633571 0.00678334 0)
(6.37083e-05 0.00845474 0)
(0.000397058 0.00925873 0)
(0.000461411 0.00913232 0)
(0.00035133 0.0080003 0)
(0.00016785 0.00577517 0)
(3.56358e-05 0.00235827 0)
(-0.277002 -0.0280383 0)
(-0.277096 -0.0361907 0)
(-0.2764 -0.0443216 0)
(-0.274875 -0.0523544 0)
(-0.2725 -0.0602106 0)
(-0.269247 -0.0678071 0)
(-0.26509 -0.075057 0)
(-0.260006 -0.0818696 0)
(-0.253977 -0.088151 0)
(-0.24699 -0.0938055 0)
(-0.239042 -0.0987372 0)
(-0.230144 -0.102852 0)
(-0.22032 -0.106061 0)
(-0.209614 -0.108283 0)
(-0.198089 -0.109449 0)
(-0.185833 -0.109507 0)
(-0.172956 -0.108427 0)
(-0.159592 -0.106203 0)
(-0.145897 -0.102856 0)
(-0.132042 -0.098439 0)
(-0.118214 -0.0930362 0)
(-0.104603 -0.0867608 0)
(-0.0913984 -0.0797524 0)
(-0.0787779 -0.0721718 0)
(-0.0669014 -0.0641939 0)
(-0.0559031 -0.056 0)
(-0.0458867 -0.0477698 0)
(-0.036922 -0.039674 0)
(-0.0290443 -0.0318681 0)
(-0.0222559 -0.0244882 0)
(-0.0165295 -0.0176494 0)
(-0.0118128 -0.0114457 0)
(-0.00803347 -0.00595216 0)
(-0.00510477 -0.00122925 0)
(-0.00293014 0.00267264 0)
(-0.00140716 0.00570744 0)
(-0.000430453 0.00782791 0)
(0.000106692 0.00898059 0)
(0.000311172 0.00910175 0)
(0.000289203 0.00811492 0)
(0.00015272 0.00593053 0)
(3.53271e-05 0.002447 0)
(-0.294603 -0.0274082 0)
(-0.295008 -0.036335 0)
(-0.294657 -0.0452664 0)
(-0.293514 -0.0541273 0)
(-0.291552 -0.0628408 0)
(-0.288738 -0.0713248 0)
(-0.285036 -0.0794918 0)
(-0.280412 -0.0872491 0)
(-0.274832 -0.0944987 0)
(-0.268267 -0.101138 0)
(-0.260693 -0.107061 0)
(-0.252097 -0.11216 0)
(-0.242481 -0.116329 0)
(-0.231864 -0.119468 0)
(-0.220288 -0.121484 0)
(-0.207818 -0.122301 0)
(-0.194549 -0.121862 0)
(-0.180605 -0.120135 0)
(-0.166137 -0.117119 0)
(-0.151322 -0.112848 0)
(-0.136359 -0.107392 0)
(-0.121461 -0.100861 0)
(-0.106848 -0.0933965 0)
(-0.0927327 -0.0851729 0)
(-0.0793159 -0.0763861 0)
(-0.0667729 -0.0672463 0)
(-0.0552468 -0.0579671 0)
(-0.0448426 -0.048756 0)
(-0.0356249 -0.0398054 0)
(-0.0276175 -0.0312865 0)
(-0.0208069 -0.023345 0)
(-0.0151472 -0.0161003 0)
(-0.0105659 -0.00964746 0)
(-0.00697074 -0.00406079 0)
(-0.0042559 0.000600094 0)
(-0.00230711 0.00428397 0)
(-0.00100578 0.00694118 0)
(-0.000231519 0.00851738 0)
(0.000136196 0.0089484 0)
(0.000216942 0.00815694 0)
(0.000135219 0.00605171 0)
(3.50195e-05 0.0025283 0)
(-0.30949 -0.0265026 0)
(-0.310173 -0.0361571 0)
(-0.31016 -0.0458411 0)
(-0.309414 -0.0554838 0)
(-0.307907 -0.0650124 0)
(-0.305601 -0.0743484 0)
(-0.302455 -0.0834073 0)
(-0.298422 -0.0920974 0)
(-0.293455 -0.10032 0)
(-0.287506 -0.107968 0)
(-0.280531 -0.114929 0)
(-0.272492 -0.121083 0)
(-0.263363 -0.126311 0)
(-0.253136 -0.130491 0)
(-0.241822 -0.133508 0)
(-0.229458 -0.135256 0)
(-0.216113 -0.135648 0)
(-0.201889 -0.134621 0)
(-0.186924 -0.132142 0)
(-0.171391 -0.128217 0)
(-0.155492 -0.122895 0)
(-0.139458 -0.116269 0)
(-0.123532 -0.108477 0)
(-0.107966 -0.0996988 0)
(-0.0930025 -0.0901485 0)
(-0.0788642 -0.080064 0)
(-0.0657422 -0.0696952 0)
(-0.0537865 -0.0592914 0)
(-0.0431008 -0.0490893 0)
(-0.0337399 -0.0393028 0)
(-0.0257124 -0.030117 0)
(-0.0189848 -0.0216846 0)
(-0.0134889 -0.014127 0)
(-0.00912957 -0.00753809 0)
(-0.00579267 -0.00199022 0)
(-0.00335197 0.00245781 0)
(-0.00167467 0.00575273 0)
(-0.000625226 0.00783898 0)
(-6.7709e-05 0.0086521 0)
(0.00013269 0.00811434 0)
(0.000114832 0.00613308 0)
(3.4676e-05 0.00260102 0)
(-0.321125 -0.025371 0)
(-0.322038 -0.0356856 0)
(-0.322332 -0.046052 0)
(-0.321974 -0.0564054 0)
(-0.320937 -0.0666799 0)
(-0.319181 -0.0768038 0)
(-0.316661 -0.0866982 0)
(-0.313321 -0.0962765 0)
(-0.309101 -0.105442 0)
(-0.30394 -0.114089 0)
(-0.297771 -0.122101 0)
(-0.290532 -0.129352 0)
(-0.28217 -0.135709 0)
(-0.272642 -0.141032 0)
(-0.261924 -0.145184 0)
(-0.250019 -0.148029 0)
(-0.236961 -0.149446 0)
(-0.22282 -0.149336 0)