/*--------------------------------*- C++ -*----------------------------------*\
  =========                 |
  \\      /  F ield         | OpenFOAM: The Open Source CFD Toolbox
   \\    /   O peration     | Website:  https://openfoam.org
    \\  /    A nd           | Version:  9
     \\/     M anipulation  |
\*---------------------------------------------------------------------------*/
FoamFile
{
    format      ascii;
    class       volScalarField;
    location    "3.5";
    object      p;
}
// * * * * * * * * * * * * * * * * * * * * * * * * * * * * * * * * * * * * * //

dimensions      [0 2 -2 0 0 0 0];

internalField   nonuniform List<scalar> 
1260
(
-0.10853
-0.109348
-0.110068
-0.110689
-0.11121
-0.111632
-0.111953
-0.112174
-0.112295
-0.112315
-0.112236
-0.112057
-0.111779
-0.111403
-0.11093
-0.11036
-0.109694
-0.108935
-0.108082
-0.107139
-0.106106
-0.104986
-0.10378
-0.102492
-0.101123
-0.0996781
-0.108574
-0.109396
-0.110119
-0.110742
-0.111266
-0.11169
-0.112013
-0.112235
-0.112357
-0.112378
-0.112298
-0.112118
-0.111839
-0.111461
-0.110985
-0.110412
-0.109743
-0.108979
-0.108123
-0.107174
-0.106137
-0.105011
-0.103801
-0.102507
-0.101134
-0.0996839
-0.108516
-0.109341
-0.110068
-0.110695
-0.111221
-0.111647
-0.111972
-0.112196
-0.112318
-0.112339
-0.112259
-0.112078
-0.111797
-0.111416
-0.110937
-0.11036
-0.109687
-0.108919
-0.108057
-0.107103
-0.106059
-0.104927
-0.10371
-0.10241
-0.10103
-0.0995736
-0.108354
-0.109184
-0.109915
-0.110546
-0.111076
-0.111504
-0.111831
-0.112056
-0.112179
-0.1122
-0.112119
-0.111937
-0.111654
-0.11127
-0.110788
-0.110207
-0.109528
-0.108754
-0.107886
-0.106925
-0.105874
-0.104734
-0.103509
-0.1022
-0.100812
-0.099347
-0.10809
-0.108925
-0.109661
-0.110296
-0.110829
-0.111261
-0.111591
-0.111817
-0.111941
-0.111962
-0.111881
-0.111697
-0.111411
-0.111025
-0.110538
-0.109951
-0.109267
-0.108487
-0.107611
-0.106642
-0.105582
-0.104433
-0.103198
-0.101879
-0.10048
-0.0990047
-0.107723
-0.108564
-0.109306
-0.109946
-0.110484
-0.110919
-0.111251
-0.11148
-0.111605
-0.111626
-0.111544
-0.111359
-0.11107
-0.11068
-0.110188
-0.109596
-0.108905
-0.108117
-0.107233
-0.106254
-0.105184
-0.104024
-0.102777
-0.101447
-0.100035
-0.0985472
-0.107254
-0.108102
-0.10885
-0.109496
-0.110039
-0.110479
-0.110814
-0.111045
-0.111172
-0.111194
-0.111111
-0.110923
-0.110632
-0.110237
-0.10974
-0.109142
-0.108444
-0.107647
-0.106753
-0.105764
-0.104682
-0.103509
-0.102249
-0.100904
-0.0994783
-0.0979753
-0.106683
-0.10754
-0.108295
-0.108947
-0.109496
-0.109941
-0.11028
-0.110514
-0.110643
-0.110665
-0.110581
-0.110392
-0.110097
-0.109698
-0.109196
-0.10859
-0.107884
-0.107077
-0.106172
-0.105171
-0.104076
-0.102889
-0.101614
-0.100253
-0.0988103
-0.0972901
-0.10601
-0.106876
-0.10764
-0.108301
-0.108856
-0.109307
-0.109651
-0.109888
-0.110019
-0.110042
-0.109958
-0.109766
-0.109469
-0.109065
-0.108556
-0.107943
-0.107227
-0.10641
-0.105493
-0.104478
-0.103369
-0.102166
-0.100873
-0.0994946
-0.098033
-0.0964932
-0.105237
-0.106114
-0.106888
-0.107557
-0.108121
-0.108577
-0.108927
-0.109168
-0.109301
-0.109326
-0.109241
-0.109048
-0.108747
-0.108338
-0.107823
-0.107202
-0.106476
-0.105647
-0.104717
-0.103688
-0.102562
-0.101341
-0.10003
-0.098631
-0.0971482
-0.0955862
-0.104363
-0.105253
-0.106038
-0.106717
-0.10729
-0.107754
-0.10811
-0.108356
-0.108493
-0.108519
-0.108434
-0.10824
-0.107935
-0.107521
-0.106999
-0.106369
-0.105632
-0.104791
-0.103847
-0.102801
-0.101658
-0.100418
-0.0990857
-0.0976643
-0.0961581
-0.0945714
-0.103389
-0.104293
-0.105091
-0.105783
-0.106365
-0.106839
-0.107202
-0.107454
-0.107594
-0.107622
-0.107538
-0.107342
-0.107034
-0.106615
-0.106085
-0.105446
-0.104698
-0.103844
-0.102884
-0.101821
-0.100659
-0.0993979
-0.0980429
-0.0965972
-0.0950651
-0.0934514
-0.102317
-0.103237
-0.10405
-0.104754
-0.105349
-0.105832
-0.106203
-0.106462
-0.106607
-0.106638
-0.106555
-0.106358
-0.106047
-0.105622
-0.105085
-0.104436
-0.103676
-0.102808
-0.101832
-0.100751
-0.0995674
-0.0982842
-0.0969047
-0.0954326
-0.0938724
-0.0922292
-0.101146
-0.102084
-0.102914
-0.103633
-0.104241
-0.104736
-0.105117
-0.105383
-0.105534
-0.105569
-0.105487
-0.10529
-0.104975
-0.104546
-0.104001
-0.103342
-0.10257
-0.101686
-0.100693
-0.0995929
-0.0983875
-0.0970802
-0.0956743
-0.0941739
-0.0925835
-0.0909083
-0.0998778
-0.100836
-0.101685
-0.102421
-0.103044
-0.103552
-0.103945
-0.10422
-0.104377
-0.104417
-0.104338
-0.10414
-0.103823
-0.103388
-0.102836
-0.102166
-0.101382
-0.100483
-0.0994718
-0.0983508
-0.0971223
-0.0957894
-0.0943556
-0.092825
-0.0912022
-0.0894928
-0.0985134
-0.0994949
-0.100364
-0.10112
-0.10176
-0.102283
-0.102688
-0.102974
-0.103139
-0.103184
-0.103108
-0.102911
-0.102592
-0.102152
-0.101592
-0.100913
-0.100115
-0.0992006
-0.0981709
-0.0970284
-0.0957758
-0.094416
-0.0929528
-0.0913903
-0.0897333
-0.0879875
-0.0861592
-0.0842557
-0.0822852
-0.0970539
-0.0980609
-0.0989538
-0.0997306
-0.10039
-0.10093
-0.101349
-0.101647
-0.101822
-0.101874
-0.101802
-0.101606
-0.101286
-0.100842
-0.100275
-0.0995852
-0.0987743
-0.0978435
-0.0967948
-0.0956302
-0.0943525
-0.0929648
-0.0914708
-0.0898749
-0.088182
-0.0863978
-0.0845291
-0.0825832
-0.0805688
-0.0955009
-0.0965362
-0.0974551
-0.0982559
-0.0989365
-0.0994955
-0.0999313
-0.100243
-0.100429
-0.100489
-0.100422
-0.100229
-0.0999081
-0.0994606
-0.0988867
-0.0981872
-0.0973632
-0.0964162
-0.095348
-0.0941609
-0.0928574
-0.0914409
-0.0899152
-0.0882845
-0.0865542
-0.08473
-0.0828189
-0.0808285
-0.0787678
-0.0938561
-0.0949226
-0.0958705
-0.0966977
-0.0974023
-0.0979826
-0.0984369
-0.0987641
-0.0989631
-0.0990329
-0.098973
-0.0987829
-0.0984626
-0.0980123
-0.0974323
-0.0967233
-0.0958866
-0.0949235
-0.0938358
-0.0926259
-0.0912963
-0.0898504
-0.088292
-0.0866257
-0.0848567
-0.0829912
-0.0810361
-0.0789994
-0.0768903
-0.092122
-0.0932228
-0.0942026
-0.0950591
-0.0957902
-0.0963942
-0.0968693
-0.0972143
-0.0974279
-0.0975092
-0.0974575
-0.0972724
-0.0969538
-0.0965016
-0.0959164
-0.0951988
-0.0943498
-0.093371
-0.092264
-0.0910313
-0.0896755
-0.0881999
-0.0866085
-0.0849058
-0.0830974
-0.0811894
-0.0791891
-0.0771046
-0.0749455
-0.0903016
-0.0914399
-0.0924546
-0.0933433
-0.0941037
-0.094734
-0.0952323
-0.0955973
-0.0958276
-0.0959223
-0.0958807
-0.0957021
-0.0953865
-0.0949338
-0.0943444
-0.093619
-0.0927587
-0.0917648
-0.0906391
-0.0893839
-0.0880021
-0.0864969
-0.0848724
-0.0831332
-0.0812849
-0.0793339
-0.0772875
-0.0751543
-0.0729438
-0.0883986
-0.0895777
-0.0906305
-0.0915543
-0.0923469
-0.0930062
-0.0935303
-0.0939177
-0.094167
-0.0942772
-0.0942475
-0.0940773
-0.0937663
-0.0933145
-0.0927224
-0.0919905
-0.0911199
-0.0901118
-0.0889683
-0.0876915
-0.0862842
-0.0847499
-0.0830926
-0.0813171
-0.079429
-0.0774349
-0.0753423
-0.0731597
-0.0708971
-0.0864179
-0.087641
-0.088735
-0.0896971
-0.0905248
-0.0912159
-0.0917685
-0.0921808
-0.0924516
-0.0925795
-0.0925638
-0.092404
-0.0920996
-0.0916505
-0.0910572
-0.0903203
-0.0894408
-0.0884201
-0.0872599
-0.0859625
-0.0845309
-0.0829684
-0.0812792
-0.0794681
-0.0775409
-0.0755041
-0.0733654
-0.0711336
-0.0688186
-0.0843654
-0.0856358
-0.0867742
-0.0877777
-0.0886435
-0.0893693
-0.0899531
-0.0903931
-0.0906877
-0.0908359
-0.0908366
-0.0906892
-0.0903933
-0.0899491
-0.0893567
-0.0886166
-0.08773
-0.0866982
-0.085523
-0.0842067
-0.0827523
-0.0811631
-0.0794433
-0.0775979
-0.0756327
-0.0735542
-0.0713704
-0.06909
-0.0667231
-0.0822486
-0.0835694
-0.0847553
-0.0858032
-0.0867101
-0.0874736
-0.0880915
-0.0885618
-0.088883
-0.0890539
-0.0890734
-0.088941
-0.0886561
-0.0882189
-0.0876295
-0.0868885
-0.0859969
-0.0849561
-0.0837679
-0.0824348
-0.0809595
-0.0793456
-0.0775973
-0.0757194
-0.073718
-0.0715996
-0.0693721
-0.0670445
-0.0646268
-0.0800766
-0.0814507
-0.0826871
-0.0837824
-0.0847334
-0.0855374
-0.0861921
-0.0866956
-0.0870461
-0.0872424
-0.0872834
-0.0871685
-0.0868972
-0.0864695
-0.0858855
-0.085146
-0.084252
-0.0832047
-0.0820062
-0.0806587
-0.0791651
-0.077529
-0.0757546
-0.0738468
-0.0718116
-0.0696557
-0.0673868
-0.065014
-0.0625471
-0.0778603
-0.0792904
-0.0805801
-0.0817255
-0.0827233
-0.0835707
-0.0842651
-0.0848045
-0.0851871
-0.0854116
-0.0854768
-0.0853822
-0.0851271
-0.0847118
-0.084136
-0.0834009
-0.0825072
-0.0814563
-0.0802503
-0.0788914
-0.0773826
-0.0757274
-0.0739301
-0.0719956
-0.0699297
-0.0677393
-0.065432
-0.0630166
-0.060503
-0.0756124
-0.077101
-0.0784465
-0.0796446
-0.0806919
-0.0815853
-0.0823221
-0.0829001
-0.0833175
-0.0835729
-0.0836652
-0.0835937
-0.0833578
-0.0829575
-0.0823933
-0.0816655
-0.0807754
-0.0797242
-0.0785141
-0.0771473
-0.0756268
-0.0739561
-0.0721396
-0.070182
-0.0680893
-0.0658681
-0.0635258
-0.0610713
-0.058514
-0.0733479
-0.0748971
-0.0763004
-0.0775536
-0.0786527
-0.0795945
-0.0803762
-0.0809955
-0.0814504
-0.0817396
-0.0818617
-0.0818162
-0.0816025
-0.0812206
-0.0806709
-0.0799539
-0.0790707
-0.0780229
-0.0768124
-0.0754415
-0.0739134
-0.0722314
-0.0703998
-0.0684236
-0.0663083
-0.0640605
-0.0616875
-0.0591977
-0.0566003
-0.0710839
-0.0726951
-0.0741581
-0.0754682
-0.0766212
-0.0776136
-0.0784425
-0.0791054
-0.0796004
-0.0799259
-0.0800807
-0.0800641
-0.0798757
-0.0795154
-0.0789835
-0.0782808
-0.0774084
-0.0763677
-0.0751609
-0.0737903
-0.0722588
-0.0705701
-0.0687282
-0.0667379
-0.0646048
-0.0623351
-0.059936
-0.0574153
-0.0547817
-0.0688392
-0.0705136
-0.0720376
-0.073406
-0.0746145
-0.0756593
-0.0765374
-0.0772461
-0.0777835
-0.0781478
-0.078338
-0.0783532
-0.078193
-0.0778574
-0.0773469
-0.0766622
-0.0758043
-0.0747749
-0.073576
-0.07221
-0.0706799
-0.0689892
-0.0671419
-0.0651426
-0.0629967
-0.0607102
-0.0582896
-0.0557425
-0.053077
-0.0666347
-0.0683728
-0.0699584
-0.0713861
-0.0726513
-0.0737499
-0.0746787
-0.0754351
-0.0760168
-0.0764223
-0.0766502
-0.0766999
-0.0765709
-0.0762633
-0.0757774
-0.0751143
-0.0742748
-0.0732607
-0.072074
-0.0707172
-0.0691931
-0.0675052
-0.0656574
-0.0636542
-0.0615006
-0.0592021
-0.056765
-0.054196
-0.0515025
-0.0644926
-0.0662943
-0.0679417
-0.069429
-0.0707515
-0.0719048
-0.0728855
-0.0736909
-0.0743186
-0.074767
-0.0750349
-0.0751214
-0.0750262
-0.0747494
-0.0742915
-0.0736531
-0.0728358
-0.0718409
-0.0706705
-0.0693271
-0.0678136
-0.0661332
-0.0642897
-0.0622873
-0.0601307
-0.0578249
-0.0553757
-0.052789
-0.0500712
-0.0624362
-0.0643007
-0.0660094
-0.0675561
-0.0689358
-0.070144
-0.0711772
-0.0720324
-0.0727072
-0.0732
-0.0735094
-0.0736347
-0.0735756
-0.0733321
-0.0729047
-0.0722942
-0.0715021
-0.0705298
-0.0693794
-0.0680533
-0.0665543
-0.0648855
-0.0630504
-0.061053
-0.0588974
-0.0565885
-0.0541309
-0.05153
-0.048791
-0.0604893
-0.062415
-0.0641837
-0.0657888
-0.067225
-0.0684877
-0.0695731
-0.0704782
-0.0712006
-0.0717384
-0.0720903
-0.0722557
-0.072234
-0.0720256
-0.0716307
-0.0710505
-0.070286
-0.069339
-0.0682114
-0.0669056
-0.0654241
-0.0637701
-0.0619466
-0.0599574
-0.0578062
-0.0554971
-0.0530341
-0.0504215
-0.0476636
-0.0586749
-0.0606595
-0.0624859
-0.0641475
-0.0656385
-0.0669543
-0.0680909
-0.0690452
-0.0698145
-0.0703971
-0.0707916
-0.0709973
-0.0710137
-0.070841
-0.0704798
-0.0699308
-0.0691955
-0.0682753
-0.0671722
-0.0658885
-0.0644266
-0.0627893
-0.0609796
-0.0590006
-0.0568557
-0.0545483
-0.0520817
-0.0494591
-0.0466834
-0.0570138
-0.0590538
-0.0609347
-0.0626498
-0.064193
-0.0655594
-0.066745
-0.0677463
-0.068561
-0.0691869
-0.0696228
-0.0698678
-0.0699216
-0.0697843
-0.0694563
-0.0689386
-0.0682325
-0.0673394
-0.0662612
-0.065
-0.0635582
-0.0619384
-0.0601432
-0.0581753
-0.0560375
-0.0537326
-0.051263
-0.0486309
-0.045838
-0.0555217
-0.0576125
-0.0595436
-0.0613078
-0.0628991
-0.0643124
-0.0655433
-0.0665886
-0.0674454
-0.0681119
-0.0685866
-0.0688687
-0.0689577
-0.0688539
-0.0685576
-0.0680697
-0.0673914
-0.0665243
-0.0654701
-0.0642308
-0.0628084
-0.0612054
-0.0594242
-0.057467
-0.0553361
-0.0530335
-0.0505609
-0.0479193
-0.045109
-0.0542061
-0.0563416
-0.058317
-0.0601249
-0.0617589
-0.0632138
-0.0644853
-0.0655698
-0.0664645
-0.0671675
-0.0676772
-0.0679927
-0.0681137
-0.0680402
-0.0677727
-0.067312
-0.0666593
-0.065816
-0.0647837
-0.0635644
-0.06216
-0.0605725
-0.0588039
-0.0568564
-0.0547315
-0.0524305
-0.0499543
-0.0473029
-0.0444752
-0.053062
-0.0552354
-0.0572482
-0.059093
-0.0607633
-0.0622538
-0.0635599
-0.0646781
-0.0656055
-0.0663399
-0.0668799
-0.0672246
-0.0673735
-0.0673266
-0.0670844
-0.0666477
-0.0660176
-0.0651954
-0.0641827
-0.0629813
-0.0615928
-0.0600192
-0.0582619
-0.0563228
-0.054203
-0.0519032
-0.0494232
-0.0467619
-0.043917
-0.0520713
-0.0542749
-0.056318
-0.0581929
-0.0598929
-0.0614127
-0.0627475
-0.0638937
-0.0648484
-0.0656095
-0.0661752
-0.0665448
-0.0667176
-0.0666937
-0.0664735
-0.0660578
-0.0654476
-0.0646442
-0.0636491
-0.0624637
-0.0610898
-0.0595287
-0.057782
-0.0558506
-0.0537357
-0.051437
-0.0489537
-0.0462835
-0.0434229
-0.0512091
-0.0534364
-0.0555034
-0.0574023
-0.0591263
-0.0606699
-0.0620284
-0.0631981
-0.0641758
-0.0649594
-0.0655473
-0.0659384
-0.0661322
-0.0661287
-0.0659281
-0.0655312
-0.064939
-0.0641529
-0.0631743
-0.0620045
-0.0606444
-0.0590956
-0.0573591
-0.0554361
-0.0533268
-0.0510304
-0.0485452
-0.0458684
-0.0429951
-0.0504604
-0.0527068
-0.0547935
-0.0567124
-0.0584568
-0.0600209
-0.0613999
-0.06259
-0.0635881
-0.0643919
-0.0649997
-0.0654104
-0.0656235
-0.0656389
-0.0654568
-0.0650778
-0.0645025
-0.0637322
-0.0627694
-0.0616151
-0.0602694
-0.0587322
-0.0570072
-0.0550945
-0.0529925
-0.0507005
-0.0482164
-0.0455365
-0.0426552
-0.049791
-0.0520586
-0.0541669
-0.0561077
-0.0578741
-0.0594604
-0.0608615
-0.0620737
-0.0630937
-0.0639191
-0.0645482
-0.0649799
-0.0652136
-0.0652492
-0.065087
-0.0647275
-0.0641711
-0.0634174
-0.0624701
-0.0613306
-0.0599997
-0.0584798
-0.0567692
-0.054868
-0.052776
-0.0504921
-0.0480138
-0.0453368
-0.0424548
-0.0490961
-0.0513985
-0.0535413
-0.0555162
-0.0573163
-0.0589357
-0.0603693
-0.0616132
-0.0626641
-0.0635197
-0.0641781
-0.0646381
-0.0648992
-0.064961
-0.064824
-0.064489
-0.0639577
-0.0632325
-0.0623088
-0.0611889
-0.0598773
-0.0583755
-0.0566824
-0.0547978
-0.0527216
-0.0504523
-0.0479873
-0.0453221
-0.0424503
)
;

boundaryField
{
    movingWall
    {
        type            zeroGradient;
    }
    fixedWalls
    {
        type            zeroGradient;
    }
    frontAndBack
    {
        type            empty;
    }
    procBoundary5to2
    {
        type            processor;
        value           nonuniform List<scalar> 
29
(
-0.0959348
-0.0943514
-0.0926733
-0.0909026
-0.0890423
-0.0870961
-0.0850688
-0.0829666
-0.0807969
-0.078569
-0.0762941
-0.0739854
-0.0716582
-0.06933
-0.0670203
-0.0647504
-0.0625434
-0.0604231
-0.058414
-0.05654
-0.0548229
-0.0532797
-0.0519189
-0.050737
-0.0497161
-0.0488306
-0.0480633
-0.0473732
-0.0466436
)
;
    }
    procBoundary5to3
    {
        type            processor;
        value           nonuniform List<scalar> 
21
(
-0.108382
-0.109197
-0.109914
-0.110533
-0.111052
-0.107614
-0.107655
-0.107592
-0.107426
-0.107156
-0.106782
-0.106305
-0.105725
-0.105042
-0.104257
-0.10337
-0.102381
-0.101291
-0.100101
-0.0988106
-0.0974216
)
;
    }
    procBoundary5to4
    {
        type            processor;
        value           nonuniform List<scalar> 
48
(
-0.0981596
-0.0981611
-0.0980444
-0.0978096
-0.0974569
-0.0969867
-0.0963997
-0.0956969
-0.0948798
-0.0939501
-0.0929098
-0.0917616
-0.0905085
-0.0891542
-0.0877028
-0.0877028
-0.0858392
-0.0839101
-0.080257
-0.0784955
-0.0766467
-0.0747191
-0.0727222
-0.0706669
-0.0685655
-0.0664318
-0.0642812
-0.0621304
-0.0599976
-0.0579024
-0.0558648
-0.0539057
-0.052045
-0.0503017
-0.0486922
-0.047229
-0.0459193
-0.0447641
-0.0437571
-0.0428851
-0.0421294
-0.0414687
-0.0408844
-0.0403663
-0.0399182
-0.0395641
-0.0393588
-0.0393626
)
;
    }
    procBoundary5to6
    {
        type            processor;
        value           nonuniform List<scalar> 
21
(
-0.111472
-0.111792
-0.112012
-0.112132
-0.112152
-0.112073
-0.111895
-0.111618
-0.111243
-0.110772
-0.110204
-0.109541
-0.108785
-0.107936
-0.106996
-0.105966
-0.10485
-0.103648
-0.102363
-0.100998
-0.0995562
)
;
    }
}


// ************************************************************************* //
