/*--------------------------------*- C++ -*----------------------------------*\
  =========                 |
  \\      /  F ield         | OpenFOAM: The Open Source CFD Toolbox
   \\    /   O peration     | Website:  https://openfoam.org
    \\  /    A nd           | Version:  9
     \\/     M anipulation  |
\*---------------------------------------------------------------------------*/
FoamFile
{
    format      ascii;
    class       surfaceScalarField;
    location    "3.5";
    object      phi;
}
// * * * * * * * * * * * * * * * * * * * * * * * * * * * * * * * * * * * * * //

dimensions      [0 3 -1 0 0 0 0];

internalField   nonuniform List<scalar> 
2446
(
-3.17993e-08
8.88435e-07
-3.97877e-08
7.85384e-07
-4.81685e-08
6.82438e-07
-5.69715e-08
5.79556e-07
-6.62238e-08
4.76705e-07
-7.59499e-08
3.73855e-07
-8.61715e-08
2.70975e-07
-9.6908e-08
1.68033e-07
-1.08176e-07
6.4998e-08
-1.1999e-07
-3.81672e-08
-1.32361e-07
-1.41502e-07
-1.45298e-07
-2.45048e-07
-1.58807e-07
-3.48852e-07
-1.72891e-07
-4.52964e-07
-1.87549e-07
-5.57437e-07
-2.02778e-07
-6.62323e-07
-2.18569e-07
-7.67679e-07
-2.34908e-07
-8.73559e-07
-2.51778e-07
-9.80013e-07
-2.69154e-07
-1.08709e-06
-2.87007e-07
-1.19482e-06
-3.05298e-07
-1.30322e-06
-3.23982e-07
-1.41231e-06
-3.43008e-07
-1.52207e-06
-3.62313e-07
-1.63246e-06
-1.74341e-06
6.62706e-08
8.95759e-07
5.85458e-08
7.93109e-07
5.03848e-08
6.90598e-07
4.17557e-08
5.88185e-07
3.26293e-08
4.85831e-07
2.29795e-08
3.83504e-07
1.27832e-08
2.81171e-07
2.01998e-09
1.78797e-07
-9.32801e-09
7.6346e-08
-2.12758e-08
-2.62194e-08
-3.38358e-08
-1.28942e-07
-4.70177e-08
-2.31866e-07
-6.08285e-08
-3.35041e-07
-7.52718e-08
-4.38521e-07
-9.03484e-08
-5.4236e-07
-1.06055e-07
-6.46616e-07
-1.22386e-07
-7.51349e-07
-1.39329e-07
-8.56616e-07
-1.56869e-07
-9.62473e-07
-1.74984e-07
-1.06897e-06
-1.93646e-07
-1.17615e-06
-2.12822e-07
-1.28405e-06
-2.32471e-07
-1.39266e-06
-2.52544e-07
-1.502e-06
-2.72984e-07
-1.61202e-06
-1.72267e-06
1.64746e-07
9.02755e-07
1.57308e-07
8.00547e-07
1.49389e-07
6.98517e-07
1.40956e-07
5.96618e-07
1.31976e-07
4.94811e-07
1.22423e-07
3.93058e-07
1.1227e-07
2.91323e-07
1.01498e-07
1.89569e-07
9.00853e-08
8.77583e-08
7.80174e-08
-1.41515e-08
6.52804e-08
-1.16205e-07
5.18639e-08
-2.18449e-07
3.77598e-08
-3.20937e-07
2.29634e-08
-4.23725e-07
7.47286e-09
-5.26869e-07
-8.71028e-09
-6.30433e-07
-2.55808e-08
-7.34478e-07
-4.31294e-08
-8.39067e-07
-6.13424e-08
-9.4426e-07
-8.0201e-08
-1.05011e-06
-9.9681e-08
-1.15667e-06
-1.19752e-07
-1.26397e-06
-1.40377e-07
-1.37204e-06
-1.61511e-07
-1.48087e-06
-1.83103e-07
-1.59043e-06
-1.70068e-06
2.63661e-07
9.09398e-07
2.56533e-07
8.07675e-07
2.48881e-07
7.06169e-07
2.40666e-07
6.04833e-07
2.31856e-07
5.03621e-07
2.2242e-07
4.02494e-07
2.12331e-07
3.01411e-07
2.01568e-07
2.00333e-07
1.90108e-07
9.92178e-08
1.77936e-07
-1.97889e-09
1.65035e-07
-1.03305e-07
1.51396e-07
-2.0481e-07
1.37008e-07
-3.0655e-07
1.21867e-07
-4.08583e-07
1.05968e-07
-5.1097e-07
8.93117e-08
-6.13777e-07
7.19026e-08
-7.17069e-07
5.37475e-08
-8.20912e-07
3.4858e-08
-9.25371e-07
1.52501e-08
-1.03051e-06
-5.05508e-09
-1.13637e-06
-2.60309e-08
-1.243e-06
-4.76442e-08
-1.35043e-06
-6.98554e-08
-1.45866e-06
-9.26179e-08
-1.56767e-06
-1.67742e-06
3.63058e-07
9.15665e-07
3.56265e-07
8.14467e-07
3.48903e-07
7.13532e-07
3.4093e-07
6.12805e-07
3.32312e-07
5.1224e-07
3.23016e-07
4.11791e-07
3.13013e-07
3.11414e-07
3.02278e-07
2.11068e-07
2.9079e-07
1.10706e-07
2.7853e-07
1.02813e-08
2.65481e-07
-9.02564e-08
2.51633e-07
-1.90961e-07
2.36973e-07
-2.9189e-07
2.21495e-07
-3.93105e-07
2.05195e-07
-4.9467e-07
1.88071e-07
-5.96653e-07
1.70126e-07
-6.99124e-07
1.51364e-07
-8.02151e-07
1.31795e-07
-9.05802e-07
1.11433e-07
-1.01014e-06
9.02952e-08
-1.11523e-06
6.84046e-08
-1.22111e-06
4.57899e-08
-1.32781e-06
2.24862e-08
-1.43535e-06
-1.4645e-09
-1.54372e-06
-1.65287e-06
4.62984e-07
9.21531e-07
4.56551e-07
8.209e-07
4.49503e-07
7.2058e-07
4.41797e-07
6.20511e-07
4.33395e-07
5.20642e-07
4.24261e-07
4.20924e-07
4.14366e-07
3.2131e-07
4.03682e-07
2.21752e-07
3.92185e-07
1.22202e-07
3.79856e-07
2.26106e-08
3.66677e-07
-7.70772e-08
3.52633e-07
-1.76918e-07
3.37715e-07
-2.76971e-07
3.21912e-07
-3.77302e-07
3.05219e-07
-4.77977e-07
2.87634e-07
-5.79068e-07
2.69156e-07
-6.80646e-07
2.49789e-07
-7.82784e-07
2.2954e-07
-8.85553e-07
2.08419e-07
-9.89022e-07
1.86441e-07
-1.09325e-06
1.63625e-07
-1.19829e-06
1.39996e-07
-1.30418e-06
1.15583e-07
-1.41094e-06
9.04215e-08
-1.51856e-06
-1.627e-06
5.63493e-07
9.26971e-07
5.57444e-07
8.26949e-07
5.50736e-07
7.27288e-07
5.43322e-07
6.27925e-07
5.35161e-07
5.28804e-07
5.26215e-07
4.2987e-07
5.1645e-07
3.31074e-07
5.05839e-07
2.32363e-07
4.94355e-07
1.33686e-07
4.81977e-07
3.49889e-08
4.68685e-07
-6.37855e-08
4.54464e-07
-1.62697e-07
4.39301e-07
-2.61808e-07
4.23186e-07
-3.61187e-07
4.06111e-07
-4.60903e-07
3.88072e-07
-5.61029e-07
3.69067e-07
-6.61641e-07
3.49098e-07
-7.62814e-07
3.28168e-07
-8.64623e-07
3.06285e-07
-9.67139e-07
2.8346e-07
-1.07043e-06
2.59709e-07
-1.17454e-06
2.35051e-07
-1.27952e-06
2.09512e-07
-1.3854e-06
1.8312e-07
-1.49217e-06
-1.5998e-06
6.64647e-07
9.31959e-07
6.59009e-07
8.32587e-07
6.52666e-07
7.3363e-07
6.4557e-07
6.35022e-07
6.37674e-07
5.36699e-07
6.2894e-07
4.38605e-07
6.19331e-07
3.40683e-07
6.08816e-07
2.42878e-07
5.97368e-07
1.45135e-07
5.84962e-07
4.73948e-08
5.71578e-07
-5.04011e-08
5.57197e-07
-1.48316e-07
5.41806e-07
-2.46417e-07
5.25393e-07
-3.44773e-07
5.07948e-07
-4.43458e-07
4.89465e-07
-5.42546e-07
4.6994e-07
-6.42116e-07
4.49371e-07
-7.42246e-07
4.27761e-07
-8.43013e-07
4.05114e-07
-9.44492e-07
3.81437e-07
-1.04675e-06
3.56741e-07
-1.14985e-06
3.31041e-07
-1.25382e-06
3.04356e-07
-1.35871e-06
2.76712e-07
-1.46452e-06
-1.57122e-06
7.66518e-07
9.3647e-07
7.61315e-07
8.37789e-07
7.55364e-07
7.39582e-07
7.4861e-07
6.41775e-07
7.41007e-07
5.44303e-07
7.3251e-07
4.47101e-07
7.23082e-07
3.50111e-07
7.12688e-07
2.53272e-07
7.01299e-07
1.56524e-07
6.88888e-07
5.9806e-08
6.75432e-07
-3.69453e-08
6.60912e-07
-1.33796e-07
6.45311e-07
-2.30816e-07
6.28615e-07
-3.28077e-07
6.10813e-07
-4.25656e-07
5.91897e-07
-5.2363e-07
5.7186e-07
-6.22079e-07
5.50698e-07
-7.21084e-07
5.28409e-07
-8.20725e-07
5.04995e-07
-9.21078e-07
4.8046e-07
-1.02221e-06
4.54809e-07
-1.12419e-06
4.28053e-07
-1.22707e-06
4.00205e-07
-1.33087e-06
3.71285e-07
-1.4356e-06
-1.54125e-06
8.69182e-07
9.40477e-07
8.64443e-07
8.42529e-07
8.58909e-07
7.45116e-07
8.52525e-07
6.48159e-07
8.45239e-07
5.51588e-07
8.37006e-07
4.55334e-07
8.27784e-07
3.59333e-07
8.17537e-07
2.63519e-07
8.06231e-07
1.6783e-07
7.93838e-07
7.21989e-08
7.80333e-07
-2.34402e-08
7.65694e-07
-1.19157e-07
7.49902e-07
-2.15024e-07
7.32941e-07
-3.11116e-07
7.14797e-07
-4.07512e-07
6.9546e-07
-5.04292e-07
6.7492e-07
-6.01539e-07
6.5317e-07
-6.99334e-07
6.30206e-07
-7.97761e-07
6.06025e-07
-8.96897e-07
5.80626e-07
-9.96815e-07
5.5401e-07
-1.09758e-06
5.26184e-07
-1.19924e-06
4.97154e-07
-1.30184e-06
4.66932e-07
-1.40538e-06
-1.50985e-06
9.72727e-07
9.4395e-07
9.68478e-07
8.46778e-07
9.63389e-07
7.50204e-07
9.57402e-07
6.54147e-07
9.50461e-07
5.58529e-07
9.42518e-07
4.63277e-07
9.33529e-07
3.68322e-07
9.23453e-07
2.73595e-07
9.12256e-07
1.79027e-07
8.99905e-07
8.45493e-08
8.86374e-07
-9.90886e-09
8.71638e-07
-1.04421e-07
8.55675e-07
-1.99061e-07
8.38466e-07
-2.93908e-07
8.19997e-07
-3.89043e-07
8.00251e-07
-4.84547e-07
7.79219e-07
-5.80506e-07
7.56888e-07
-6.77004e-07
7.33252e-07
-7.74124e-07
7.08302e-07
-8.71947e-07
6.82034e-07
-9.70547e-07
6.54444e-07
-1.06999e-06
6.25532e-07
-1.17033e-06
5.95299e-07
-1.2716e-06
5.63751e-07
-1.37383e-06
-1.477e-06
1.07724e-06
9.46859e-07
1.07352e-06
8.50506e-07
1.0689e-06
7.54819e-07
1.06334e-06
6.5971e-07
1.05677e-06
5.65097e-07
1.04915e-06
4.70903e-07
1.04041e-06
3.77052e-07
1.03054e-06
2.83473e-07
1.01947e-06
1.90091e-07
1.00719e-06
9.68328e-08
9.93656e-07
3.62521e-09
9.78845e-07
-8.96089e-08
9.62731e-07
-1.82947e-07
9.45294e-07
-2.76471e-07
9.26514e-07
-3.70263e-07
9.06375e-07
-4.64408e-07
8.8486e-07
-5.58991e-07
8.61956e-07
-6.541e-07
8.3765e-07
-7.49818e-07
8.1193e-07
-8.46227e-07
7.84787e-07
-9.43404e-07
7.56213e-07
-1.04142e-06
7.26199e-07
-1.14032e-06
6.94742e-07
-1.24015e-06
6.61839e-07
-1.34093e-06
-1.44265e-06
1.18283e-06
9.49169e-07
1.17966e-06
8.53682e-07
1.17555e-06
7.58929e-07
1.17044e-06
6.64818e-07
1.16427e-06
5.71264e-07
1.15699e-06
4.78183e-07
1.14855e-06
3.85496e-07
1.1389e-06
2.93126e-07
1.12799e-06
2.00994e-07
1.1158e-06
1.09024e-07
1.10229e-06
1.71382e-08
1.08742e-06
-7.47442e-08
1.07118e-06
-1.66704e-07
1.05353e-06
-2.58824e-07
1.03446e-06
-3.51189e-07
1.01394e-06
-4.43887e-07
9.9195e-07
-5.37004e-07
9.68479e-07
-6.30629e-07
9.43507e-07
-7.24845e-07
9.17016e-07
-8.19737e-07
8.88992e-07
-9.1538e-07
8.59421e-07
-1.01184e-06
8.28289e-07
-1.10918e-06
7.95584e-07
-1.20744e-06
7.61297e-07
-1.30664e-06
-1.40678e-06
1.28959e-06
9.50841e-07
1.28701e-06
8.56269e-07
1.28343e-06
7.625e-07
1.27881e-06
6.6944e-07
1.27308e-06
5.76999e-07
1.26617e-06
4.85089e-07
1.25804e-06
3.93626e-07
1.24864e-06
3.02528e-07
1.23792e-06
2.11713e-07
1.22585e-06
1.211e-07
1.21238e-06
3.06068e-08
1.19748e-06
-5.98486e-08
1.18113e-06
-1.50351e-07
1.16329e-06
-2.40985e-07
1.14394e-06
-3.31838e-07
1.12305e-06
-4.22999e-07
1.1006e-06
-5.14555e-07
1.07657e-06
-6.06596e-07
1.05093e-06
-6.99208e-07
1.02367e-06
-7.92473e-07
9.94753e-07
-8.86468e-07
9.64172e-07
-9.81262e-07
9.31902e-07
-1.07691e-06
8.97924e-07
-1.17346e-06
8.62221e-07
-1.27094e-06
-1.36934e-06
1.39762e-06
9.51828e-07
1.39566e-06
8.58224e-07
1.39267e-06
7.65495e-07
1.38856e-06
6.73541e-07
1.38329e-06
5.8227e-07
1.37679e-06
4.9159e-07
1.36901e-06
4.01412e-07
1.35988e-06
3.11651e-07
1.34938e-06
2.22219e-07
1.33744e-06
1.33033e-07
1.32404e-06
4.40078e-08
1.30914e-06
-4.49434e-08
1.29269e-06
-1.33907e-07
1.27468e-06
-2.22971e-07
1.25506e-06
-3.12223e-07
1.23382e-06
-4.01754e-07
1.21092e-06
-4.91652e-07
1.18633e-06
-5.82007e-07
1.16002e-06
-6.72906e-07
1.13198e-06
-7.6443e-07
1.10217e-06
-8.56657e-07
1.07056e-06
-9.49656e-07
1.03714e-06
-1.04348e-06
1.00186e-06
-1.13819e-06
9.64704e-07
-1.23379e-06
-1.33029e-06
1.50699e-06
9.52076e-07
1.50571e-06
8.595e-07
1.50334e-06
7.67869e-07
1.4998e-06
6.77081e-07
1.49503e-06
5.87041e-07
1.48897e-06
4.97653e-07
1.48155e-06
4.08824e-07
1.47274e-06
3.20466e-07
1.46247e-06
2.32488e-07
1.4507e-06
1.44801e-07
1.43739e-06
5.73185e-08
1.4225e-06
-3.00493e-08
1.40598e-06
-1.17392e-07
1.38781e-06
-2.04798e-07
1.36794e-06
-2.92358e-07
1.34635e-06
-3.80162e-07
1.323e-06
-4.68301e-07
1.29786e-06
-5.56864e-07
1.27089e-06
-6.45937e-07
1.24206e-06
-7.35601e-07
1.21134e-06
-8.25935e-07
1.17869e-06
-9.17006e-07
1.14408e-06
-1.00887e-06
1.10747e-06
-1.10158e-06
1.06883e-06
-1.19515e-06
1.02813e-06
-1.28959e-06
9.85341e-07
-1.38489e-06
9.40445e-07
-1.481e-06
-1.57786e-06
1.61779e-06
9.51518e-07
1.61725e-06
8.60039e-07
1.61554e-06
7.69572e-07
1.61261e-06
6.80015e-07
1.60838e-06
5.9127e-07
1.60279e-06
5.0324e-07
1.59579e-06
4.15829e-07
1.58731e-06
3.28943e-07
1.57731e-06
2.4249e-07
1.56573e-06
1.56378e-07
1.55253e-06
7.05165e-08
1.53767e-06
-1.51853e-08
1.5211e-06
-1.00821e-07
1.50278e-06
-1.8648e-07
1.48268e-06
-2.72253e-07
1.46075e-06
-3.58231e-07
1.43695e-06
-4.44506e-07
1.41125e-06
-5.31166e-07
1.38361e-06
-6.18296e-07
1.35399e-06
-7.05978e-07
1.32234e-06
-7.94288e-07
1.28863e-06
-8.83293e-07
1.2528e-06
-9.7305e-07
1.21483e-06
-1.0636e-06
1.17467e-06
-1.15498e-06
1.13227e-06
-1.24719e-06
1.08761e-06
-1.34022e-06
1.04064e-06
-1.43404e-06
-1.52858e-06
1.73004e-06
9.50077e-07
1.73031e-06
8.59771e-07
1.72934e-06
7.70543e-07
1.72706e-06
6.82289e-07
1.72342e-06
5.94912e-07
1.71835e-06
5.08311e-07
1.71179e-06
4.2239e-07
1.70368e-06
3.3705e-07
1.69397e-06
2.52198e-07
1.68261e-06
1.67739e-07
1.66955e-06
8.35792e-08
1.65474e-06
-3.69246e-10
1.63813e-06
-8.42121e-08
1.61968e-06
-1.68029e-07
1.59934e-06
-2.51916e-07
1.57707e-06
-3.35966e-07
1.55284e-06
-4.20268e-07
1.52658e-06
-5.04909e-07
1.49826e-06
-5.89975e-07
1.46783e-06
-6.75546e-07
1.43523e-06
-7.61696e-07
1.40043e-06
-8.48492e-07
1.36337e-06
-9.3599e-07
1.324e-06
-1.02423e-06
1.28227e-06
-1.11325e-06
1.23813e-06
-1.20305e-06
1.19153e-06
-1.29363e-06
1.14244e-06
-1.38495e-06
-1.47697e-06
1.84376e-06
9.47658e-07
1.84491e-06
8.58616e-07
1.84475e-06
7.7071e-07
1.84319e-06
6.83842e-07
1.8402e-06
5.97911e-07
1.83569e-06
5.12818e-07
1.82961e-06
4.28464e-07
1.82191e-06
3.44751e-07
1.81253e-06
2.61581e-07
1.80141e-06
1.78858e-07
1.7885e-06
9.6487e-08
1.77376e-06
1.43747e-08
1.75712e-06
-6.75759e-08
1.73855e-06
-1.49455e-07
1.71799e-06
-2.31355e-07
1.69539e-06
-3.13369e-07
1.67071e-06
-3.95584e-07
1.64388e-06
-4.78087e-07
1.61487e-06
-5.60963e-07
1.58362e-06
-6.4429e-07
1.55006e-06
-7.2814e-07
1.51415e-06
-8.12578e-07
1.47581e-06
-8.97658e-07
1.43501e-06
-9.83425e-07
1.39166e-06
-1.06991e-06
1.34573e-06
-1.15711e-06
1.29715e-06
-1.24505e-06
1.24588e-06
-1.33368e-06
-1.42297e-06
1.95888e-06
9.44151e-07
1.96103e-06
8.56474e-07
1.96175e-06
7.69988e-07
1.96099e-06
6.84598e-07
1.9587e-06
6.00203e-07
1.95481e-06
5.16706e-07
1.94927e-06
4.34006e-07
1.94202e-06
3.52005e-07
1.93299e-06
2.70603e-07
1.92215e-06
1.89705e-07
1.90942e-06
1.09214e-07
1.89476e-06
2.90345e-08
1.87811e-06
-5.09283e-08
1.85942e-06
-1.30767e-07
1.83864e-06
-2.10574e-07
1.81571e-06
-2.90438e-07
1.79058e-06
-3.70449e-07
1.76318e-06
-4.50691e-07
1.73346e-06
-5.31246e-07
1.70136e-06
-6.1219e-07
1.66682e-06
-6.93594e-07
1.62976e-06
-7.7552e-07
1.59012e-06
-8.58022e-07
1.54784e-06
-9.41142e-07
1.50284e-06
-1.02491e-06
1.45507e-06
-1.10934e-06
1.40445e-06
-1.19443e-06
1.35094e-06
-1.28016e-06
-1.36652e-06
2.0753e-06
9.39426e-07
2.07854e-06
8.53232e-07
2.08025e-06
7.68278e-07
2.08038e-06
6.8447e-07
2.07887e-06
6.01713e-07
2.07567e-06
5.19909e-07
2.07072e-06
4.38959e-07
2.06396e-06
3.58765e-07
2.05533e-06
2.79228e-07
2.04479e-06
2.0025e-07
2.03226e-06
1.21736e-07
2.01771e-06
4.35899e-08
2.00106e-06
-3.42821e-08
1.98227e-06
-1.11974e-07
1.96127e-06
-1.89574e-07
1.938e-06
-2.67173e-07
1.91241e-06
-3.44857e-07
1.88443e-06
-4.22708e-07
1.85399e-06
-5.00806e-07
1.82103e-06
-5.79225e-07
1.78546e-06
-6.58033e-07
1.74723e-06
-7.37289e-07
1.70626e-06
-8.17046e-07
1.66246e-06
-8.97345e-07
1.61577e-06
-9.78215e-07
1.5661e-06
-1.05967e-06
1.5134e-06
-1.14172e-06
1.4576e-06
-1.22436e-06
-1.30756e-06
2.19281e-06
9.33332e-07
2.19728e-06
8.48758e-07
2.2001e-06
7.65462e-07
2.20121e-06
6.83357e-07
2.20057e-06
6.02352e-07
2.19813e-06
5.22352e-07
2.19383e-06
4.43259e-07
2.18762e-06
3.64977e-07
2.17944e-06
2.87408e-07
2.16923e-06
2.10456e-07
2.15694e-06
1.34024e-07
2.14251e-06
5.80191e-08
2.12588e-06
-1.76512e-08
2.10699e-06
-9.30826e-08
2.08578e-06
-1.6836e-07
2.06217e-06
-2.4357e-07
2.03612e-06
-3.18799e-07
2.00753e-06
-3.94126e-07
1.97636e-06
-4.69627e-07
1.9425e-06
-5.45374e-07
1.9059e-06
-6.21431e-07
1.86647e-06
-6.97856e-07
1.82412e-06
-7.74699e-07
1.77877e-06
-8.51999e-07
1.73035e-06
-9.29787e-07
1.67875e-06
-1.00808e-06
1.62392e-06
-1.08689e-06
1.56579e-06
-1.16622e-06
-1.24606e-06
2.3111e-06
9.25701e-07
2.31696e-06
8.42899e-07
2.32102e-06
7.61406e-07
2.32323e-06
6.81141e-07
2.32357e-06
6.02018e-07
2.32197e-06
5.23945e-07
2.3184e-06
4.4683e-07
2.3128e-06
3.70577e-07
2.30512e-06
2.95092e-07
2.29529e-06
2.20279e-07
2.28327e-06
1.46045e-07
2.269e-06
7.22959e-08
2.2524e-06
-1.0514e-09
2.23342e-06
-7.41053e-08
2.21199e-06
-1.46933e-07
2.18805e-06
-2.19628e-07
2.16152e-06
-2.92268e-07
2.13233e-06
-3.64932e-07
2.10039e-06
-4.37692e-07
2.06563e-06
-5.10615e-07
2.02797e-06
-5.83764e-07
1.9873e-06
-6.57193e-07
1.94355e-06
-7.3095e-07
1.89663e-06
-8.05073e-07
1.84643e-06
-8.79593e-07
1.79288e-06
-9.54533e-07
1.7359e-06
-1.02991e-06
1.6754e-06
-1.10573e-06
-1.182e-06
2.42978e-06
9.16341e-07
2.43719e-06
8.35486e-07
2.44264e-06
7.55959e-07
2.44609e-06
6.77688e-07
2.44752e-06
6.00593e-07
2.44687e-06
5.24589e-07
2.44412e-06
4.49585e-07
2.4392e-06
3.75493e-07
2.43208e-06
3.02218e-07
2.42268e-06
2.29671e-07
2.41097e-06
1.57759e-07
2.39687e-06
8.63932e-08
2.38034e-06
1.54864e-08
2.36128e-06
-5.50528e-08
2.33965e-06
-1.25303e-07
2.31537e-06
-1.95346e-07
2.28836e-06
-2.6526e-07
2.25855e-06
-3.35117e-07
2.22584e-06
-4.04987e-07
2.19016e-06
-4.74933e-07
2.15141e-06
-5.45014e-07
2.1095e-06
-6.15281e-07
2.06433e-06
-6.85779e-07
2.0158e-06
-7.56547e-07
1.96382e-06
-8.27615e-07
1.9083e-06
-8.99011e-07
1.84915e-06
-9.70754e-07
1.78629e-06
-1.04287e-06
-1.11537e-06
2.5483e-06
9.05047e-07
2.55746e-06
8.26332e-07
2.56446e-06
7.48953e-07
2.5693e-06
6.72849e-07
2.57195e-06
5.97946e-07
2.57237e-06
5.24165e-07
2.57053e-06
4.51424e-07
2.56639e-06
3.79636e-07
2.55989e-06
3.08714e-07
2.55099e-06
2.3857e-07
2.53964e-06
1.69117e-07
2.52576e-06
1.00269e-07
2.5093e-06
3.19416e-08
2.4902e-06
-3.59489e-08
2.46838e-06
-1.03482e-07
2.44377e-06
-1.70733e-07
2.41628e-06
-2.37776e-07
2.38584e-06
-3.04679e-07
2.35236e-06
-3.71507e-07
2.31575e-06
-4.38319e-07
2.27591e-06
-5.0517e-07
2.23274e-06
-5.72109e-07
2.18614e-06
-6.39179e-07
2.13601e-06
-7.06417e-07
2.08225e-06
-7.73855e-07
2.02476e-06
-8.41524e-07
1.96346e-06
-9.09452e-07
1.89826e-06
-9.77672e-07
-1.04623e-06
2.66601e-06
8.916e-07
2.67711e-06
8.15235e-07
2.68585e-06
7.40206e-07
2.69224e-06
6.66459e-07
2.69626e-06
5.9393e-07
2.69788e-06
5.22547e-07
2.69707e-06
4.52234e-07
2.69379e-06
3.8291e-07
2.68801e-06
3.14496e-07
2.67968e-06
2.46906e-07
2.66873e-06
1.8006e-07
2.65513e-06
1.13876e-07
2.63879e-06
4.82741e-08
2.61967e-06
-1.68221e-08
2.59768e-06
-8.14938e-08
2.57275e-06
-1.45806e-07
2.5448e-06
-2.09828e-07
2.51375e-06
-2.73625e-07
2.4795e-06
-3.37257e-07
2.44196e-06
-4.00778e-07
2.40103e-06
-4.6424e-07
2.35661e-06
-5.27688e-07
2.30859e-06
-5.91163e-07
2.25688e-06
-6.54702e-07
2.20136e-06
-7.18341e-07
2.14195e-06
-7.82112e-07
2.07856e-06
-8.46056e-07
2.0111e-06
-9.10216e-07
-9.74655e-07
2.78211e-06
8.75769e-07
2.79536e-06
8.01985e-07
2.80604e-06
7.29524e-07
2.81416e-06
6.58343e-07
2.8197e-06
5.88386e-07
2.82266e-06
5.19591e-07
2.823e-06
4.51888e-07
2.82071e-06
3.85205e-07
2.81574e-06
3.19467e-07
2.80805e-06
2.54596e-07
2.79759e-06
1.90518e-07
2.78431e-06
1.27154e-07
2.76816e-06
6.44317e-08
2.74905e-06
2.28686e-09
2.72693e-06
-5.93737e-08
2.70171e-06
-1.20593e-07
2.67333e-06
-1.81442e-07
2.64168e-06
-2.4198e-07
2.60669e-06
-3.02261e-07
2.56824e-06
-3.62336e-07
2.52625e-06
-4.22252e-07
2.48062e-06
-4.82052e-07
2.43123e-06
-5.41775e-07
2.37799e-06
-6.01459e-07
2.32079e-06
-6.61142e-07
2.25954e-06
-7.20864e-07
2.19416e-06
-7.80673e-07
2.12457e-06
-8.40629e-07
-9.00814e-07
2.89568e-06
8.57324e-07
2.9113e-06
7.86366e-07
2.92412e-06
7.16708e-07
2.93414e-06
6.48317e-07
2.94138e-06
5.81148e-07
2.94583e-06
5.15146e-07
2.94746e-06
4.50251e-07
2.94627e-06
3.86398e-07
2.94222e-06
3.23519e-07
2.93527e-06
2.61545e-07
2.92538e-06
2.00405e-07
2.91251e-06
1.40031e-07
2.89658e-06
8.03537e-08
2.87756e-06
2.13102e-08
2.85536e-06
-3.71701e-08
2.82991e-06
-9.51423e-08
2.80113e-06
-1.52664e-07
2.76894e-06
-2.09789e-07
2.73325e-06
-2.66567e-07
2.69396e-06
-3.23046e-07
2.65097e-06
-3.79268e-07
2.60419e-06
-4.35273e-07
2.55352e-06
-4.91101e-07
2.49885e-06
-5.46791e-07
2.44009e-06
-6.02384e-07
2.37716e-06
-6.57929e-07
2.30997e-06
-7.13483e-07
2.23846e-06
-7.69124e-07
-8.24954e-07
3.00569e-06
8.36038e-07
3.02389e-06
7.68164e-07
3.03904e-06
7.01558e-07
3.05116e-06
6.36196e-07
3.06027e-06
5.72043e-07
3.06636e-06
5.09054e-07
3.06943e-06
4.47178e-07
3.06947e-06
3.86357e-07
3.06646e-06
3.26533e-07
3.06036e-06
2.67642e-07
3.05114e-06
2.09623e-07
3.03876e-06
1.52414e-07
3.02316e-06
9.59518e-08
3.00429e-06
4.01791e-08
2.98208e-06
-1.49616e-08
2.95647e-06
-6.95296e-08
2.92738e-06
-1.2357e-07
2.89472e-06
-1.77133e-07
2.85842e-06
-2.30264e-07
2.81838e-06
-2.83006e-07
2.77451e-06
-3.35398e-07
2.72671e-06
-3.8748e-07
2.6749e-06
-4.39292e-07
2.61899e-06
-4.90874e-07
2.55888e-06
-5.42274e-07
2.4945e-06
-5.93547e-07
2.42578e-06
-6.44765e-07
2.35268e-06
-6.96021e-07
-7.4744e-07
3.11097e-06
8.11699e-07
3.13196e-06
7.47175e-07
3.14964e-06
6.83878e-07
3.16404e-06
6.21795e-07
3.17519e-06
5.60898e-07
3.18309e-06
5.01153e-07
3.18775e-06
4.42517e-07
3.18917e-06
3.84942e-07
3.18732e-06
3.28376e-07
3.1822e-06
2.72766e-07
3.17377e-06
2.18056e-07
3.16199e-06
1.64192e-07
3.14682e-06
1.11119e-07
3.12821e-06
5.87858e-08
3.10611e-06
7.1441e-09
3.08044e-06
-4.38656e-08
3.05115e-06
-9.42781e-08
3.01816e-06
-1.4414e-07
2.98139e-06
-1.93492e-07
2.94076e-06
-2.42375e-07
2.89618e-06
-2.90825e-07
2.84759e-06
-3.38882e-07
2.79488e-06
-3.86586e-07
2.73799e-06
-4.33983e-07
2.67684e-06
-4.81125e-07
2.61137e-06
-5.28078e-07
2.54153e-06
-5.74927e-07
2.46729e-06
-6.2178e-07
-6.68786e-07
3.21031e-06
7.84111e-07
3.23428e-06
7.2321e-07
3.25467e-06
6.63487e-07
3.27153e-06
6.04937e-07
3.28488e-06
5.47543e-07
3.29476e-06
4.91279e-07
3.30116e-06
4.36111e-07
3.3041e-06
3.82e-07
3.30358e-06
3.28902e-07
3.29957e-06
2.76772e-07
3.29207e-06
2.25562e-07
3.28103e-06
1.75225e-07
3.26644e-06
1.25714e-07
3.24824e-06
7.69823e-08
3.2264e-06
2.89872e-08
3.20085e-06
-1.83167e-08
3.17154e-06
-6.49716e-08
3.13842e-06
-1.11012e-07
3.1014e-06
-1.56478e-07
3.06043e-06
-2.01406e-07
3.01544e-06
-2.45834e-07
2.96636e-06
-2.89801e-07
2.91312e-06
-3.33349e-07
2.85567e-06
-3.76529e-07
2.79395e-06
-4.19401e-07
2.72791e-06
-4.6204e-07
2.65753e-06
-5.04544e-07
2.58278e-06
-5.47039e-07
-5.8969e-07
3.30242e-06
7.53108e-07
3.32953e-06
6.961e-07
3.35281e-06
6.40215e-07
3.37229e-06
5.85455e-07
3.38802e-06
5.31811e-07
3.40003e-06
4.79266e-07
3.40835e-06
4.27794e-07
3.41299e-06
3.77364e-07
3.41395e-06
3.27941e-07
3.41123e-06
2.79486e-07
3.40483e-06
2.3196e-07
3.39474e-06
1.85323e-07
3.38092e-06
1.39533e-07
3.36335e-06
9.45509e-08
3.342e-06
5.03376e-08
3.31682e-06
6.85818e-09
3.28778e-06
-3.59335e-08
3.25484e-06
-7.8064e-08
3.21793e-06
-1.19571e-07
3.17701e-06
-1.60491e-07
3.13204e-06
-2.00861e-07
3.08296e-06
-2.40722e-07
3.02973e-06
-2.8012e-07
2.97231e-06
-3.1911e-07
2.91067e-06
-3.5776e-07
2.84479e-06
-3.96155e-07
2.77465e-06
-4.34405e-07
2.70026e-06
-4.72649e-07
-5.11072e-07
3.38603e-06
7.18545e-07
3.41643e-06
6.65695e-07
3.44274e-06
6.13904e-07
3.46502e-06
5.63182e-07
3.4833e-06
5.13528e-07
3.49764e-06
4.6493e-07
3.50806e-06
4.17372e-07
3.51459e-06
3.70829e-07
3.51726e-06
3.25273e-07
3.51607e-06
2.80674e-07
3.51104e-06
2.36998e-07
3.50215e-06
1.9421e-07
3.4894e-06
1.52277e-07
3.47279e-06
1.11163e-07
3.4523e-06
7.08346e-08
3.4279e-06
3.12575e-08
3.39956e-06
-7.60187e-09
3.36728e-06
-4.57799e-08
3.33101e-06
-8.33055e-08
3.29074e-06
-1.20216e-07
3.24643e-06
-1.56551e-07
3.19806e-06
-1.92351e-07
3.14561e-06
-2.27669e-07
3.08906e-06
-2.62562e-07
3.02841e-06
-2.97107e-07
2.96365e-06
-3.31395e-07
2.89479e-06
-3.65548e-07
2.82186e-06
-3.99716e-07
-4.34095e-07
3.45998e-06
6.80285e-07
3.49384e-06
6.31837e-07
3.52337e-06
5.84377e-07
3.54863e-06
5.37922e-07
3.56968e-06
4.92475e-07
3.58658e-06
4.48031e-07
3.59937e-06
4.04579e-07
3.6081e-06
3.62102e-07
3.61279e-06
3.20577e-07
3.61349e-06
2.79981e-07
3.6102e-06
2.40284e-07
3.60295e-06
2.01459e-07
3.59175e-06
1.63475e-07
3.57661e-06
1.26303e-07
3.55754e-06
8.99112e-08
3.53453e-06
5.42691e-08
3.50758e-06
1.93457e-08
3.47669e-06
-1.4892e-08
3.44186e-06
-4.84759e-08
3.40309e-06
-8.14415e-08
3.36036e-06
-1.13829e-07
3.31369e-06
-1.45682e-07
3.26308e-06
-1.77055e-07
3.20853e-06
-2.08012e-07
3.15006e-06
-2.38632e-07
3.08768e-06
-2.69015e-07
3.02142e-06
-2.99287e-07
2.95131e-06
-3.29606e-07
-3.60176e-07
3.52365e-06
6.38139e-07
3.56119e-06
5.94302e-07
3.59419e-06
5.51375e-07
3.62273e-06
5.09376e-07
3.64689e-06
4.68313e-07
3.66674e-06
4.28186e-07
3.68233e-06
3.88989e-07
3.69372e-06
3.50709e-07
3.70097e-06
3.1333e-07
3.70412e-06
2.76832e-07
3.70321e-06
2.41191e-07
3.69829e-06
2.06384e-07
3.68938e-06
1.72384e-07
3.67652e-06
1.39165e-07
3.65973e-06
1.06699e-07
3.63904e-06
7.49579e-08
3.61447e-06
4.39127e-08
3.58605e-06
1.35324e-08
3.55379e-06
-1.62152e-08
3.51771e-06
-4.53655e-08
3.47784e-06
-7.39583e-08
3.4342e-06
-1.0204e-07
3.38681e-06
-1.29666e-07
3.3357e-06
-1.56902e-07
3.2809e-06
-1.83831e-07
3.22244e-06
-2.10554e-07
3.16035e-06
-2.37199e-07
3.09467e-06
-2.63927e-07
-2.90942e-07
3.57789e-06
5.91742e-07
3.61952e-06
5.52672e-07
3.65648e-06
5.1442e-07
3.68885e-06
4.77006e-07
3.71672e-06
4.40443e-07
3.74017e-06
4.04733e-07
3.75929e-06
3.69874e-07
3.77414e-06
3.35857e-07
3.7848e-06
3.0267e-07
3.79133e-06
2.70297e-07
3.7938e-06
2.38719e-07
3.79227e-06
2.07916e-07
3.78679e-06
1.77866e-07
3.77741e-06
1.48544e-07
3.76418e-06
1.19927e-07
3.74715e-06
9.19881e-08
3.72636e-06
6.47008e-08
3.70186e-06
3.8036e-08
3.67368e-06
1.1962e-08
3.64187e-06
-1.35552e-08
3.60647e-06
-3.85543e-08
3.56751e-06
-6.30815e-08
3.52504e-06
-8.71919e-08
3.47909e-06
-1.10952e-07
3.4297e-06
-1.34442e-07
3.37691e-06
-1.57764e-07
3.32075e-06
-1.81042e-07
3.26126e-06
-2.04434e-07
-2.28138e-07
3.62734e-06
5.40364e-07
3.67387e-06
5.06135e-07
3.71567e-06
4.72622e-07
3.75283e-06
4.39847e-07
3.78545e-06
4.07821e-07
3.81363e-06
3.76551e-07
3.83747e-06
3.46037e-07
3.85705e-06
3.16275e-07
3.87247e-06
2.87256e-07
3.8838e-06
2.58967e-07
3.89112e-06
2.31394e-07
3.89452e-06
2.04519e-07
3.89406e-06
1.78325e-07
3.88981e-06
1.5279e-07
3.88185e-06
1.27895e-07
3.87022e-06
1.03615e-07
3.85499e-06
7.99267e-08
3.83623e-06
5.68037e-08
3.81397e-06
3.42168e-08
3.78828e-06
1.21325e-08
3.75921e-06
-9.48516e-09
3.72681e-06
-3.06769e-08
3.69112e-06
-5.14982e-08
3.65218e-06
-7.20125e-08
3.61003e-06
-9.22965e-08
3.56471e-06
-1.12446e-07
3.51625e-06
-1.32578e-07
3.46466e-06
-1.52843e-07
-1.73426e-07
3.68502e-06
4.82707e-07
3.73784e-06
4.53315e-07
3.78593e-06
4.24528e-07
3.82941e-06
3.96366e-07
3.86839e-06
3.68846e-07
3.90297e-06
3.41974e-07
3.93325e-06
3.15754e-07
3.95934e-06
2.90184e-07
3.98134e-06
2.65259e-07
3.99933e-06
2.4097e-07
4.01342e-06
2.17307e-07
4.02368e-06
1.94257e-07
4.0302e-06
1.71804e-07
4.03306e-06
1.49933e-07
4.03233e-06
1.28626e-07
4.02808e-06
1.07864e-07
4.02038e-06
8.76253e-08
4.0093e-06
6.78875e-08
3.99489e-06
4.8625e-08
3.97721e-06
2.98087e-08
3.95632e-06
1.14036e-08
3.93228e-06
-6.62948e-09
3.90511e-06
-2.43305e-08
3.87486e-06
-4.17684e-08
3.84158e-06
-5.90098e-08
3.80527e-06
-7.61417e-08
3.76597e-06
-9.32724e-08
3.72366e-06
-1.10538e-07
-1.28106e-07
3.77985e-06
4.16962e-07
3.84082e-06
3.92351e-07
3.89711e-06
3.68232e-07
3.94885e-06
3.44628e-07
3.99614e-06
3.21554e-07
4.0391e-06
2.99019e-07
4.07782e-06
2.7703e-07
4.11242e-06
2.55588e-07
4.14299e-06
2.34691e-07
4.16962e-06
2.14334e-07
4.19242e-06
1.9451e-07
4.21147e-06
1.7521e-07
4.22685e-06
1.56424e-07
4.23864e-06
1.38138e-07
4.24693e-06
1.2034e-07
4.25178e-06
1.03013e-07
4.25326e-06
8.61413e-08
4.25145e-06
6.97046e-08
4.24639e-06
5.36817e-08
4.23815e-06
3.80483e-08
4.22678e-06
2.27749e-08
4.21232e-06
7.8247e-09
4.19483e-06
-6.84013e-09
4.17434e-06
-2.12715e-08
4.15086e-06
-3.55359e-08
4.12443e-06
-4.97063e-08
4.09503e-06
-6.38791e-08
4.06267e-06
-7.81737e-08
-9.27387e-08
3.9657e-06
3.41506e-07
4.03642e-06
3.21635e-07
4.1025e-06
3.02153e-07
4.16404e-06
2.83081e-07
4.22116e-06
2.64436e-07
4.27395e-06
2.46228e-07
4.32252e-06
2.28465e-07
4.36695e-06
2.1115e-07
4.40736e-06
1.94285e-07
4.44383e-06
1.77867e-07
4.47644e-06
1.61893e-07
4.5053e-06
1.46357e-07
4.53047e-06
1.31251e-07
4.55204e-06
1.16567e-07
4.57009e-06
1.02294e-07
4.58468e-06
8.84198e-08
4.59589e-06
7.49317e-08
4.60378e-06
6.18133e-08
4.60841e-06
4.90473e-08
4.60985e-06
3.66138e-08
4.60813e-06
2.44894e-08
4.60332e-06
1.26428e-08
4.59544e-06
1.0363e-09
4.58454e-06
-1.03716e-08
4.57064e-06
-2.16333e-08
4.55374e-06
-3.2812e-08
4.53385e-06
-4.39901e-08
4.51095e-06
-5.52687e-08
-6.67728e-08
4.32671e-06
2.56583e-07
4.40687e-06
2.41478e-07
4.48235e-06
2.26674e-07
4.55324e-06
2.12188e-07
4.61964e-06
1.98037e-07
4.68164e-06
1.84229e-07
4.73933e-06
1.70773e-07
4.79281e-06
1.57673e-07
4.84216e-06
1.44931e-07
4.88748e-06
1.32547e-07
4.92886e-06
1.20519e-07
4.96637e-06
1.08844e-07
5.00011e-06
9.75152e-08
5.03015e-06
8.65273e-08
5.05657e-06
7.5872e-08
5.07945e-06
6.55391e-08
5.09886e-06
5.55194e-08
5.11487e-06
4.57996e-08
5.12755e-06
3.63662e-08
5.13696e-06
2.72042e-08
5.14316e-06
1.82943e-08
5.14619e-06
9.60997e-09
5.1461e-06
1.12619e-09
5.14295e-06
-7.21766e-09
5.13674e-06
-1.54267e-08
5.1275e-06
-2.35679e-08
5.11522e-06
-3.17073e-08
5.09987e-06
-3.99246e-08
-4.83194e-08
4.96954e-06
1.66723e-07
5.05459e-06
1.56434e-07
5.13489e-06
1.46368e-07
5.21054e-06
1.36538e-07
5.28162e-06
1.26954e-07
5.34823e-06
1.17626e-07
5.41044e-06
1.08558e-07
5.46836e-06
9.97543e-08
5.52208e-06
9.12158e-08
5.57168e-06
8.29425e-08
5.61727e-06
7.49326e-08
5.65893e-06
6.71833e-08
5.69675e-06
5.96906e-08
5.73083e-06
5.24495e-08
5.76125e-06
4.54537e-08
5.78809e-06
3.86942e-08
5.81145e-06
3.21614e-08
5.8314e-06
2.58453e-08
5.84803e-06
1.97429e-08
5.86139e-06
1.38458e-08
5.87155e-06
8.13137e-09
5.87858e-06
2.57928e-09
5.88255e-06
-2.84201e-09
5.88349e-06
-8.16434e-09
5.88145e-06
-1.33834e-08
5.87644e-06
-1.85575e-08
5.86847e-06
-2.37339e-08
5.85751e-06
-2.89705e-08
-3.43397e-08
5.99205e-06
8.27755e-08
6.07134e-06
7.71438e-08
6.14605e-06
7.16568e-08
6.21626e-06
6.63217e-08
6.28207e-06
6.11441e-08
6.34357e-06
5.61278e-08
6.40085e-06
5.12751e-08
6.45402e-06
4.65869e-08
6.50317e-06
4.20631e-08
6.54841e-06
3.77025e-08
6.58984e-06
3.3503e-08
6.62757e-06
2.9462e-08
6.66168e-06
2.55758e-08
6.69229e-06
2.18416e-08
6.71949e-06
1.82553e-08
6.74337e-06
1.48146e-08
6.76402e-06
1.1503e-08
6.78158e-06
8.28976e-09
6.7961e-06
5.22033e-09
6.80766e-06
2.28899e-09
6.81629e-06
-5.03411e-10
6.82218e-06
-3.3051e-09
6.82531e-06
-5.97807e-09
6.82575e-06
-8.59785e-09
6.82354e-06
-1.11731e-08
6.81871e-06
-1.37283e-08
6.81127e-06
-1.62941e-08
6.80121e-06
-1.89064e-08
-2.16089e-08
7.42379e-06
2.15068e-08
7.48121e-06
1.97164e-08
7.53488e-06
1.79875e-08
7.58488e-06
1.63217e-08
7.63131e-06
1.47199e-08
7.67425e-06
1.31824e-08
7.71382e-06
1.1709e-08
7.75011e-06
1.02989e-08
7.78322e-06
8.95106e-09
7.81326e-06
7.66423e-09
7.84032e-06
6.43657e-09
7.86452e-06
5.26651e-09
7.88594e-06
4.15127e-09
7.90469e-06
3.09004e-09
7.92087e-06
2.07914e-09
7.93456e-06
1.12805e-09
7.9458e-06
2.56808e-10
7.95479e-06
-6.94637e-10
7.96154e-06
-1.5313e-09
7.96613e-06
-2.29731e-09
7.96867e-06
-3.05067e-09
7.96917e-06
-3.79899e-09
7.9677e-06
-4.51532e-09