/*--------------------------------*- C++ -*----------------------------------*\
  =========                 |
  \\      /  F ield         | OpenFOAM: The Open Source CFD Toolbox
   \\    /   O peration     | Website:  https://openfoam.org
    \\  /    A nd           | Version:  9
     \\/     M anipulation  |
\*---------------------------------------------------------------------------*/
FoamFile
{
    format      ascii;
    class       volScalarField;
    location    "0.5";
    object      p;
}
// * * * * * * * * * * * * * * * * * * * * * * * * * * * * * * * * * * * * * //

dimensions      [0 2 -2 0 0 0 0];

internalField   nonuniform List<scalar> 
1250
(
0.000457205
0.000502767
0.000550136
0.000599303
0.00065025
0.000702949
0.000757365
0.000813455
0.000871168
0.000930446
0.000991221
0.00105342
0.00111695
0.00118171
0.00124761
0.00131452
0.00138232
0.00145086
0.00152
0.00158957
0.00165941
0.00172934
0.00179915
0.00186866
0.00193766
0.00200595
0.0020733
0.00213949
0.00220432
0.00226756
0.00232899
0.0023884
0.00244558
0.000473756
0.000518944
0.000565905
0.000614633
0.000665107
0.000717295
0.00077116
0.000826656
0.000883731
0.000942326
0.00100237
0.00106379
0.00112649
0.00119038
0.00125536
0.0013213
0.00138808
0.00145556
0.0015236
0.00159202
0.00166068
0.00172938
0.00179796
0.0018662
0.00193391
0.0020009
0.00206694
0.00213182
0.00219534
0.00225729
0.00231745
0.00237561
0.0024316
0.000485164
0.000530071
0.000576723
0.000625119
0.000675241
0.000727053
0.000780515
0.000835583
0.000892202
0.000950313
0.00100985
0.00107072
0.00113286
0.00119615
0.0012605
0.00132579
0.00139189
0.00145866
0.00152597
0.00159365
0.00166153
0.00172944
0.00179721
0.00186464
0.00193152
0.00199767
0.00206287
0.00212692
0.00218961
0.00225072
0.00231007
0.00236743
0.00242264
0.000493845
0.000538512
0.000584896
0.000633008
0.00068283
0.000734326
0.000787456
0.000842172
0.000898423
0.000956147
0.00101527
0.00107573
0.00113742
0.00120026
0.00126414
0.00132894
0.00139453
0.00146079
0.00152756
0.0015947
0.00166203
0.00172938
0.00179658
0.00186342
0.00192973
0.00199529
0.00205991
0.00212338
0.00218548
0.00224602
0.00230479
0.0023616
0.00241625
0.000500529
0.000544977
0.000591119
0.000638975
0.00068853
0.000739747
0.000792586
0.000847
0.000902937
0.000960336
0.00101913
0.00107924
0.00114058
0.00120305
0.00126655
0.00133097
0.00139618
0.00146204
0.00152842
0.00159515
0.00166208
0.00172902
0.00179581
0.00186224
0.00192814
0.00199329
0.00205749
0.00212054
0.00218223
0.00224237
0.00230073
0.00235713
0.00241138
0.000504846
0.000549104
0.000595036
0.000642672
0.000692
0.000742985
0.000795584
0.000849753
0.000905441
0.000962586
0.00102112
0.00108097
0.00114205
0.00120426
0.0012675
0.00133166
0.00139661
0.00146222
0.00152834
0.00159482
0.0016615
0.0017282
0.00179474
0.00186094
0.00192659
0.0019915
0.00205547
0.00211829
0.00217975
0.00223964
0.00229776
0.00235392
0.00240794
0.000506534
0.000550636
0.000596395
0.000643852
0.000693001
0.000743804
0.000796221
0.000850209
0.000905717
0.000962686
0.00102105
0.00108073
0.00114165
0.00120371
0.00126681
0.00133083
0.00139565
0.00146114
0.00152715
0.00159354
0.00166012
0.00172675
0.00179322
0.00185935
0.00192494
0.0019898
0.00205371
0.00211646
0.00217785
0.00223768
0.00229574
0.00235183
0.00240576
0.000505412
0.000549393
0.000595021
0.000642345
0.000691364
0.00074204
0.000794337
0.000848211
0.000903613
0.000960486
0.00101877
0.00107838
0.00113923
0.00120125
0.00126432
0.00132833
0.00139316
0.00145867
0.00152472
0.00159116
0.00165782
0.00172453
0.00179109
0.00185733
0.00192304
0.001988
0.00205202
0.00211488
0.00217638
0.00223632
0.00229451
0.0023507
0.00240467
0.000501296
0.000545198
0.000590738
0.000637978
0.000686921
0.00073753
0.000789771
0.000843602
0.000898976
0.000955838
0.00101412
0.00107376
0.00113467
0.00119675
0.00125991
0.00132404
0.00138901
0.00145469
0.00152093
0.00158758
0.00165446
0.00172142
0.00178825
0.00185476
0.00192075
0.001986
0.0020503
0.00211342
0.00217522
0.00223548
0.00229395
0.000494008
0.000537873
0.000583373
0.000630583
0.000679508
0.000730114
0.000782368
0.000836232
0.000891661
0.0009486
0.00100699
0.00106675
0.00112782
0.00119009
0.00125347
0.00131784
0.00138309
0.00144907
0.00151565
0.00158267
0.00164994
0.00171731
0.00178457
0.00185153
0.00191797
0.00198368
0.00204843
0.00211201
0.00217428
0.000483378
0.000527253
0.000572766
0.000620002
0.00066897
0.000719641
0.000771983
0.000825959
0.000881527
0.000938636
0.000997226
0.00105723
0.00111856
0.00118114
0.00124486
0.00130962
0.00137529
0.00144173
0.0015088
0.00157633
0.00164417
0.00171211
0.00177997
0.00184754
0.00191461
0.00198095
0.00204633
0.00211054
0.00217344
0.000469247
0.000513181
0.000558761
0.000606082
0.00065516
0.000705967
0.000758473
0.000812645
0.000868443
0.000925818
0.000984713
0.00104506
0.00110678
0.00116979
0.00123399
0.00129927
0.0013655
0.00143255
0.00150026
0.00156848
0.00163703
0.00170573
0.00177436
0.00184272
0.00191059
0.00197774
0.00204391
0.00210892
0.0021726
0.000451462
0.000495505
0.000541209
0.000588679
0.000637935
0.00068895
0.0007417
0.000796155
0.000852276
0.000910017
0.000969322
0.00103013
0.00109236
0.00115593
0.00122074
0.00128667
0.00135362
0.00142143
0.00148995
0.00155902
0.00162846
0.00169807
0.00176765
0.00183698
0.00190583
0.00197395
0.00204109
0.00210705
0.00217167
0.000429872
0.000474079
0.000519964
0.000567646
0.000617149
0.00066845
0.000721526
0.000776351
0.000832889
0.000891098
0.000950924
0.0010123
0.00107517
0.00113942
0.00120498
0.00127173
0.00133953
0.00140826
0.00147775
0.00154784
0.00161833
0.00168904
0.00175975
0.00183022
0.00190023
0.00196951
0.00203779
0.00210488
0.00217058
0.00040433
0.000448753
0.000494879
0.000542837
0.000592657
0.000644319
0.000697804
0.000753088
0.00081014
0.00086892
0.000929376
0.00099145
0.00105507
0.00112015
0.00118659
0.00125429
0.00132311
0.00139291
0.00146354
0.00153481
0.00160654
0.00167853
0.00175054
0.00182234
0.00189369
0.0019643
0.00203391
0.00210229
0.00216926
0.000374688
0.000419377
0.000465801
0.000514099
0.000564305
0.000616404
0.00067038
0.000726213
0.000783874
0.000843327
0.000904525
0.000967409
0.00103191
0.00109794
0.00116541
0.00123421
0.0013042
0.00137524
0.00144717
0.0015198
0.00159295
0.00166639
0.00173989
0.00181321
0.00188608
0.00195822
0.00202933
0.00209919
0.0021676
0.000340791
0.000385794
0.00043257
0.000481269
0.000531929
0.000584538
0.000639085
0.000695554
0.000753919
0.000814148
0.000876195
0.000940007
0.00100551
0.00107263
0.00114127
0.00121131
0.00128263
0.00135507
0.00142847
0.00150264
0.00157737
0.00165246
0.00172764
0.00180267
0.00187725
0.00195111
0.00202392
0.00209544
0.00216546
0.000302482
0.000347838
0.000395016
0.000444172
0.00049535
0.00054854
0.000603735
0.000660923
0.000720084
0.000781186
0.00084419
0.000909042
0.000975677
0.00104401
0.00111396
0.00118539
0.00125819
0.00133219
0.00140723
0.00148311
0.00155962
0.00163653
0.00171359
0.00179052
0.00186702
0.00194279
0.00201749
0.00209087
0.00216269
0.000259592
0.00030533
0.000352953
0.000402621
0.000454375
0.000508211
0.000564125
0.000622111
0.000682152
0.000744221
0.000808282
0.000874285
0.000942166
0.00101185
0.00108323
0.0011562
0.00123062
0.00130635
0.00138319
0.00146097
0.00153944
0.00161837
0.0016975
0.00177653
0.00185515
0.00193304
0.00200983
0.00208526
0.00215908
0.00021191
0.000258063
0.000306175
0.000356404
0.000408789
0.000463329
0.000520028
0.000578883
0.000639882
0.000703004
0.000768216
0.000835471
0.000904709
0.000975851
0.0010488
0.00112345
0.00119965
0.00127726
0.00135608
0.00143592
0.00151654
0.00159768
0.00167907
0.00176041
0.00184136
0.00192157
0.00200067
0.00207836
0.00215439
0.000114555
0.000159243
0.000205826
0.00025446
0.000305298
0.000358358
0.000413652
0.000471189
0.000530974
0.000593
0.000657251
0.000723698
0.000792299
0.000862995
0.000935711
0.00101035
0.00108681
0.00116493
0.00124457
0.00132553
0.00140761
0.00149056
0.00157411
0.00165797
0.00174182
0.00182531
0.00190807
0.00198969
0.00206986
0.0021483
5.6325e-05
0.00010138
0.000148403
0.000197596
0.000249064
0.000302829
0.000358912
0.00041733
0.000478093
0.000541202
0.000606645
0.000674399
0.000744426
0.000816671
0.000891062
0.000967506
0.00104589
0.00112607
0.00120789
0.00129115
0.00137563
0.00146109
0.00154723
0.00163376
0.00172034
0.00180659
0.00189211
0.00197648
0.00205936
0.00214044
-7.32744e-06
3.81061e-05
8.55921e-05
0.00013534
0.000187442
0.000241924
0.000298815
0.00035814
0.000419914
0.000484145
0.000550829
0.000619946
0.000691465
0.000765335
0.000841487
0.000919831
0.00100025
0.00108261
0.00116675
0.00125245
0.0013395
0.00142764
0.00151657
0.00160597
0.00169548
0.0017847
0.00187322
0.00196056
0.00204638
0.00213035
-7.66293e-05
-3.08155e-05
1.71263e-05
6.7414e-05
0.00012014
0.000175336
0.000233037
0.000293277
0.000356077
0.000421452
0.000489405
0.000559924
0.000632981
0.000708534
0.000786516
0.000866841
0.000949396
0.00103404
0.00112061
0.0012089
0.00129867
0.00138965
0.00148154
0.001574
0.00166665
0.00175908
0.00185081
0.00194137
0.00203038
0.00211747
-0.000151828
-0.000105653
-5.72809e-05
-6.48165e-06
4.68429e-05
0.000102731
0.000161226
0.000222367
0.000286186
0.000352705
0.000421934
0.000493869
0.000568491
0.00064576
0.000725619
0.000807984
0.000892746
0.000979765
0.00106887
0.00115986
0.00125248
0.00134646
0.00144148
0.00153719
0.00163318
0.00172902
0.00182421
0.00191822
0.00201066
0.00210113
-0.000233174
-0.000186684
-0.000137928
-8.66642e-05
-3.27872e-05
2.37492e-05
8.29962e-05
0.000145003
0.000209809
0.000277446
0.000347931
0.000421271
0.000497454
0.000576449
0.000658204
0.000742641
0.000829656
0.00091911
0.00101083
0.00110461
0.0012002
0.00129731
0.00139561
0.00149472
0.00159424
0.00169371
0.00179258
0.00189028
0.00198639
0.0020805
-0.000320935
-0.000274197
-0.000225127
-0.00017347
-0.000119111
-6.19956e-05
-2.0633e-06
6.0744e-05
0.000126476
0.000195174
0.000266866
0.000341568
0.000419277
0.000499972
0.00058361
0.000670119
0.0007594
0.000851318
0.000945702
0.00104234
0.00114098
0.00124132
0.00134301
0.00144567
0.00154888
0.00165216
0.00175493
0.00185655
0.00195658
0.0020546
-0.00041539
-0.000368499
-0.000319209
-0.000267255
-0.000212511
-0.000154915
-9.43949e-05
-3.08832e-05
3.5681e-05
0.000105349
0.000178161
0.000254144
0.000333306
0.000415638
0.000501104
0.000589644
0.000681164
0.000775536
0.00087259
0.000972116
0.00107385
0.00117749
0.00128265
0.00138893
0.00149595
0.0016033
0.00171023
0.00181599
0.00192017
0.0020223
-0.000516831
-0.000469904
-0.000420518
-0.000368392
-0.000313392
-0.000255444
-0.000194469
-0.000130385
-6.31212e-05
7.38641e-06
8.11905e-05
0.00015833
0.000238827
0.000322683
0.000409877
0.000500357
0.00059404
0.000690805
0.000790487
0.000892877
0.000997713
0.00110466
0.00121331
0.00132328
0.00143442
0.00154612
0.00165735
0.00176741
0.00187586
0.00198213
-0.000625556
-0.000578742
-0.00052941
-0.000477269
-0.000422174
-0.000364042
-0.000302781
-0.000238299
-0.000170511
-9.93399e-05
-2.47203e-05
5.34013e-05
0.000135062
0.000220277
0.000309038
0.000401309
0.000497018
0.000596052
0.000698258
0.00080343
0.000911303
0.00102153
0.00113368
0.00124753
0.00136294
-0.000741874
-0.000695347
-0.000646254
-0.000594289
-0.000539299
-0.000481188
-0.000419854
-0.000355191
-0.000287102
-0.000215497
-0.000140293
-6.14217e-05
2.11687e-05
0.000107511
0.000197613
0.000291454
0.000388975
0.000490081
0.000594625
0.000702413
0.000813184
0.000926578
0.00104218
0.00115986
0.00127943
-0.000866091
-0.000820061
-0.000771424
-0.000719865
-0.000665218
-0.000607378
-0.000546229
-0.000481655
-0.000413544
-0.000341789
-0.000266295
-0.000186974
-0.000103758
-1.65954e-05
7.45395e-05
0.000169643
0.000268676
0.000371556
0.000478153
0.000588284
0.000701695
0.000818018
0.000936838
0.00105811
0.00118159
-0.000998518
-0.000953226
-0.000905301
-0.000854415
-0.000800393
-0.00074312
-0.000682468
-0.000618308
-0.000550512
-0.000478961
-0.000403539
-0.000324144
-0.000240688
-0.0001531
-6.13341e-05
3.46251e-05
0.000134758
0.000239
0.000347239
0.000459308
0.00057496
0.000693812
0.000815444
0.000939886
0.00106687
-0.00113946
-0.00109518
-0.00104826
-0.000998361
-0.000945294
-0.000888935
-0.000829146
-0.000765784
-0.000698709
-0.000627783
-0.000552877
-0.000473869
-0.000390651
-0.000303133
-0.000211248
-0.000114959
-1.42667e-05
9.07847e-05
0.000200102
0.000313538
0.00043085
0.000551624
0.000675445
0.000802498
0.000932395
-0.00128921
-0.00124626
-0.00120068
-0.00115212
-0.00110039
-0.00104534
-0.000986844
-0.000924732
-0.000858854
-0.000789058
-0.000715197
-0.000637132
-0.000554736
-0.000467898
-0.000376531
-0.000280578
-0.000180018
-7.48791e-05
3.47627e-05
0.000148781
0.000266933
0.000388776
0.000513977
0.000642984
0.000774648
-0.00144805
-0.00140679
-0.00136292
-0.0013161
-0.00126613
-0.00121287
-0.00115615
-0.00109581
-0.00103168
-0.000963603
-0.000891414
-0.000814955
-0.000734081
-0.000648664
-0.000558597
-0.000463804
-0.000364249
-0.000259952
-0.000150988
-3.74595e-05
8.04553e-05
0.000202326
0.000328051
0.000457438
-0.00161624
-0.00157705
-0.00153533
-0.0014907
-0.00144298
-0.00139201
-0.00133762
-0.00127965
-0.00121792
-0.00115225
-0.00108246
-0.00100839
-0.000929869
-0.00084676
-0.000758939
-0.000666316
-0.000568849
-0.000466574
-0.000359597
-0.000247916
-0.000131427
-1.08116e-05
0.000113542
0.000240989
-0.00179403
-0.00175734
-0.00171822
-0.00167629
-0.00163135
-0.00158326
-0.00153184
-0.00147691
-0.0014183
-0.00135582
-0.00128928
-0.0012185
-0.00114331
-0.00106356
-0.000979119
-0.000889886
-0.000795826
-0.000697028
-0.000593618
-0.000485214
-0.000371831
-0.00198161
-0.0019479
-0.00191188
-0.00187319
-0.00183164
-0.00178707
-0.00173931
-0.0016882
-0.00163354
-0.00157514
-0.00151281
-0.00144638
-0.00137565
-0.00130049
-0.00122076
-0.00113638
-0.00104732
-0.000953722
-0.000855747
-0.000752805
-0.000645008
-0.00217916
-0.00214892
-0.00211656
-0.00208171
-0.00204419
-0.00200385
-0.00196055
-0.00191409
-0.00186429
-0.00181098
-0.00175397
-0.00169307
-0.00162812
-0.00155898
-0.00148554
-0.00140774
-0.00132561
-0.00123937
-0.00114924
-0.00105457
-0.00095565
-0.00238679
-0.00236058
-0.00233246
-0.0023021
-0.00226931
-0.00223397
-0.00219596
-0.00215509
-0.0021112
-0.0020641
-0.00201363
-0.00195962
-0.00190194
-0.00184046
-0.00177514
-0.00170598
-0.00163309
-0.00155683
-0.00147755
-0.00139464
-0.00130873
-0.00260457
-0.00258294
-0.00255969
-0.0025345
-0.0025072
-0.00247769
-0.00244591
-0.00241166
-0.00237479
-0.00233514
-0.00229259
-0.00224699
-0.00219826
-0.00214633
-0.00209124
-0.00203311
-0.00197219
-0.00190903
-0.00184423
-0.00177734
-0.00170946
-0.00283259
-0.00281614
-0.0027984
-0.0027791
-0.00275805
-0.00273523
-0.00271063
-0.00268413
-0.00265551
-0.00262468
-0.00259154
-0.00255605
-0.00251815
-0.00247787
-0.0024354
-0.00239106
-0.0023453
-0.00229895
-0.00225295
-0.00220718
-0.00216347
-0.00307105
-0.00306041
-0.00304886
-0.00303621
-0.00302224
-0.003007
-0.00299052
-0.00297284
-0.00295379
-0.00293323
-0.00291117
-0.00288762
-0.00286264
-0.00283635
-0.00280913
-0.00278167
-0.00275476
-0.0027295
-0.00270738
-0.0026888
-0.00267664
-0.00328609
-0.00327837
-0.00327017
-0.00326144
-0.00325221
-0.00324265
-0.00323291
-0.00322317
-0.00321418
-0.00320698
-0.00320296
-0.00320373
-0.00321135
-0.00322702
-0.00325507
-0.00366923
-0.00369264
-0.00372494
-0.00376899
-0.00382691
-0.00390504
)
;

boundaryField
{
    movingWall
    {
        type            zeroGradient;
    }
    fixedWalls
    {
        type            zeroGradient;
    }
    frontAndBack
    {
        type            empty;
    }
    procBoundary1to0
    {
        type            processor;
        value           nonuniform List<scalar> 
45
(
0.000413472
0.000430365
0.000442025
0.000450921
0.000457798
0.000462283
0.000464108
0.000463091
0.000459044
0.000451786
0.000441144
0.000426957
0.000409069
0.000387329
0.00036159
0.000331703
0.000297519
0.000258886
0.000215634
0.000167599
0.000167599
7.18654e-05
1.32654e-05
-5.07391e-05
-0.000120386
-0.000195897
-0.000277505
-0.000365457
-0.000460011
-0.000561435
-0.000670004
-0.000785995
-0.000909688
-0.00104136
-0.00118129
-0.00132973
-0.00148693
-0.00165312
-0.0018285
-0.00201323
-0.00220747
-0.00241129
-0.00262473
-0.00284785
-0.00308079
)
;
    }
    procBoundary1to3
    {
        type            processor;
        value           nonuniform List<scalar> 
23
(
-0.00331975
-0.00331562
-0.00331104
-0.00330591
-0.00330001
-0.0032933
-0.0032933
-0.00359696
-0.00360061
-0.00360473
-0.00360945
-0.00361495
-0.00362157
-0.00362973
-0.0036396
-0.00365213
-0.00365213
-0.00416909
-0.00422527
-0.00429538
-0.00438353
-0.00449305
-0.00463226
)
;
    }
    procBoundary1to6
    {
        type            processor;
        value           nonuniform List<scalar> 
26
(
0.00147901
0.00159461
0.00170898
0.0018217
0.00193212
0.00147901
0.00139978
0.00130592
0.00119475
0.00106309
0.00090674
0.000588978
0.000588978
-0.000254676
-0.000134659
0.000369891
-1.22756e-05
-0.000254676
-0.000534266
-0.000855132
-0.0012232
-0.00164487
-0.0021272
-0.00267769
-0.00330405
-0.00401414
)
;
    }
    procBoundary1to7
    {
        type            processor;
        value           nonuniform List<scalar> 
33
(
0.00250035
0.0024852
0.00247549
0.00246857
0.00246331
0.00245961
0.00245732
0.00235035
0.00245621
0.00240447
0.00223501
0.00235035
0.00229388
0.00223501
0.00223477
0.00223466
0.00223461
0.00223457
0.00223445
0.00223416
0.00223357
0.00223252
0.00223082
0.00222823
0.00222446
0.00221913
0.00221181
0.00220194
0.00218886
0.00217175
0.00214962
0.00212127
0.00208515
)
;
    }
}


// ************************************************************************* //
