/*--------------------------------*- C++ -*----------------------------------*\
  =========                 |
  \\      /  F ield         | OpenFOAM: The Open Source CFD Toolbox
   \\    /   O peration     | Website:  https://openfoam.org
    \\  /    A nd           | Version:  9
     \\/     M anipulation  |
\*---------------------------------------------------------------------------*/
FoamFile
{
    format      ascii;
    class       surfaceScalarField;
    location    "0.5";
    object      phi;
}
// * * * * * * * * * * * * * * * * * * * * * * * * * * * * * * * * * * * * * //

dimensions      [0 3 -1 0 0 0 0];

internalField   nonuniform List<scalar> 
2420
(
-2.06774e-08
7.37952e-10
-2.13995e-08
7.22077e-10
-2.21047e-08
7.05165e-10
-2.27915e-08
6.86836e-10
-2.34583e-08
6.66815e-10
-2.41033e-08
6.44966e-10
-2.47245e-08
6.21188e-10
-2.53199e-08
5.95386e-10
-2.58874e-08
5.67476e-10
-2.64247e-08
5.37381e-10
-2.69298e-08
5.05036e-10
-2.74002e-08
4.70389e-10
-2.78336e-08
4.334e-10
-2.82276e-08
3.94046e-10
-2.85799e-08
3.52325e-10
-2.88882e-08
3.08253e-10
-2.91501e-08
2.6187e-10
-2.93633e-08
2.13241e-10
-2.95258e-08
1.62455e-10
-2.96354e-08
1.09628e-10
-2.96903e-08
5.49113e-11
-2.96889e-08
-1.3824e-12
-2.96295e-08
-5.94588e-11
-2.95108e-08
-1.18673e-10
-2.93319e-08
-1.78921e-10
-2.90919e-08
-2.3992e-10
-2.87906e-08
-3.01365e-10
-2.84277e-08
-3.62923e-10
-2.80034e-08
-4.24236e-10
-2.75185e-08
-4.8491e-10
-2.6974e-08
-5.44527e-10
-2.63713e-08
-6.02677e-10
-6.5904e-10
-5.76656e-08
2.776e-09
-5.96581e-08
2.71462e-09
-6.16017e-08
2.64873e-09
-6.34923e-08
2.57742e-09
-6.53254e-08
2.49993e-09
-6.70962e-08
2.41578e-09
-6.87996e-08
2.32458e-09
-7.04302e-08
2.22598e-09
-7.19824e-08
2.11969e-09
-7.34505e-08
2.00545e-09
-7.48285e-08
1.88303e-09
-7.61104e-08
1.75227e-09
-7.729e-08
1.61304e-09
-7.83612e-08
1.46529e-09
-7.93179e-08
1.30903e-09
-8.0154e-08
1.14435e-09
-8.08636e-08
9.71411e-10
-8.14408e-08
7.90473e-10
-8.18802e-08
6.01881e-10
-8.21767e-08
4.06073e-10
-8.23254e-08
2.03581e-10
-8.23222e-08
-4.55847e-12
-8.2163e-08
-2.18662e-10
-8.18448e-08
-4.36859e-10
-8.13651e-08
-6.58601e-10
-8.07222e-08
-8.82872e-10
-7.9915e-08
-1.10858e-09
-7.89433e-08
-1.33454e-09
-7.78081e-08
-1.55947e-09
-7.6511e-08
-1.78202e-09
-7.50548e-08
-2.00071e-09
-7.34434e-08
-2.21411e-09
-2.421e-09
-9.06823e-08
5.95605e-09
-9.37892e-08
5.82153e-09
-9.68172e-08
5.67672e-09
-9.97599e-08
5.52009e-09
-1.0261e-07
5.35035e-09
-1.05361e-07
5.16654e-09
-1.08004e-07
4.96786e-09
-1.10532e-07
4.75362e-09
-1.12935e-07
4.5232e-09
-1.15206e-07
4.27609e-09
-1.17335e-07
4.01185e-09
-1.19313e-07
3.73017e-09
-1.21131e-07
3.43083e-09
-1.22779e-07
3.11376e-09
-1.24249e-07
2.77902e-09
-1.25532e-07
2.42684e-09
-1.26618e-07
2.05759e-09
-1.27499e-07
1.67185e-09
-1.28168e-07
1.27038e-09
-1.28616e-07
8.54128e-10
-1.28836e-07
4.2424e-10
-1.28823e-07
-1.74542e-11
-1.28571e-07
-4.70656e-10
-1.28076e-07
-9.32376e-10
-1.27333e-07
-1.40114e-09
-1.26341e-07
-1.87482e-09
-1.25099e-07
-2.35116e-09
-1.23606e-07
-2.82773e-09
-1.21863e-07
-3.30191e-09
-1.19874e-07
-3.7709e-09
-1.17643e-07
-4.23171e-09
-1.15176e-07
-4.68134e-09
-5.11722e-09
-1.20095e-07
1.01365e-08
-1.24176e-07
9.90314e-09
-1.28151e-07
9.65158e-09
-1.32011e-07
9.37965e-09
-1.35746e-07
9.08549e-09
-1.39347e-07
8.76762e-09
-1.42804e-07
8.42475e-09
-1.46106e-07
8.05576e-09
-1.49243e-07
7.65968e-09
-1.52202e-07
7.23569e-09
-1.54973e-07
6.78312e-09
-1.57545e-07
6.30149e-09
-1.59904e-07
5.79051e-09
-1.62041e-07
5.2501e-09
-1.63942e-07
4.68044e-09
-1.65597e-07
4.08195e-09
-1.66995e-07
3.45534e-09
-1.68125e-07
2.80162e-09
-1.68977e-07
2.1221e-09
-1.69541e-07
1.41843e-09
-1.69809e-07
6.92587e-10
-1.69774e-07
-5.29017e-11
-1.69428e-07
-8.16118e-10
-1.68767e-07
-1.59343e-09
-1.67787e-07
-2.38184e-09
-1.66484e-07
-3.17785e-09
-1.64857e-07
-3.97772e-09
-1.62907e-07
-4.77744e-09
-1.60636e-07
-5.57275e-09
-1.58048e-07
-6.35905e-09
-1.55149e-07
-7.13143e-09
-1.51945e-07
-7.88488e-09
-8.61511e-09
-1.46249e-07
1.51913e-08
-1.51181e-07
1.48353e-08
-1.55981e-07
1.44513e-08
-1.60638e-07
1.40364e-08
-1.6514e-07
1.35882e-08
-1.69477e-07
1.31047e-08
-1.73637e-07
1.2584e-08
-1.77606e-07
1.20247e-08
-1.81371e-07
1.14252e-08
-1.8492e-07
1.07846e-08
-1.88239e-07
1.01018e-08
-1.91313e-07
9.37621e-09
-1.9413e-07
8.60754e-09
-1.96676e-07
7.79573e-09
-1.98937e-07
6.94112e-09
-2.00899e-07
6.0444e-09
-2.02551e-07
5.10672e-09
-2.03879e-07
4.12964e-09
-2.04872e-07
3.11516e-09
-2.05519e-07
2.06578e-09
-2.05811e-07
9.8447e-10
-2.05739e-07
-1.2525e-10
-2.05295e-07
-1.25978e-09
-2.04474e-07
-2.41447e-09
-2.03271e-07
-3.58462e-09
-2.01684e-07
-4.76509e-09
-1.99711e-07
-5.95037e-09
-1.97354e-07
-7.13464e-09
-1.94615e-07
-8.31176e-09
-1.91499e-07
-9.47506e-09
-1.88013e-07
-1.06173e-08
-1.84167e-07
-1.17312e-08
-1.28103e-08
-1.69472e-07
2.10095e-08
-1.75145e-07
2.05089e-08
-1.80663e-07
1.99687e-08
-1.86012e-07
1.93855e-08
-1.9118e-07
1.87561e-08
-1.96153e-07
1.80781e-08
-2.00918e-07
1.7349e-08
-2.0546e-07
1.65669e-08
-2.09765e-07
1.57299e-08
-2.13817e-07
1.48366e-08
-2.17601e-07
1.38858e-08
-2.21102e-07
1.28768e-08
-2.24303e-07
1.18093e-08
-2.27191e-07
1.06832e-08
-2.29749e-07
9.49908e-09
-2.31962e-07
8.2581e-09
-2.33818e-07
6.96186e-09
-2.353e-07
5.61258e-09
-2.36398e-07
4.21312e-09
-2.371e-07
2.76695e-09
-2.37393e-07
1.27818e-09
-2.3727e-07
-2.48372e-10
-2.36722e-07
-1.80751e-09
-2.35744e-07
-3.39306e-09
-2.3433e-07
-4.99853e-09
-2.32478e-07
-6.61688e-09
-2.30188e-07
-8.2406e-09
-2.27461e-07
-9.86185e-09
-2.243e-07
-1.14724e-08
-2.20712e-07
-1.30634e-08
-2.16704e-07
-1.4625e-08
-2.12288e-07
-1.6147e-08
-1.76208e-08
-1.90071e-07
2.7494e-08
-1.96391e-07
2.68287e-08
-2.02533e-07
2.61108e-08
-2.08484e-07
2.5336e-08
-2.14228e-07
2.45008e-08
-2.19752e-07
2.3602e-08
-2.2504e-07
2.26367e-08
-2.30076e-07
2.16025e-08
-2.34843e-07
2.04971e-08
-2.39325e-07
1.93187e-08
-2.43505e-07
1.8066e-08
-2.47366e-07
1.67381e-08
-2.50892e-07
1.53347e-08
-2.54065e-07
1.3856e-08
-2.56868e-07
1.23027e-08
-2.59287e-07
1.06764e-08
-2.61304e-07
8.97941e-09
-2.62906e-07
7.21465e-09
-2.64079e-07
5.38593e-09
-2.6481e-07
3.49785e-09
-2.65088e-07
1.55583e-09
-2.64902e-07
-4.33892e-10
-2.64245e-07
-2.46432e-09
-2.63111e-07
-4.5276e-09
-2.61494e-07
-6.61522e-09
-2.59393e-07
-8.71798e-09
-2.56807e-07
-1.08262e-08
-2.53739e-07
-1.29298e-08
-2.50193e-07
-1.50184e-08
-2.46176e-07
-1.70808e-08
-2.41697e-07
-1.91041e-08
-2.36769e-07
-2.10751e-08
-2.29822e-08
-2.08336e-07
3.4561e-08
-2.1522e-07
3.37129e-08
-2.21907e-07
3.27977e-08
-2.28382e-07
3.18106e-08
-2.34628e-07
3.07472e-08
-2.4063e-07
2.9604e-08
-2.46371e-07
2.83775e-08
-2.51833e-07
2.70646e-08
-2.56999e-07
2.5663e-08
-2.61851e-07
2.41704e-08
-2.6637e-07
2.25853e-08
-2.70538e-07
2.09067e-08
-2.74338e-07
1.91343e-08
-2.77751e-07
1.72685e-08
-2.80758e-07
1.53105e-08
-2.83344e-07
1.32623e-08
-2.85492e-07
1.11268e-08
-2.87185e-07
8.90791e-09
-2.88409e-07
6.61043e-09
-2.89152e-07
4.24023e-09
-2.894e-07
1.80415e-09
-2.89144e-07
-6.89941e-10
-2.88375e-07
-3.23321e-09
-2.87087e-07
-5.81583e-09
-2.85275e-07
-8.42712e-09
-2.82938e-07
-1.10556e-08
-2.80075e-07
-1.3689e-08
-2.7669e-07
-1.6315e-08
-2.72787e-07
-1.89209e-08
-2.68375e-07
-2.14932e-08
-2.63464e-07
-2.40148e-08
-2.5807e-07
-2.24536e-07
4.21394e-08
-2.31915e-07
4.10922e-08
-2.3908e-07
3.99624e-08
-2.46013e-07
3.87441e-08
-2.52699e-07
3.74327e-08
-2.59119e-07
3.60239e-08
-2.65255e-07
3.45137e-08
-2.71089e-07
3.28987e-08
-2.76602e-07
3.11759e-08
-2.81775e-07
2.9343e-08
-2.86587e-07
2.73981e-08
-2.91021e-07
2.53403e-08
-2.95056e-07
2.31693e-08
-2.98673e-07
2.08856e-08
-3.01854e-07
1.8491e-08
-3.04579e-07
1.59879e-08
-3.06833e-07
1.33801e-08
-3.08597e-07
1.06723e-08
-3.09857e-07
7.8705e-09
-3.10599e-07
4.98196e-09
-3.1081e-07
2.01506e-09
-3.10479e-07
-1.02059e-09
-3.09598e-07
-4.11417e-09
-3.0816e-07
-7.25371e-09
-3.06161e-07
-1.04262e-08
-3.03599e-07
-1.36176e-08
-3.00475e-07
-1.68131e-08
-2.96792e-07
-1.99978e-08
-2.92557e-07
-2.31561e-08
-2.87778e-07
-2.38921e-07
5.01695e-08
-2.46738e-07
4.8909e-08
-2.54325e-07
4.75491e-08
-2.61664e-07
4.60834e-08
-2.68737e-07
4.45063e-08
-2.75527e-07
4.28132e-08
-2.82013e-07
4.09995e-08
-2.88175e-07
3.90614e-08
-2.93995e-07
3.69954e-08
-2.99451e-07
3.47989e-08
-3.04523e-07
3.247e-08
-3.0919e-07
3.00074e-08
-3.13432e-07
2.74112e-08
-3.17228e-07
2.4682e-08
-3.20559e-07
2.18221e-08
-3.23406e-07
1.88344e-08
-3.25749e-07
1.57236e-08
-3.27572e-07
1.24953e-08
-3.28859e-07
9.15697e-09
-3.29594e-07
5.71707e-09
-3.29764e-07
2.18573e-09
-3.29359e-07
-1.42554e-09
-3.2837e-07
-5.10384e-09
-3.26789e-07
-8.8349e-09
-3.24612e-07
-1.26032e-08
-3.21837e-07
-1.6392e-08
-3.18467e-07
-2.01837e-08
-3.14505e-07
-2.39597e-08
-2.77027e-08
-2.51724e-07
5.86021e-08
-2.59931e-07
5.71162e-08
-2.67895e-07
5.55131e-08
-2.75597e-07
5.37856e-08
-2.83018e-07
5.19278e-08
-2.90139e-07
4.99341e-08
-2.9694e-07
4.77997e-08
-3.03398e-07
4.552e-08
-3.09494e-07
4.30914e-08
-3.15206e-07
4.05109e-08
-3.20513e-07
3.77763e-08
-3.25391e-07
3.48863e-08
-3.29821e-07
3.18411e-08
-3.33781e-07
2.86417e-08
-3.37249e-07
2.52905e-08
-3.40206e-07
2.17913e-08
-3.42632e-07
1.81495e-08
-3.44509e-07
1.4372e-08
-3.45819e-07
1.04673e-08
-3.46548e-07
6.44553e-09
-3.46681e-07
2.31853e-09
-3.46206e-07
-1.90016e-09
-3.45114e-07
-6.19541e-09
-3.43399e-07
-1.05505e-08
-3.41055e-07
-1.49472e-08
-3.38081e-07
-1.9366e-08
-3.34478e-07
-2.37859e-08
-3.30253e-07
-2.81853e-08
-3.25444e-08
-2.63156e-07
6.73982e-08
-2.71717e-07
6.56766e-08
-2.80023e-07
6.38194e-08
-2.88055e-07
6.18182e-08
-2.95794e-07
5.96666e-08
-3.03219e-07
5.73586e-08
-3.10308e-07
5.48886e-08
-3.17039e-07
5.22517e-08
-3.23392e-07
4.94436e-08
-3.29342e-07
4.64611e-08
-3.34867e-07
4.33018e-08
-3.39945e-07
3.99644e-08
-3.44553e-07
3.6449e-08
-3.48669e-07
3.27569e-08
-3.52269e-07
2.8891e-08
-3.55334e-07
2.48558e-08
-3.57842e-07
2.06575e-08
-3.59774e-07
1.6304e-08
-3.61112e-07
1.18052e-08
-3.61839e-07
7.17289e-09
-3.61941e-07
2.42073e-09
-3.61406e-07
-2.43566e-09
-3.60222e-07
-7.37877e-09
-3.58383e-07
-1.23893e-08
-3.55885e-07
-1.74461e-08
-3.52724e-07
-2.25265e-08
-3.48903e-07
-2.76066e-08
-3.44428e-07
-3.26609e-08
-3.76673e-08
-2.73413e-07
7.65273e-08
-2.82299e-07
7.45621e-08
-2.90921e-07
7.24418e-08
-2.9926e-07
7.01573e-08
-3.07295e-07
6.77015e-08
-3.15004e-07
6.50677e-08
-3.22365e-07
6.22497e-08
-3.29356e-07
5.92421e-08
-3.35952e-07
5.60402e-08
-3.42131e-07
5.26403e-08
-3.47869e-07
4.90398e-08
-3.53142e-07
4.52373e-08
-3.57926e-07
4.12328e-08
-3.62197e-07
3.70281e-08
-3.65932e-07
3.26262e-08
-3.69109e-07
2.80324e-08
-3.71705e-07
2.32537e-08
-3.737e-07
1.82992e-08
-3.75075e-07
1.31801e-08
-3.75812e-07
7.90989e-09
-3.75896e-07
2.5041e-09
-3.75312e-07
-3.01942e-09
-3.7405e-07
-8.64068e-09
-3.72102e-07
-1.43376e-08
-3.69462e-07
-2.00861e-08
-3.66128e-07
-2.58603e-08
-3.62102e-07
-3.16325e-08
-3.57389e-07
-3.7374e-08
-4.30597e-08
-2.82672e-07
8.5967e-08
-2.91862e-07
8.37523e-08
-3.00783e-07
8.13623e-08
-3.09413e-07
7.87872e-08
-3.1773e-07
7.60189e-08
-3.25712e-07
7.30502e-08
-3.33337e-07
6.98743e-08
-3.4058e-07
6.6485e-08
-3.47417e-07
6.28773e-08
-3.53824e-07
5.9047e-08
-3.59775e-07
5.4991e-08
-3.65246e-07
5.0708e-08
-3.70211e-07
4.61978e-08
-3.74645e-07
4.14622e-08
-3.78524e-07
3.6505e-08
-3.81823e-07
3.13318e-08
-3.8452e-07
2.59504e-08
-3.86592e-07
2.03712e-08
-3.88018e-07
1.46067e-08
-3.8878e-07
8.67196e-09
-3.88861e-07
2.58462e-09
-3.88245e-07
-3.63524e-09
-3.86921e-07
-9.96503e-09
-3.84878e-07
-1.63798e-08
-3.82112e-07
-2.28522e-08
-3.7862e-07
-2.9353e-08
-3.74401e-07
-3.58509e-08
-3.69462e-07
-4.23132e-08
-4.87116e-08
-2.91092e-07
9.5702e-08
-3.00574e-07
9.32341e-08
-3.09781e-07
9.05702e-08
-3.18693e-07
8.76992e-08
-3.27287e-07
8.46125e-08
-3.35539e-07
8.13022e-08
-3.43426e-07
7.77607e-08
-3.50922e-07
7.39813e-08
-3.58002e-07
6.99581e-08
-3.64642e-07
6.56865e-08
-3.70814e-07
6.11631e-08
-3.76492e-07
5.63862e-08
-3.8165e-07
5.13555e-08
-3.86261e-07
4.6073e-08
-3.90298e-07
4.05426e-08
-3.93737e-07
3.47706e-08
-3.96552e-07
2.87655e-08
-3.9872e-07
2.25388e-08
-4.00218e-07
1.61043e-08
-4.01024e-07
9.47886e-09
-4.01122e-07
2.68205e-09
-4.00493e-07
-4.26368e-09
-3.99125e-07
-1.1333e-08
-3.97007e-07
-1.8498e-08
-3.94131e-07
-2.5728e-08
-3.90494e-07
-3.299e-08
-3.86096e-07
-4.02489e-08
-3.80942e-07
-4.74676e-08
-5.46145e-08
-2.98816e-07
1.05723e-07
-3.08582e-07
1.03001e-07
-3.18073e-07
1.00061e-07
-3.27265e-07
9.68911e-08
-3.36135e-07
9.34825e-08
-3.44659e-07
8.98261e-08
-3.52812e-07
8.59137e-08
-3.60568e-07
8.17378e-08
-3.67902e-07
7.72918e-08
-3.74786e-07
7.25704e-08
-3.81192e-07
6.75697e-08
-3.87094e-07
6.22875e-08
-3.92462e-07
5.67236e-08
-3.97268e-07
5.08796e-08
-4.01486e-07
4.47598e-08
-4.05086e-07
3.83707e-08
-4.08042e-07
3.17218e-08
-4.10329e-07
2.48254e-08
-4.11921e-07
1.76968e-08
-4.12797e-07
1.03543e-08
-4.12934e-07
2.81971e-09
-4.12316e-07
-4.88222e-09
-4.10925e-07
-1.27234e-08
-4.08751e-07
-2.06726e-08
-4.05783e-07
-2.86957e-08
-4.02017e-07
-3.67558e-08
-3.97453e-07
-4.48134e-08
-3.92093e-07
-5.2827e-08
-6.07612e-08
-3.05971e-07
1.16028e-07
-3.16021e-07
1.13051e-07
-3.25796e-07
1.09835e-07
-3.35271e-07
1.06366e-07
-3.44422e-07
1.02634e-07
-3.53226e-07
9.86297e-08
-3.61656e-07
9.43435e-08
-3.69685e-07
8.97671e-08
-3.77287e-07
8.48932e-08
-3.84432e-07
7.97156e-08
-3.91092e-07
7.42298e-08
-3.97238e-07
6.84331e-08
-4.02839e-07
6.23247e-08
-4.07865e-07
5.59063e-08
-4.12288e-07
4.9182e-08
-4.16076e-07
4.21588e-08
-4.19201e-07
3.48467e-08
-4.21634e-07
2.72589e-08
-4.23349e-07
1.94119e-08
-4.24321e-07
1.13258e-08
-4.24525e-07
3.02423e-09
-4.23942e-07
-5.46546e-09
-4.22553e-07
-1.41123e-08
-4.20344e-07
-2.28819e-08
-4.17303e-07
-3.17361e-08
-4.13425e-07
-4.0634e-08
-4.08707e-07
-4.95315e-08
-4.03152e-07
-5.83822e-08
-6.71463e-08
-3.12669e-07
1.26616e-07
-3.23007e-07
1.23389e-07
-3.33071e-07
1.19899e-07
-3.42837e-07
1.16133e-07
-3.52281e-07
1.12078e-07
-3.61377e-07
1.07726e-07
-3.70099e-07
1.03065e-07
-3.78418e-07
9.80866e-08
-3.86307e-07
9.27819e-08
-3.93736e-07
8.7144e-08
-4.00673e-07
8.11674e-08
-4.07089e-07
7.48486e-08
-4.1295e-07
6.81864e-08
-4.18226e-07
6.1182e-08
-4.22883e-07
5.38395e-08
-4.26891e-07
4.6166e-08
-4.30216e-07
3.81719e-08
-4.32828e-07
2.98711e-08
-4.34697e-07
2.12813e-08
-4.35796e-07
1.24243e-08
-4.36097e-07
3.32552e-09
-4.35578e-07
-5.98508e-09
-4.34216e-07
-1.54736e-08
-4.31996e-07
-2.51021e-08
-4.28903e-07
-3.48287e-08
-4.2493e-07
-4.46076e-08
-4.20071e-07
-5.43901e-08
-4.14329e-07
-6.41242e-08
-7.37653e-08
-3.19008e-07
1.37496e-07
-3.29641e-07
1.34023e-07
-3.40005e-07
1.30263e-07
-3.50075e-07
1.26202e-07
-3.59826e-07
1.21829e-07
-3.69231e-07
1.17131e-07
-3.78263e-07
1.12098e-07
-3.86895e-07
1.06718e-07
-3.95094e-07
1.00982e-07
-4.02832e-07
9.48815e-08
-4.10075e-07
8.84104e-08
-4.1679e-07
8.1564e-08
-4.22944e-07
7.43403e-08
-4.28502e-07
6.674e-08
-4.3343e-07
5.87667e-08
-4.37691e-07
5.04275e-08
-4.41252e-07
4.1733e-08
-4.44079e-07
3.26978e-08
-4.46138e-07
2.33405e-08
-4.47398e-07
1.36843e-08
-4.47829e-07
3.75678e-09
-4.47405e-07
-6.4098e-09
-4.461e-07
-1.67785e-08
-4.43894e-07
-2.73076e-08
-4.40772e-07
-3.7951e-08
-4.36721e-07
-4.86584e-08
-4.31736e-07
-5.93753e-08
-4.25816e-07
-7.0044e-08
-8.06146e-08
-3.25074e-07
1.48675e-07
-3.36014e-07
1.44963e-07
-3.4669e-07
1.4094e-07
-3.57079e-07
1.36591e-07
-3.67153e-07
1.31904e-07
-3.76888e-07
1.26866e-07
-3.86255e-07
1.21464e-07
-3.95223e-07
1.15686e-07
-4.03761e-07
1.0952e-07
-4.11838e-07
1.02958e-07
-4.19418e-07
9.59909e-08
-4.26468e-07
8.86134e-08
-4.3295e-07
8.08223e-08
-4.38827e-07
7.26175e-08
-4.44062e-07
6.4002e-08
-4.48617e-07
5.49826e-08
-4.52454e-07
4.55698e-08
-4.55535e-07
3.57786e-08
-4.57823e-07
2.56286e-08
-4.59283e-07
1.51442e-08
-4.59881e-07
4.3547e-09
-4.59586e-07
-6.70505e-09
-4.58369e-07
-1.7995e-08
-4.56207e-07
-2.94698e-08
-4.53079e-07
-4.10787e-08
-4.48972e-07
-5.27661e-08
-4.43875e-07
-6.4472e-08
-4.37787e-07
-7.6132e-08
-8.76905e-08
-3.19451e-07
1.63797e-07
-3.30941e-07
1.60165e-07
-3.422e-07
1.56222e-07
-3.53203e-07
1.51943e-07
-3.63928e-07
1.47315e-07
-3.74348e-07
1.42324e-07
-3.84436e-07
1.36953e-07
-3.94162e-07
1.3119e-07
-4.03495e-07
1.25019e-07
-4.12403e-07
1.18429e-07
-4.20852e-07
1.11407e-07
-4.28806e-07
1.03945e-07
-4.36227e-07
9.60343e-08
-4.43076e-07
8.76717e-08
-4.49314e-07
7.88554e-08
-4.549e-07
6.95876e-08
-4.59792e-07
5.98744e-08
-4.63948e-07
4.9726e-08
-4.67327e-07
3.91575e-08
-4.69887e-07
2.8189e-08
-4.71589e-07
1.68461e-08
-4.72394e-07
5.15986e-09
-4.72267e-07
-6.83255e-09
-4.71174e-07
-1.90879e-08
-4.69087e-07
-3.1557e-08
-4.65981e-07
-4.41842e-08
-4.61839e-07
-5.69085e-08
-4.56648e-07
-6.96632e-08
-4.50402e-07
-8.23772e-08
-9.49882e-08
-3.24854e-07
1.75806e-07
-3.36667e-07
1.71978e-07
-3.48258e-07
1.67814e-07
-3.59607e-07
1.63292e-07
-3.70689e-07
1.58397e-07
-3.81478e-07
1.53112e-07
-3.91944e-07
1.4742e-07
-4.02059e-07
1.41304e-07
-4.11789e-07
1.3475e-07
-4.21101e-07
1.27741e-07
-4.29959e-07
1.20265e-07
-4.38325e-07
1.1231e-07
-4.46158e-07
1.03868e-07
-4.53418e-07
9.49316e-08
-4.60061e-07
8.54987e-08
-4.66044e-07
7.557e-08
-4.7132e-07
6.51503e-08
-4.75843e-07
5.42495e-08
-4.79568e-07
4.28824e-08
-4.82448e-07
3.10693e-08
-4.84439e-07
1.88367e-08
-4.85496e-07
6.21725e-09
-4.85579e-07
-6.74963e-09
-4.8465e-07
-2.00176e-08
-4.82673e-07
-3.35334e-08
-4.79621e-07
-4.72363e-08
-4.75471e-07
-6.10591e-08
-4.70205e-07
-7.49284e-08
-4.63817e-07
-8.87652e-08
-1.025e-07
-3.30145e-07
1.8814e-07
-3.42295e-07
1.84127e-07
-3.54238e-07
1.79757e-07
-3.65953e-07
1.75008e-07
-3.77416e-07
1.6986e-07
-3.88598e-07
1.64295e-07
-3.99472e-07
1.58294e-07
-4.10006e-07
1.51839e-07
-4.20168e-07
1.44911e-07
-4.2992e-07
1.37494e-07
-4.39226e-07
1.29571e-07
-4.48046e-07
1.2113e-07
-4.56336e-07
1.12158e-07
-4.64054e-07
1.02649e-07
-4.71151e-07
9.25961e-08
-4.7758e-07
8.19993e-08
-4.83292e-07
7.0862e-08
-4.88235e-07
5.91929e-08
-4.92359e-07
4.70061e-08
-4.95612e-07
3.43221e-08
-4.97943e-07
2.11677e-08
-4.99302e-07
7.57706e-09
-4.99644e-07
-6.40835e-09
-4.98922e-07
-2.07391e-08
-4.97098e-07
-3.53577e-08
-4.94136e-07
-5.01982e-08
-4.90009e-07
-6.51865e-08
-4.84695e-07
-8.02417e-08
-4.78184e-07
-9.52764e-08
-1.10213e-07
-3.35359e-07
2.00811e-07
-3.47862e-07
1.9663e-07
-3.60178e-07
1.92072e-07
-3.72281e-07
1.87111e-07
-3.84149e-07
1.81727e-07
-3.95753e-07
1.75899e-07
-4.07065e-07
1.69606e-07
-4.18052e-07
1.62826e-07
-4.2868e-07
1.55539e-07
-4.38913e-07
1.47726e-07
-4.48709e-07
1.39368e-07
-4.58028e-07
1.30448e-07
-4.66823e-07
1.20954e-07
-4.75048e-07
1.10874e-07
-4.82652e-07
1.002e-07
-4.89583e-07
8.89302e-08
-4.95786e-07
7.70656e-08
-5.01207e-07
6.46134e-08
-5.05787e-07
5.15867e-08
-5.09471e-07
3.80054e-08
-5.122e-07
2.38967e-08
-5.13918e-07
9.29566e-09
-5.14572e-07
-5.75421e-09
-5.14111e-07
-2.12006e-08
-5.12487e-07
-3.69816e-08
-5.0966e-07
-5.30256e-08
-5.05595e-07
-6.92512e-08
-5.00268e-07
-8.55689e-08
-4.93662e-07
-1.01882e-07
-1.18105e-07
-3.40523e-07
2.13835e-07
-3.53399e-07
2.09506e-07
-3.66106e-07
2.04779e-07
-3.78622e-07
1.99627e-07
-3.9092e-07
1.94026e-07
-4.02976e-07
1.87954e-07
-4.14757e-07
1.81387e-07
-4.26232e-07
1.74301e-07
-4.37366e-07
1.66673e-07
-4.48119e-07
1.58479e-07
-4.58451e-07
1.49699e-07
-4.68316e-07
1.40314e-07
-4.77667e-07
1.30305e-07
-4.86454e-07
1.1966e-07
-4.94621e-07
1.08367e-07
-5.02113e-07
9.64219e-08
-5.0887e-07
8.38225e-08
-5.1483e-07
7.05741e-08
-5.19932e-07
5.66882e-08
-5.2411e-07
4.2184e-08
-5.27302e-07
2.70883e-08
-5.29443e-07
1.1437e-08
-5.30473e-07
-4.72453e-09
-5.30332e-07
-2.13413e-08
-5.28967e-07
-3.83471e-08
-5.26328e-07
-5.5664e-08
-5.22377e-07
-7.32023e-08
-5.17083e-07
-9.08631e-08
-5.10425e-07
-1.0854e-07
-1.26137e-07
-3.45656e-07
2.27228e-07
-3.58923e-07
2.22773e-07
-3.72043e-07
2.179e-07
-3.84994e-07
2.12578e-07
-3.97751e-07
2.06783e-07
-4.10287e-07
2.0049e-07
-4.22571e-07
1.93671e-07
-4.34571e-07
1.86301e-07
-4.4625e-07
1.78351e-07
-4.57568e-07
1.69797e-07
-4.68482e-07
1.60613e-07
-4.78945e-07
1.50777e-07
-4.88906e-07
1.40267e-07
-4.98312e-07
1.29066e-07
-5.07104e-07
1.17159e-07
-5.15221e-07
1.04539e-07
-5.22598e-07
9.11995e-08
-5.29168e-07
7.71441e-08
-5.34861e-07
6.23818e-08
-5.39608e-07
4.69301e-08
-5.43335e-07
3.08155e-08
-5.45972e-07
1.40744e-08
-5.4745e-07
-3.24627e-09
-5.47703e-07
-2.10891e-08
-5.46666e-07
-3.93833e-08
-5.44286e-07
-5.80441e-08
-5.40516e-07
-7.69727e-08
-5.3532e-07
-9.6059e-08
-5.28674e-07
-1.15186e-07
-1.34249e-07
-3.5077e-07
2.41006e-07
-3.64446e-07
2.36449e-07
-3.78e-07
2.31454e-07
-3.91411e-07
2.25988e-07
-4.04653e-07
2.20025e-07
-4.177e-07
2.13537e-07
-4.30521e-07
2.06493e-07
-4.43083e-07
1.98863e-07
-4.55349e-07
1.90617e-07
-4.67277e-07
1.81725e-07
-4.78823e-07
1.72159e-07
-4.89937e-07
1.61891e-07
-5.00567e-07
1.50896e-07
-5.10654e-07
1.39153e-07
-5.20137e-07
1.26642e-07
-5.28948e-07
1.1335e-07
-5.37018e-07
9.92699e-08
-5.44274e-07
8.43999e-08
-5.50639e-07
6.87466e-08
-5.56034e-07
5.23254e-08
-5.60381e-07
3.51619e-08
-5.63599e-07
1.72928e-08
-5.65612e-07
-1.23314e-09
-5.66345e-07
-2.03567e-08
-5.65726e-07
-4.00018e-08
-5.63694e-07
-6.00769e-08
-5.60194e-07
-8.04719e-08
-5.55189e-07
-1.01064e-07
-5.4865e-07
-1.21726e-07
-1.42341e-07
-3.55866e-07
2.55185e-07
-3.6997e-07
2.50553e-07
-3.83979e-07
2.45464e-07
-3.97874e-07
2.39883e-07
-4.11629e-07
2.33781e-07
-4.25218e-07
2.27126e-07
-4.3861e-07
2.19885e-07
-4.51773e-07
2.12026e-07
-4.64669e-07
2.03512e-07
-4.77254e-07
1.94311e-07
-4.89484e-07
1.84389e-07
-5.01306e-07
1.73714e-07
-5.12665e-07
1.62255e-07
-5.235e-07
1.49987e-07
-5.33744e-07
1.36885e-07
-5.43326e-07
1.22932e-07
-5.5217e-07
1.08114e-07
-5.60197e-07
9.24265e-08
-5.67322e-07
7.58718e-08
-5.7346e-07
5.84631e-08
-5.78522e-07
4.02245e-08
-5.82422e-07
2.11929e-08
-5.85074e-07
1.41839e-09
-5.86394e-07
-1.90361e-08
-5.86305e-07
-4.0091e-08
-5.84735e-07
-6.16471e-08
-5.8163e-07
-8.35765e-08
-5.76948e-07
-1.05747e-07
-5.70655e-07
-1.28018e-07
-1.50263e-07
-3.60941e-07
2.6978e-07
-3.7549e-07
2.65102e-07
-3.89976e-07
2.59949e-07
-4.04377e-07
2.54284e-07
-4.18672e-07
2.48076e-07
-4.32835e-07
2.41288e-07
-4.46834e-07
2.33885e-07
-4.60637e-07
2.25829e-07
-4.74206e-07
2.17081e-07
-4.87498e-07
2.07603e-07
-5.00465e-07
1.97356e-07
-5.13055e-07
1.86303e-07
-5.25208e-07
1.74409e-07
-5.3686e-07
1.6164e-07
-5.47942e-07
1.47967e-07
-5.58377e-07
1.33367e-07
-5.68083e-07
1.17821e-07
-5.76975e-07
1.01318e-07
-5.84962e-07
8.38583e-08
-5.91949e-07
6.54504e-08
-5.97842e-07
4.61172e-08
-6.02544e-07
2.58954e-08
-6.05963e-07
4.83709e-09
-6.08008e-07
-1.69913e-08
-6.08595e-07
-3.95034e-08
-6.07652e-07
-6.05117e-07
-6.00944e-07
-5.95101e-07
-3.65985e-07
2.84805e-07
-3.80996e-07
2.80113e-07
-3.95977e-07
2.74931e-07
-4.1091e-07
2.69217e-07
-4.25771e-07
2.62937e-07
-4.40537e-07
2.56054e-07
-4.55178e-07
2.48526e-07
-4.69661e-07
2.40312e-07
-4.83948e-07
2.31368e-07
-4.97996e-07
2.21651e-07
-5.11757e-07
2.11117e-07
-5.25175e-07
1.99722e-07
-5.38191e-07
1.87424e-07
-5.50736e-07
1.74185e-07
-5.62737e-07
1.59969e-07
-5.74115e-07
1.44744e-07
-5.84781e-07
1.28487e-07
-5.94644e-07
1.11181e-07
-6.03606e-07
9.28208e-08
-6.11568e-07
7.34119e-08
-6.18426e-07
5.29754e-08
-6.24079e-07
3.15484e-08
-6.28427e-07
9.18547e-09
-6.3138e-07
-1.40384e-08
-3.80356e-08
-3.7098e-07
3.00273e-07
-3.86469e-07
2.95602e-07
-4.01965e-07
2.90426e-07
-4.1745e-07
2.84702e-07
-4.32904e-07
2.78391e-07
-4.48303e-07
2.71453e-07
-4.63621e-07
2.63843e-07
-4.78823e-07
2.55514e-07
-4.93873e-07
2.46418e-07
-5.08728e-07
2.36506e-07
-5.23339e-07
2.25728e-07
-5.37651e-07
2.14033e-07
-5.516e-07
2.01374e-07
-5.65118e-07
1.87703e-07
-5.78127e-07
1.72978e-07
-5.90544e-07
1.57161e-07
-6.02277e-07
1.4022e-07
-6.13229e-07
1.22133e-07
-6.23297e-07
1.0289e-07
-6.32378e-07
8.24921e-08
-6.40363e-07
6.09602e-08
-6.47147e-07
3.83325e-08
-6.52629e-07
1.46681e-08
-6.56717e-07
-9.95046e-09
-3.54291e-08
-3.75907e-07
3.16195e-07
-3.91887e-07
3.11583e-07
-4.07914e-07
3.06453e-07
-4.23972e-07
3.0076e-07
-4.40043e-07
2.94462e-07
-4.56105e-07
2.87515e-07
-4.72132e-07
2.79869e-07
-4.88092e-07
2.71475e-07
-5.0395e-07
2.62276e-07
-5.19664e-07
2.5222e-07
-5.35184e-07
2.41248e-07
-5.50454e-07
2.29304e-07
-5.65412e-07
2.16331e-07
-5.79986e-07
2.02277e-07
-5.94097e-07
1.87089e-07
-6.07659e-07
1.70722e-07
-6.20576e-07
1.53137e-07
-6.32749e-07
1.34306e-07
-6.44073e-07
1.14213e-07
-6.54439e-07
9.28584e-08
-6.6374e-07
7.02614e-08
-6.71872e-07
4.64642e-08
-6.78736e-07
2.15322e-08
-6.84244e-07
-4.44257e-09
-3.13551e-08
-3.80736e-07
3.3258e-07
-3.9722e-07
3.28067e-07
-4.13793e-07
3.23026e-07
-4.30443e-07
3.1741e-07
-4.47153e-07
3.11172e-07
-4.63905e-07
3.04266e-07
-4.80673e-07
2.96638e-07
-4.9743e-07
2.88231e-07
-5.1414e-07
2.78987e-07
-5.30763e-07
2.68843e-07
-5.47251e-07
2.57736e-07
-5.63549e-07
2.45601e-07
-5.79593e-07
2.32375e-07
-5.95311e-07
2.17995e-07
-6.10624e-07
2.02402e-07
-6.25444e-07
1.85542e-07
-6.39676e-07
1.67369e-07
-6.53218e-07
1.47849e-07
-6.65966e-07
1.26961e-07
-6.77814e-07
1.04706e-07
-6.88657e-07
8.11047e-08
-6.98399e-07
5.62059e-08
-7.06951e-07
3.00846e-08
-7.14239e-07
2.84542e-09
-2.53899e-08
-3.85437e-07
3.49435e-07
-4.02434e-07
3.45064e-07
-4.19566e-07
3.40158e-07
-4.36823e-07
3.34667e-07
-4.54193e-07
3.28542e-07
-4.71659e-07
3.21732e-07
-4.89199e-07
3.14178e-07
-5.06789e-07
3.0582e-07
-5.24394e-07
2.96593e-07
-5.41978e-07
2.86426e-07
-5.59493e-07
2.75251e-07
-5.76887e-07
2.62995e-07
-5.94097e-07
2.49585e-07
-6.11052e-07
2.3495e-07
-6.27674e-07
2.19024e-07
-6.43875e-07
2.01744e-07
-6.59564e-07
1.83058e-07
-6.74642e-07
1.62926e-07
-6.89009e-07
1.41328e-07
-7.02567e-07
1.18264e-07
-7.15222e-07
9.37604e-08
-7.26895e-07
6.78787e-08
-7.37519e-07
4.07083e-08
-7.47042e-07
1.23689e-08
-1.6988e-08
-3.89974e-07
3.66763e-07
-4.0749e-07
3.6258e-07
-4.2519e-07
3.57859e-07
-4.43068e-07
3.52545e-07
-4.61115e-07
3.46589e-07
-4.79317e-07
3.39934e-07
-4.97657e-07
3.32519e-07
-5.16112e-07
3.24276e-07
-5.34655e-07
3.15135e-07
-5.53248e-07
3.0502e-07
-5.7185e-07
2.93853e-07
-5.90409e-07
2.81554e-07
-6.08867e-07
2.68043e-07
-6.27155e-07
2.53239e-07
-6.45199e-07
2.37068e-07
-6.62917e-07
2.19461e-07
-6.8022e-07
2.00361e-07
-6.97021e-07
1.79727e-07
-7.13232e-07
1.57539e-07
-7.28768e-07
1.33801e-07
-7.4356e-07
1.08552e-07
-7.57555e-07
8.18737e-08
-7.70722e-07
5.38744e-08
-7.83063e-07
2.47106e-08
-3.94306e-07
3.84566e-07
-4.12344e-07
3.80618e-07
-4.30619e-07
3.76133e-07
-4.49127e-07
3.71053e-07
-4.67864e-07
3.65326e-07
-4.86821e-07
3.58891e-07
-5.05985e-07
3.51683e-07
-5.25337e-07
3.43629e-07
-5.44855e-07
3.34652e-07
-5.64505e-07
3.2467e-07
-5.84251e-07
3.13599e-07
-6.04045e-07
3.01349e-07
-6.23835e-07
2.87832e-07
-6.43557e-07
2.72961e-07
-6.63143e-07
2.56654e-07
-6.82521e-07
2.38838e-07
-7.01614e-07
2.19454e-07
-7.2035e-07
1.98463e-07
-7.38661e-07
1.7585e-07
-7.56492e-07
1.51631e-07
-7.73803e-07
1.25864e-07
-7.90594e-07
9.86649e-08
-8.069e-07
7.01798e-08
4.05784e-08
-3.98389e-07
4.02839e-07
-4.16948e-07
3.99178e-07
-4.35799e-07
3.94984e-07
-4.54943e-07
3.90197e-07
-4.7438e-07
3.84762e-07
-4.94106e-07
3.78617e-07
-5.14114e-07
3.7169e-07
-5.3439e-07
3.63905e-07
-5.54917e-07
3.55179e-07
-5.75669e-07
3.45423e-07
-5.96614e-07
3.34544e-07
-6.17713e-07
3.22447e-07
-6.38919e-07
3.09038e-07
-6.60179e-07
2.94221e-07
-6.81436e-07
2.77911e-07
-7.0263e-07
2.60033e-07
-7.23707e-07
2.40531e-07
-7.44616e-07
2.19373e-07
-7.65323e-07
1.96557e-07
-7.8581e-07
1.72118e-07
-8.06103e-07
1.46157e-07
-8.26273e-07
-8.46417e-07
-4.02175e-07
4.21577e-07
-4.21251e-07
4.18254e-07
-4.40676e-07
4.14408e-07
-4.60456e-07
4.09977e-07
-4.80596e-07
4.04903e-07
-5.01101e-07
3.99121e-07
-5.21967e-07
3.92557e-07
-5.43189e-07
3.85128e-07
-5.64756e-07
3.76746e-07
-5.8665e-07
3.67316e-07
-6.08847e-07
3.56741e-07
-6.31317e-07
3.44917e-07
-6.54023e-07
3.31744e-07
-6.76928e-07
3.17126e-07
-6.9999e-07
3.00973e-07
-7.23172e-07
2.83215e-07
-7.46446e-07
2.63804e-07
-7.69798e-07
2.42725e-07
-7.93242e-07
2.20001e-07
-8.16827e-07
1.95703e-07
1.69982e-07
-4.05615e-07
4.40766e-07
-4.25197e-07
4.37837e-07
-4.45187e-07
4.34398e-07
-4.65598e-07
4.30388e-07
-4.86441e-07
4.25747e-07
-5.07727e-07
4.20407e-07
-5.2946e-07
4.1429e-07
-5.51644e-07
4.07312e-07
-5.74275e-07
3.99377e-07
-5.97345e-07
3.90386e-07
-6.20841e-07
3.80236e-07
-6.44745e-07
3.68821e-07
-6.69036e-07
3.56036e-07
-6.93694e-07
3.41784e-07
-7.18702e-07
3.25981e-07
-7.44053e-07
3.08566e-07
-7.69758e-07
2.8951e-07
-7.95857e-07
2.68824e-07
-8.22425e-07
2.4657e-07
-8.49589e-07
2.22867e-07
1.9793e-07
-4.08653e-07
4.60391e-07
-4.28726e-07
4.5791e-07
-4.49268e-07
4.5494e-07
-4.70298e-07
4.51418e-07
-4.91836e-07
4.47284e-07
-5.13899e-07
4.42469e-07
-5.36501e-07
4.36893e-07
-5.59655e-07
4.30465e-07
-5.83367e-07
4.23089e-07
-6.07641e-07
4.1466e-07
-6.32476e-07
4.05072e-07
-6.57872e-07
3.94217e-07
-6.83827e-07
3.81991e-07
-7.10345e-07
3.68301e-07
-7.37441e-07
3.53077e-07
-7.65149e-07
3.36274e-07
-7.93532e-07
3.17893e-07
-8.22694e-07
2.97986e-07
-8.52793e-07
2.76668e-07
-8.84047e-07
2.54121e-07
2.30633e-07
-4.11235e-07
4.80429e-07
-4.31777e-07
4.78452e-07
-4.5285e-07
4.76013e-07
-4.74481e-07
4.73049e-07
-4.96697e-07
4.695e-07
-5.19524e-07
4.65297e-07
-5.42989e-07
4.60357e-07
-5.67111e-07
4.54588e-07
-5.91912e-07
4.4789e-07
-6.17408e-07
4.40156e-07
-6.43616e-07
4.3128e-07
-6.70554e-07
4.21155e-07
-6.98245e-07
4.09682e-07
-7.26725e-07
3.96781e-07
-7.56048e-07
3.824e-07
-7.86302e-07
3.66527e-07
-8.17614e-07
3.49205e-07
-8.50168e-07
3.3054e-07
-8.84217e-07
3.10717e-07
-9.20089e-07
2.89994e-07
2.68746e-07
-4.13299e-07
5.00851e-07
-4.34281e-07
4.99435e-07
-4.55858e-07
4.9759e-07
-4.78064e-07
4.95255e-07
-5.00934e-07
4.9237e-07
-5.24505e-07
4.88867e-07
-5.48814e-07
4.84666e-07
-5.73895e-07
4.7967e-07
-5.99782e-07
4.73776e-07
-6.26507e-07
4.66882e-07
-6.54108e-07
4.5888e-07
-6.82626e-07
4.49673e-07
-7.12116e-07
4.39171e-07
-7.4265e-07
4.27315e-07
-7.74334e-07
4.14084e-07
-8.07317e-07
3.99511e-07
-8.41806e-07
3.83693e-07
-8.78079e-07
3.66813e-07
-9.165e-07
3.49138e-07
-9.5752e-07
3.31014e-07
3.12917e-07
-4.14782e-07
5.21624e-07
-4.36169e-07
5.20821e-07
-4.58212e-07
5.19633e-07
-4.80958e-07
5.18e-07
-5.04449e-07
5.15862e-07
-5.28734e-07
5.13152e-07
-5.5386e-07
5.09792e-07
-5.79877e-07
5.05687e-07
-6.06833e-07
5.00732e-07
-6.34781e-07
4.94829e-07
-6.6378e-07
4.8788e-07
-6.93902e-07
4.79795e-07
-7.25239e-07
4.70507e-07
-7.57907e-07
4.59983e-07
-7.9207e-07