/*--------------------------------*- C++ -*----------------------------------*\
  =========                 |
  \\      /  F ield         | OpenFOAM: The Open Source CFD Toolbox
   \\    /   O peration     | Website:  https://openfoam.org
    \\  /    A nd           | Version:  9
     \\/     M anipulation  |
\*---------------------------------------------------------------------------*/
FoamFile
{
    format      ascii;
    class       volVectorField;
    location    "0.5";
    object      U;
}
// * * * * * * * * * * * * * * * * * * * * * * * * * * * * * * * * * * * * * //

dimensions      [0 1 -1 0 0 0 0];

internalField   nonuniform List<vector> 
1250
(
(-0.00203121 2.0168e-05 0)
(-0.00210425 1.9756e-05 0)
(-0.00217564 1.93238e-05 0)
(-0.00224528 1.88543e-05 0)
(-0.002313 1.83359e-05 0)
(-0.00237863 1.77644e-05 0)
(-0.00244199 1.71372e-05 0)
(-0.00250286 1.64515e-05 0)
(-0.00256105 1.57049e-05 0)
(-0.00261635 1.48949e-05 0)
(-0.00266852 1.40194e-05 0)
(-0.00271735 1.30766e-05 0)
(-0.00276259 1.20651e-05 0)
(-0.00280402 1.09838e-05 0)
(-0.00284139 9.8323e-06 0)
(-0.00287447 8.61083e-06 0)
(-0.00290303 7.32023e-06 0)
(-0.00292683 5.96207e-06 0)
(-0.00294567 4.53872e-06 0)
(-0.00295931 3.05333e-06 0)
(-0.00296758 1.51009e-06 0)
(-0.00297029 -8.42532e-08 0)
(-0.00296728 -1.72637e-06 0)
(-0.0029584 -3.40778e-06 0)
(-0.00294354 -5.12201e-06 0)
(-0.00292261 -6.86059e-06 0)
(-0.00289556 -8.61434e-06 0)
(-0.00286234 -1.03733e-05 0)
(-0.00282297 -1.21265e-05 0)
(-0.00277749 -1.38619e-05 0)
(-0.00272599 -1.55661e-05 0)
(-0.0026686 -1.72268e-05 0)
(-0.00260547 -1.88351e-05 0)
(-0.00566573 0.000143495 0)
(-0.00586736 0.000140387 0)
(-0.00606426 0.000137064 0)
(-0.00625606 0.000133465 0)
(-0.00644236 0.000129541 0)
(-0.00662267 0.000125266 0)
(-0.00679651 0.00012062 0)
(-0.00696334 0.000115584 0)
(-0.00712262 0.000110142 0)
(-0.00727378 0.00010428 0)
(-0.00741622 9.79842e-05 0)
(-0.00754936 9.12461e-05 0)
(-0.00767259 8.40581e-05 0)
(-0.00778528 7.64163e-05 0)
(-0.00788682 6.83204e-05 0)
(-0.00797661 5.9774e-05 0)
(-0.00805403 5.07851e-05 0)
(-0.0081185 4.13662e-05 0)
(-0.00816946 3.15352e-05 0)
(-0.00820638 2.13145e-05 0)
(-0.00822874 1.0732e-05 0)
(-0.00823611 -1.78456e-07 0)
(-0.00822808 -1.13712e-05 0)
(-0.00820427 -2.28092e-05 0)
(-0.00816443 -3.44433e-05 0)
(-0.00810833 -4.62192e-05 0)
(-0.00803584 -5.80782e-05 0)
(-0.00794689 -6.9957e-05 0)
(-0.00784152 -8.17869e-05 0)
(-0.00771984 -9.34932e-05 0)
(-0.0075821 -0.000104997 0)
(-0.00742862 -0.00011622 0)
(-0.00725982 -0.000127099 0)
(-0.00891095 0.000408768 0)
(-0.00922548 0.000399665 0)
(-0.00953237 0.000389879 0)
(-0.00983105 0.00037929 0)
(-0.0101209 0.000367797 0)
(-0.0104011 0.00035533 0)
(-0.010671 0.000341833 0)
(-0.0109298 0.000327256 0)
(-0.0111765 0.000311556 0)
(-0.0114105 0.000294694 0)
(-0.0116307 0.000276639 0)
(-0.0118362 0.000257368 0)
(-0.0120262 0.000236864 0)
(-0.0121998 0.00021512 0)
(-0.0123559 0.000192138 0)
(-0.0124938 0.000167933 0)
(-0.0126124 0.000142529 0)
(-0.012711 0.000115964 0)
(-0.0127887 8.82903e-05 0)
(-0.0128447 5.95724e-05 0)
(-0.0128783 2.98883e-05 0)
(-0.0128888 -6.70134e-07 0)
(-0.0128757 -3.19757e-05 0)
(-0.0128384 -6.39255e-05 0)
(-0.0127766 -9.63837e-05 0)
(-0.0126899 -0.000129202 0)
(-0.0125782 -0.000162222 0)
(-0.0124414 -0.000195271 0)
(-0.0122795 -0.000228166 0)
(-0.0120929 -0.000260709 0)
(-0.0118818 -0.000292688 0)
(-0.0116467 -0.000323895 0)
(-0.0113883 -0.00035415 0)
(-0.0118028 0.000781535 0)
(-0.0122161 0.000763756 0)
(-0.0126192 0.000744602 0)
(-0.0130111 0.000723888 0)
(-0.013391 0.000701459 0)
(-0.0137581 0.000677193 0)
(-0.0141113 0.000650988 0)
(-0.0144495 0.000622752 0)
(-0.0147717 0.000592409 0)
(-0.0150768 0.000559892 0)
(-0.0153636 0.000525147 0)
(-0.015631 0.000488133 0)
(-0.0158778 0.000448825 0)
(-0.0161029 0.000407215 0)
(-0.0163051 0.000363312 0)
(-0.0164832 0.000317148 0)
(-0.0166361 0.000268775 0)
(-0.0167627 0.000218268 0)
(-0.016862 0.000165728 0)
(-0.0169331 0.00011128 0)
(-0.0169749 5.50759e-05 0)
(-0.0169867 -2.7069e-06 0)
(-0.0169678 -6.18567e-05 0)
(-0.0169176 -0.000122154 0)
(-0.0168356 -0.000183349 0)
(-0.0167215 -0.000245166 0)
(-0.016575 -0.000307312 0)
(-0.0163961 -0.000369472 0)
(-0.016185 -0.00043131 0)
(-0.015942 -0.000492462 0)
(-0.0156674 -0.000552543 0)
(-0.0153621 -0.000611164 0)
(-0.0150267 -0.000667989 0)
(-0.0143751 0.00124622 0)
(-0.0148747 0.00121732 0)
(-0.0153615 0.00118616 0)
(-0.0158346 0.00115247 0)
(-0.0162929 0.00111606 0)
(-0.0167352 0.00107674 0)
(-0.0171603 0.00103436 0)
(-0.017567 0.000988787 0)
(-0.017954 0.000939903 0)
(-0.0183201 0.000887609 0)
(-0.0186638 0.000831828 0)
(-0.0189838 0.000772504 0)
(-0.0192787 0.000709602 0)
(-0.0195472 0.000643119 0)
(-0.0197879 0.000573076 0)
(-0.0199993 0.000499529 0)
(-0.0201803 0.000422568 0)
(-0.0203296 0.000342317 0)
(-0.0204459 0.000258941 0)
(-0.0205282 0.000172643 0)
(-0.0205754 8.36635e-05 0)
(-0.0205866 -7.71243e-06 0)
(-0.0205609 -0.000101169 0)
(-0.0204978 -0.000196342 0)
(-0.0203967 -0.00029284 0)
(-0.0202573 -0.000390236 0)
(-0.0200793 -0.000488072 0)
(-0.0198627 -0.000585864 0)
(-0.0196078 -0.000683096 0)
(-0.0193149 -0.00077921 0)
(-0.0189846 -0.000873611 0)
(-0.0186178 -0.00096569 0)
(-0.0182154 -0.00105492 0)
(-0.0166597 0.00179237 0)
(-0.0172346 0.00175006 0)
(-0.0177945 0.00170442 0)
(-0.0183381 0.00165511 0)
(-0.0188642 0.00160188 0)
(-0.0193716 0.00154449 0)
(-0.0198589 0.00148273 0)
(-0.0203246 0.00141642 0)
(-0.0207673 0.00134541 0)
(-0.0211856 0.00126957 0)
(-0.0215777 0.00118878 0)
(-0.0219424 0.00110299 0)
(-0.0222779 0.00101215 0)
(-0.0225827 0.000916263 0)
(-0.0228553 0.000815376 0)
(-0.0230943 0.000709575 0)
(-0.0232981 0.000598994 0)
(-0.0234653 0.000483822 0)
(-0.0235946 0.000364298 0)
(-0.0236849 0.000240717 0)
(-0.0237348 0.000113429 0)
(-0.0237436 -1.71605e-05 0)
(-0.0237102 -0.000150595 0)
(-0.023634 -0.00028636 0)
(-0.0235145 -0.000423893 0)
(-0.0233512 -0.000562591 0)
(-0.0231441 -0.000701809 0)
(-0.0228932 -0.000840867 0)
(-0.0225987 -0.000979053 0)
(-0.0222611 -0.0011156 0)
(-0.021881 -0.00124966 0)
(-0.0214595 -0.00138037 0)
(-0.0209978 -0.00150696 0)
(-0.0186868 0.00240976 0)
(-0.0193274 0.00235193 0)
(-0.0199508 0.00228954 0)
(-0.0205558 0.00222219 0)
(-0.0211409 0.00214955 0)
(-0.0217047 0.00207133 0)
(-0.0222457 0.00198727 0)
(-0.0227623 0.00189714 0)
(-0.0232528 0.00180075 0)
(-0.0237157 0.00169794 0)
(-0.0241492 0.00158857 0)
(-0.0245517 0.00147256 0)
(-0.0249215 0.00134988 0)
(-0.0252568 0.00122054 0)
(-0.025556 0.00108461 0)
(-0.0258175 0.000942215 0)
(-0.0260397 0.000793546 0)
(-0.026221 0.000638863 0)
(-0.0263601 0.000478495 0)
(-0.0264555 0.000312843 0)
(-0.0265062 0.000142379 0)
(-0.0265111 -3.23494e-05 0)
(-0.0264691 -0.000210728 0)
(-0.0263797 -0.000392071 0)
(-0.0262422 -0.000575628 0)
(-0.0260563 -0.000760592 0)
(-0.025822 -0.00094611 0)
(-0.0255392 -0.00113129 0)
(-0.0252084 -0.00131522 0)
(-0.02483 -0.00149689 0)
(-0.0244049 -0.00167518 0)
(-0.0239342 -0.00184885 0)
(-0.0234193 -0.00201697 0)
(-0.0204846 0.00308927 0)
(-0.0211826 0.00301402 0)
(-0.0218615 0.00293283 0)
(-0.0225199 0.00284522 0)
(-0.0231564 0.00275082 0)
(-0.0237692 0.00264928 0)
(-0.0243568 0.00254028 0)
(-0.0249173 0.00242355 0)
(-0.0254492 0.00229885 0)
(-0.0259505 0.00216599 0)
(-0.0264195 0.00202482 0)
(-0.0268544 0.00187524 0)
(-0.0272532 0.00171723 0)
(-0.0276143 0.00155081 0)
(-0.0279357 0.00137609 0)
(-0.0282158 0.00119323 0)
(-0.0284529 0.00100249 0)
(-0.0286453 0.000804222 0)
(-0.0287915 0.000598844 0)
(-0.0288902 0.000386879 0)
(-0.02894 0.000168936 0)
(-0.0289398 -5.42812e-05 0)
(-0.0288888 -0.000281985 0)
(-0.028786 -0.000513297 0)
(-0.0286311 -0.000747261 0)
(-0.0284236 -0.000982847 0)
(-0.0281636 -0.00121897 0)
(-0.0278511 -0.00145451 0)
(-0.0274866 -0.00168835 0)
(-0.0270706 -0.00191917 0)
(-0.0266041 -0.00214549 0)
(-0.0260884 -0.00236595 0)
(-0.0255252 -0.00257925 0)
(-0.0220794 0.00382316 0)
(-0.0228278 0.00372878 0)
(-0.0235553 0.00362693 0)
(-0.0242606 0.0035171 0)
(-0.024942 0.00339883 0)
(-0.0255977 0.00327172 0)
(-0.026226 0.00313541 0)
(-0.026825 0.00298957 0)
(-0.0273928 0.00283393 0)
(-0.0279275 0.00266827 0)
(-0.0284273 0.00249241 0)
(-0.0288901 0.00230626 0)
(-0.029314 0.00210979 0)
(-0.0296971 0.00190304 0)
(-0.0300374 0.00168616 0)
(-0.0303332 0.00145938 0)
(-0.0305825 0.00122301 0)
(-0.0307838 0.0009775 0)
(-0.0309354 0.00072338 0)
(-0.0310358 0.000461302 0)
(-0.0310837 0.000192026 0)
(-0.031078 -8.35766e-05 0)
(-0.0310176 -0.000364527 0)
(-0.0309018 -0.00064974 0)
(-0.03073 -0.000938035 0)
(-0.0305019 -0.00122814 0)
(-0.0302176 -0.00151871 0)
(-0.0298772 -0.0018084 0)
(-0.029481 -0.00209573 0)
(-0.02903 -0.00237928 0)
(-0.0285253 -0.00265726 0)
(-0.0234957 0.00460493 0)
(-0.0242886 0.00448988 0)
(-0.0250591 0.00436575 0)
(-0.0258058 0.00423193 0)
(-0.0265269 0.00408791 0)
(-0.0272205 0.00393325 0)
(-0.0278848 0.00376751 0)
(-0.0285177 0.00359035 0)
(-0.0291173 0.00340142 0)
(-0.0296816 0.0032005 0)
(-0.0302085 0.00298737 0)
(-0.0306959 0.00276195 0)
(-0.0311419 0.00252422 0)
(-0.0315443 0.00227423 0)
(-0.0319012 0.00201218 0)
(-0.0322105 0.00173834 0)
(-0.0324704 0.00145313 0)
(-0.0326792 0.00115708 0)
(-0.032835 0.000850846 0)
(-0.0329365 0.000535212 0)
(-0.0329821 0.000211104 0)
(-0.0329706 -0.000120425 0)
(-0.0329011 -0.000458192 0)
(-0.0327726 -0.00080089 0)
(-0.0325848 -0.0011471 0)
(-0.0323372 -0.00149528 0)
(-0.03203 -0.00184382 0)
(-0.0316632 -0.00219103 0)
(-0.0312375 -0.00253531 0)
(-0.0247561 0.00542916 0)
(-0.0255886 0.00529212 0)
(-0.0263976 0.00514427 0)
(-0.0271813 0.00498493 0)
(-0.027938 0.00481354 0)
(-0.0286656 0.00462957 0)
(-0.0293622 0.00443256 0)
(-0.0300257 0.0042221 0)
(-0.0306539 0.00399782 0)
(-0.0312449 0.00375945 0)
(-0.0317963 0.00350677 0)
(-0.0323061 0.00323968 0)
(-0.0327721 0.00295816 0)
(-0.0331921 0.00266232 0)
(-0.033564 0.00235237 0)
(-0.0338857 0.00202867 0)
(-0.0341554 0.00169171 0)
(-0.0343709 0.00134211 0)
(-0.0345307 0.000980668 0)
(-0.034633 0.000608318 0)
(-0.0346763 0.000226155 0)
(-0.0346595 -0.000164574 0)
(-0.0345814 -0.000562469 0)
(-0.0344412 -0.000965984 0)
(-0.0342383 -0.00137344 0)
(-0.0339724 -0.00178302 0)
(-0.0336435 -0.00219281 0)
(-0.033252 -0.00260079 0)
(-0.0327983 -0.00300512 0)
(-0.0258814 0.00629146 0)
(-0.0267498 0.00613131 0)
(-0.0275936 0.00595854 0)
(-0.028411 0.00577237 0)
(-0.0292001 0.00557219 0)
(-0.0299588 0.00535742 0)
(-0.030685 0.00512754 0)
(-0.0313765 0.00488207 0)
(-0.0320313 0.00462063 0)
(-0.032647 0.00434289 0)
(-0.0332213 0.00404864 0)
(-0.0337521 0.00373774 0)
(-0.0342369 0.00341021 0)
(-0.0346736 0.00306616 0)
(-0.03506 0.00270586 0)
(-0.0353937 0.00232972 0)
(-0.0356728 0.00193833 0)
(-0.0358953 0.00153242 0)
(-0.0360592 0.00111292 0)
(-0.0361629 0.000680906 0)
(-0.0362047 0.000237667 0)
(-0.0361833 -0.000215347 0)
(-0.0360976 -0.000676506 0)
(-0.0359466 -0.00114401 0)
(-0.0357298 -0.0016159 0)
(-0.0354468 -0.00209007 0)
(-0.0350977 -0.00256428 0)
(-0.0346827 -0.00303617 0)
(-0.0342025 -0.00350367 0)
(-0.0268906 0.00718837 0)
(-0.027792 0.0070042 0)
(-0.0286679 0.00680552 0)
(-0.0295164 0.00659145 0)
(-0.0303356 0.00636131 0)
(-0.0311234 0.00611448 0)
(-0.0318774 0.00585036 0)
(-0.0325956 0.00556843 0)
(-0.0332755 0.00526826 0)
(-0.0339149 0.0049495 0)
(-0.0345113 0.00461189 0)
(-0.0350625 0.00425531 0)
(-0.0355659 0.00387975 0)
(-0.0360192 0.00348538 0)
(-0.0364201 0.0030725 0)
(-0.0367662 0.00264159 0)
(-0.0370554 0.00219331 0)
(-0.0372854 0.00172852 0)
(-0.0374544 0.00124826 0)
(-0.0375604 0.000753802 0)
(-0.0376018 0.000246604 0)
(-0.0375771 -0.000271664 0)
(-0.037485 -0.00079913 0)
(-0.0373247 -0.00133373 0)
(-0.0370953 -0.0018732 0)
(-0.0367967 -0.00241513 0)
(-0.0364287 -0.00295693 0)
(-0.0359915 -0.0034959 0)
(-0.0354858 -0.0040297 0)
(-0.0278011 0.00811727 0)
(-0.0287333 0.0079084 0)
(-0.0296393 0.00768302 0)
(-0.0305173 0.0074402 0)
(-0.0313652 0.00717917 0)
(-0.0321808 0.00689924 0)
(-0.0329617 0.00659977 0)
(-0.0337057 0.00628017 0)
(-0.0344103 0.00593996 0)
(-0.0350731 0.00557874 0)
(-0.0356916 0.00519625 0)
(-0.0362633 0.00479233 0)
(-0.0367857 0.00436699 0)
(-0.0372563 0.00392039 0)
(-0.0376725 0.0034529 0)
(-0.038032 0.00296505 0)
(-0.0383324 0.00245759 0)
(-0.0385714 0.00193148 0)
(-0.0387468 0.00138792 0)
(-0.0388566 0.000828324 0)
(-0.0388992 0.000254361 0)
(-0.0388727 -0.000332079 0)
(-0.038776 -0.000928869 0)
(-0.0386078 -0.00153366 0)
(-0.0383675 -0.00214389 0)
(-0.0380546 -0.0027568 0)
(-0.037669 -0.00336946 0)
(-0.037211 -0.00397879 0)
(-0.036681 -0.00458214 0)
(-0.0286284 0.00907631 0)
(-0.02959 0.00884224 0)
(-0.0305249 0.00858963 0)
(-0.0314314 0.00831742 0)
(-0.0323073 0.0080248 0)
(-0.0331501 0.00771099 0)
(-0.0339577 0.00737528 0)
(-0.0347274 0.00701703 0)
(-0.0354569 0.0066357 0)
(-0.0361435 0.00623084 0)
(-0.0367848 0.00580215 0)
(-0.0373779 0.00534946 0)
(-0.0379204 0.00487276 0)
(-0.0384095 0.00437224 0)
(-0.0388425 0.00384829 0)
(-0.039217 0.00330149 0)
(-0.0395303 0.00273268 0)
(-0.03978 0.00214294 0)
(-0.0399638 0.0015336 0)
(-0.0400795 0.000906244 0)
(-0.0401251 0.000262734 0)
(-0.040099 -0.000394801 0)
(-0.0399994 -0.00106397 0)
(-0.0398253 -0.00174214 0)
(-0.0395758 -0.0024264 0)
(-0.0392502 -0.00311366 0)
(-0.0388484 -0.00380059 0)
(-0.0383706 -0.00448371 0)
(-0.0378173 -0.00516006 0)
(-0.0293865 0.0100643 0)
(-0.0303766 0.00980477 0)
(-0.03134 0.0095246 0)
(-0.0322746 0.00922261 0)
(-0.0331783 0.00889791 0)
(-0.0340486 0.00854966 0)
(-0.0348831 0.00817707 0)
(-0.0356792 0.00777943 0)
(-0.0364344 0.00735613 0)
(-0.0371459 0.00690667 0)
(-0.0378111 0.00643069 0)
(-0.0384272 0.00592799 0)
(-0.0389914 0.00539856 0)
(-0.0395008 0.00484258 0)
(-0.0399527 0.00426046 0)
(-0.0403442 0.00365284 0)
(-0.0406727 0.00302064 0)
(-0.0409355 0.00236503 0)
(-0.04113 0.00168748 0)
(-0.041254 0.000989741 0)
(-0.0413051 0.000273884 0)
(-0.0412815 -0.00045773 0)
(-0.0411814 -0.00120244 0)
(-0.0410034 -0.00195728 0)
(-0.0407464 -0.00271902 0)
(-0.0404098 -0.00348417 0)
(-0.0399934 -0.00424901 0)
(-0.039497 -0.00500963 0)
(-0.0389212 -0.00576268 0)
(-0.0300878 0.0110806 0)
(-0.0311063 0.0107956 0)
(-0.0320981 0.0104878 0)
(-0.0330611 0.0101558 0)
(-0.033993 0.0097988 0)
(-0.0348914 0.00941578 0)
(-0.0357538 0.0090059 0)
(-0.0365774 0.00856836 0)
(-0.0373596 0.00810246 0)
(-0.0380977 0.00760765 0)
(-0.0387886 0.0070835 0)
(-0.0394297 0.00652977 0)
(-0.0400177 0.00594641 0)
(-0.0405499 0.0053336 0)
(-0.0410231 0.00469175 0)
(-0.0414343 0.00402155 0)
(-0.0417807 0.00332398 0)
(-0.0420593 0.00260031 0)
(-0.0422673 0.00185214 0)
(-0.0424023 0.00108138 0)
(-0.0424616 0.00029031 0)
(-0.0424431 -0.000518466 0)
(-0.0423449 -0.001342 0)
(-0.0421653 -0.00217701 0)
(-0.0419031 -0.00301989 0)
(-0.0415572 -0.00386676 0)
(-0.0411275 -0.00471345 0)
(-0.0406136 -0.00555557 0)
(-0.0400162 -0.00638937 0)
(-0.0307434 0.0121251 0)
(-0.0317905 0.0118149 0)
(-0.0328111 0.0114795 0)
(-0.0338032 0.0111177 0)
(-0.0347643 0.0107283 0)
(-0.035692 0.0103104 0)
(-0.0365835 0.00986305 0)
(-0.0374363 0.00938532 0)
(-0.0382474 0.00887644 0)
(-0.039014 0.00833574 0)
(-0.039733 0.00776275 0)
(-0.0404015 0.00715714 0)
(-0.0410161 0.00651883 0)
(-0.0415738 0.00584796 0)
(-0.0420713 0.00514495 0)
(-0.0425053 0.00441051 0)
(-0.0428727 0.00364567 0)
(-0.0431703 0.00285178 0)
(-0.0433951 0.00203055 0)
(-0.0435441 0.00118408 0)
(-0.0436147 0.000314841 0)
(-0.0436044 -0.000574325 0)
(-0.0435108 -0.00148017 0)
(-0.0433321 -0.00239907 0)
(-0.0430667 -0.00332705 0)
(-0.0427136 -0.00425977 0)
(-0.0422721 -0.00519259 0)
(-0.0417419 -0.00612062 0)
(-0.0411234 -0.00703964 0)
(-0.0313626 0.0131984 0)
(-0.032439 0.0128632 0)
(-0.0334894 0.0125006 0)
(-0.0345117 0.0121091 0)
(-0.0355033 0.0116876 0)
(-0.0364618 0.011235 0)
(-0.0373844 0.0107502 0)
(-0.0382683 0.0102323 0)
(-0.0391106 0.00968024 0)
(-0.0399083 0.00909336 0)
(-0.0406581 0.00847104 0)
(-0.0413568 0.0078129 0)
(-0.0420012 0.00711879 0)
(-0.0425876 0.00638879 0)
(-0.0431127 0.0056233 0)
(-0.043573 0.00482304 0)
(-0.043965 0.00398907 0)
(-0.0442852 0.0031228 0)
(-0.0445303 0.00222608 0)
(-0.044697 0.00130113 0)
(-0.0447823 0.000350628 0)
(-0.0447832 -0.00062233 0)
(-0.0446973 -0.0016142 0)
(-0.0445223 -0.002621 0)
(-0.0442562 -0.00363834 0)
(-0.0438978 -0.00466142 0)
(-0.0434462 -0.0056851 0)
(-0.0429008 -0.0067039 0)
(-0.0422619 -0.00771312 0)
(-0.0319541 0.014301 0)
(-0.0330608 0.0139416 0)
(-0.0341422 0.0135523 0)
(-0.035196 0.0131316 0)
(-0.0362198 0.0126784 0)
(-0.0372109 0.0121915 0)
(-0.0381667 0.0116696 0)
(-0.0390842 0.0111116 0)
(-0.0399603 0.0105165 0)
(-0.0407919 0.00988329 0)
(-0.0415756 0.0092114 0)
(-0.042308 0.00850027 0)
(-0.0429855 0.00774966 0)
(-0.0436044 0.00695961 0)
(-0.0441609 0.00613045 0)
(-0.0446514 0.00526287 0)
(-0.0450719 0.00435795 0)
(-0.0454187 0.00341717 0)
(-0.0456881 0.00244245 0)
(-0.0458763 0.00143616 0)
(-0.04598 0.00040116 0)
(-0.0459959 -0.000659198 0)
(-0.0459209 -0.00174107 0)
(-0.0457525 -0.00284009 0)
(-0.0454885 -0.00395145 0)
(-0.045127 -0.00506984 0)
(-0.044667 -0.00618955 0)
(-0.0441077 -0.0073045 0)
(-0.0434491 -0.00840943 0)
(-0.0313649 0.0157873 0)
(-0.0325251 0.0154342 0)
(-0.0336633 0.0150513 0)
(-0.0347768 0.0146359 0)
(-0.0358639 0.0141868 0)
(-0.0369218 0.0137026 0)
(-0.0379478 0.013182 0)
(-0.0389393 0.0126235 0)
(-0.039893 0.0120259 0)
(-0.040806 0.011388 0)
(-0.0416747 0.0107087 0)
(-0.0424957 0.0099872 0)
(-0.0432654 0.00922282 0)
(-0.0439799 0.00841523 0)
(-0.0446353 0.00756433 0)
(-0.0452275 0.00667042 0)
(-0.0457524 0.00573412 0)
(-0.0462058 0.00475649 0)
(-0.0465836 0.00373905 0)
(-0.0468815 0.00268378 0)
(-0.0470956 0.00159318 0)
(-0.0472219 0.00047029 0)
(-0.0472566 -0.0006813 0)
(-0.0471964 -0.00185743 0)
(-0.047038 -0.00305335 0)
(-0.0467789 -0.00426379 0)
(-0.0464169 -0.0054829 0)
(-0.0459505 -0.00670436 0)
(-0.0453787 -0.00792143 0)
(-0.0447011 -0.00912821 0)
(-0.0318893 0.0169723 0)
(-0.0330814 0.0165991 0)
(-0.0342521 0.0161934 0)
(-0.0353997 0.0157531 0)
(-0.0365218 0.0152766 0)
(-0.037616 0.0147624 0)
(-0.0386795 0.014209 0)
(-0.0397093 0.0136148 0)
(-0.0407024 0.0129783 0)
(-0.0416554 0.0122982 0)
(-0.0425648 0.0115731 0)
(-0.0434269 0.0108022 0)
(-0.0442379 0.0099845 0)
(-0.0449936 0.0091196 0)
(-0.0456899 0.00820726 0)
(-0.0463223 0.00724764 0)
(-0.0468863 0.00624131 0)
(-0.0473774 0.00518927 0)
(-0.047791 0.00409302 0)
(-0.0481224 0.00295461 0)
(-0.048367 0.00177663 0)
(-0.0485205 0.00056228 0)
(-0.0485784 -0.000684607 0)
(-0.048537 -0.00195956 0)
(-0.0483925 -0.00325744 0)
(-0.0481417 -0.00457246 0)
(-0.047782 -0.0058982 0)
(-0.0473117 -0.0072277 0)
(-0.046729 -0.00855344 0)
(-0.0460337 -0.00986887 0)
(-0.0324021 0.0181892 0)
(-0.033627 0.0177967 0)
(-0.0348321 0.0173697 0)
(-0.0360156 0.0169057 0)
(-0.0371751 0.0164032 0)
(-0.0383081 0.0158603 0)
(-0.0394116 0.0152753 0)
(-0.0404828 0.0146465 0)
(-0.0415185 0.0139721 0)
(-0.042515 0.0132505 0)
(-0.0434689 0.0124803 0)
(-0.0443762 0.0116604 0)
(-0.0452328 0.0107896 0)
(-0.0460343 0.00986728 0)
(-0.0467762 0.00889306 0)
(-0.0474538 0.00786695 0)
(-0.0480621 0.00678938 0)
(-0.0485961 0.00566128 0)
(-0.0490507 0.00448412 0)
(-0.0494208 0.00325993 0)
(-0.0497012 0.0019914 0)
(-0.049887 0.000681867 0)
(-0.0499731 -0.000664614 0)
(-0.0499552 -0.00204326 0)
(-0.0498288 -0.00344852 0)
(-0.0495902 -0.00487409 0)
(-0.0492364 -0.00631291 0)
(-0.0487649 -0.00775729 0)
(-0.0481738 -0.00919891 0)
(-0.0474623 -0.0106305 0)
(-0.0329062 0.019439 0)
(-0.0341657 0.0190289 0)
(-0.0354071 0.0185821 0)
(-0.0366285 0.0180961 0)
(-0.0378278 0.0175691 0)
(-0.0390021 0.016999 0)
(-0.0401486 0.0163839 0)
(-0.0412644 0.0157217 0)
(-0.0423461 0.0150106 0)
(-0.04339 0.0142487 0)
(-0.0443925 0.0134344 0)
(-0.0453493 0.0125661 0)
(-0.0462562 0.0116427 0)
(-0.0471084 0.0106631 0)
(-0.0479011 0.0096268 0)
(-0.0486291 0.00853358 0)
(-0.0492872 0.00738372 0)
(-0.0498698 0.00617802 0)
(-0.0503713 0.00491786 0)
(-0.0507859 0.00360526 0)
(-0.0511079 0.00224294 0)
(-0.0513317 0.000834352 0)
(-0.0514516 -0.000616234 0)
(-0.0514624 -0.00210373 0)
(-0.0513593 -0.00362218 0)
(-0.0511376 -0.0051647 0)
(-0.0507937 -0.00672355 0)
(-0.0503248 -0.00829022 0)
(-0.0497283 -0.00985553 0)
(-0.0490032 -0.0114113 0)
(-0.0334045 0.0207234 0)
(-0.0347002 0.0202975 0)
(-0.0359798 0.0198327 0)
(-0.0372415 0.0193265 0)
(-0.0384829 0.0187768 0)
(-0.0397013 0.0181812 0)
(-0.0408939 0.0175377 0)
(-0.0420576 0.016844 0)
(-0.0431889 0.0160977 0)
(-0.0442842 0.015297 0)
(-0.0453396 0.0144397 0)
(-0.0463506 0.0135241 0)
(-0.0473126 0.0125487 0)
(-0.0482208 0.0115123 0)
(-0.0490698 0.0104139 0)
(-0.0498542 0.00925322 0)
(-0.0505681 0.0080302 0)
(-0.0512056 0.00674549 0)
(-0.0517602 0.00540034 0)
(-0.0522258 0.00399671 0)
(-0.0525959 0.00253731 0)
(-0.0528641 0.00102571 0)
(-0.0530241 -0.000533655 0)
(-0.05307 -0.00213541 0)
(-0.0529959 -0.00377315 0)
(-0.0527968 -0.00543941 0)
(-0.0524682 -0.00712568 0)
(-0.0520067 -0.00882254 0)
(-0.0514094 -0.0105199 0)
(-0.0506747 -0.0122086 0)
(-0.0338988 0.0220439 0)
(-0.0352326 0.0216042 0)
(-0.0365524 0.0211236 0)
(-0.0378564 0.0205993 0)
(-0.0391425 0.0200289 0)
(-0.0404078 0.0194101 0)
(-0.0416496 0.0187402 0)
(-0.0428647 0.0180168 0)
(-0.0440496 0.0172373 0)
(-0.0452004 0.0163995 0)
(-0.0463131 0.0155008 0)
(-0.0473832 0.0145393 0)
(-0.0484057 0.013513 0)
(-0.0493755 0.0124204 0)
(-0.0502869 0.0112604 0)
(-0.0511338 0.010032 0)
(-0.0519102 0.00873519 0)
(-0.0526092 0.00737026 0)
(-0.0532241 0.00593828 0)
(-0.0537479 0.00444109 0)
(-0.0541733 0.00288138 0)
(-0.0544933 0.00126276 0)
(-0.0547007 -0.000410152 0)
(-0.0547888 -0.0021317 0)
(-0.0547511 -0.00389508 0)
(-0.0545815 -0.00569217 0)
(-0.054275 -0.00751357 0)
(-0.0538276 -0.00934886 0)
(-0.0532358 -0.0111869 0)
(-0.0524978 -0.0130176 0)
(-0.0343903 0.023402 0)
(-0.0357638 0.0229509 0)
(-0.0371257 0.0224568 0)
(-0.0384745 0.0219167 0)
(-0.0398078 0.0213282 0)
(-0.0411229 0.0206884 0)
(-0.0424171 0.0199946 0)
(-0.0436872 0.0192439 0)
(-0.0449295 0.0184335 0)
(-0.0461403 0.0175606 0)
(-0.0473151 0.0166226 0)
(-0.0484494 0.0156168 0)
(-0.049538 0.0145411 0)
(-0.0505753 0.0133935 0)
(-0.0515554 0.0121724 0)
(-0.0524718 0.0108767 0)
(-0.0533177 0.00950571 0)
(-0.0540858 0.0080596 0)
(-0.0547688 0.00653917 0)
(-0.0553587 0.00494607 0)
(-0.0558478 0.00328291 0)
(-0.056228 0.00155334 0)
(-0.0564914 -0.000237859 0)
(-0.0566305 -0.00208476 0)
(-0.0566379 -0.0039802 0)
(-0.0565067 -0.00591535 0)
(-0.0562312 -0.00787969 0)
(-0.0558071 -0.00986167 0)
(-0.0552302 -0.0118491 0)
(-0.0544985 -0.0138308 0)
(-0.0348792 0.0247995 0)
(-0.0362941 0.0243394 0)
(-0.0377002 0.0238345 0)
(-0.0390958 0.0232814 0)
(-0.0404789 0.0226774 0)
(-0.0418469 0.0220195 0)
(-0.0431967 0.0213045 0)
(-0.0445254 0.0205292 0)
(-0.0458293 0.0196905 0)
(-0.0471045 0.0187852 0)
(-0.0483464 0.01781 0)
(-0.0495504 0.0167622 0)
(-0.0507109 0.015639 0)
(-0.0518222 0.0144379 0)
(-0.0528778 0.0131569 0)
(-0.0538709 0.0117944 0)
(-0.0547941 0.0103494 0)
(-0.0556397 0.00882156 0)
(-0.0563994 0.00721138 0)
(-0.0570647 0.00552031 0)
(-0.0576268 0.00375084 0)
(-0.0580771 0.00190663 0)
(-0.0584068 -7.39318e-06 0)
(-0.0586075 -0.00198509 0)
(-0.0586709 -0.00401887 0)
(-0.0585892 -0.00609878 0)
(-0.0583569 -0.00821334 0)
(-0.0579687 -0.0103497 0)
(-0.0574202 -0.0124945 0)
(-0.0567094 -0.0146356 0)
(-0.0353652 0.0262378 0)
(-0.0368231 0.0257716 0)
(-0.0382752 0.0252587 0)
(-0.0397201 0.0246956 0)
(-0.0411555 0.0240792 0)
(-0.0425791 0.0234063 0)
(-0.0439879 0.0226732 0)
(-0.0453789 0.0218766 0)
(-0.0467485 0.0210126 0)
(-0.0480927 0.0200778 0)
(-0.0494069 0.0190686 0)
(-0.0506861 0.0179814 0)
(-0.0519248 0.016813 0)
(-0.0531167 0.0155605 0)
(-0.0542553 0.0142213 0)
(-0.055333 0.0127932 0)
(-0.0563422 0.0112747 0)
(-0.0572743 0.00966505 0)
(-0.0581205 0.00796437 0)
(-0.0588715 0.00617378 0)
(-0.0595179 0.00429561 0)
(-0.06005 0.00233355 0)
(-0.0604584 0.000292646 0)
(-0.060734 -0.00182065 0)
(-0.0608668 -0.0039977 0)
(-0.060851 -0.0062287 0)
(-0.0606785 -0.00849989 0)
(-0.0603444 -0.0107974 0)
(-0.0598438 -0.0131067 0)
(-0.0591751 -0.0154146 0)
(-0.0358473 0.0277185 0)
(-0.0373498 0.0272492 0)
(-0.0388497 0.0267316 0)
(-0.0403459 0.0261618 0)
(-0.0418362 0.0255364 0)
(-0.0433182 0.0248519 0)
(-0.0447893 0.0241044 0)
(-0.0462464 0.0232899 0)
(-0.0476859 0.0224043 0)
(-0.0491038 0.0214436 0)
(-0.0504955 0.0204036 0)
(-0.0518559 0.0192802 0)
(-0.0531791 0.0180697 0)
(-0.0544589 0.0167685 0)
(-0.0556882 0.0153734 0)
(-0.0568592 0.0138815 0)
(-0.0579636 0.0122908 0)
(-0.0589924 0.0106001 0)
(-0.0599361 0.00880886 0)
(-0.0607848 0.00691798 0)
(-0.0615283 0.00492959 0)
(-0.0621564 0.00284739 0)
(-0.0626591 0.000676678 0)
(-0.0630261 -0.00157541 0)
(-0.0632488 -0.00390045 0)
(-0.0363239 0.0292429 0)
(-0.0378724 0.0287739 0)
(-0.0394219 0.028255 0)
(-0.0409713 0.0276821 0)
(-0.0425188 0.0270516 0)
(-0.0440621 0.0263594 0)
(-0.0455987 0.0256014 0)
(-0.0471255 0.0247732 0)
(-0.0486391 0.0238701 0)
(-0.0501355 0.0228875 0)
(-0.0516102 0.0218207 0)
(-0.0530577 0.0206651 0)
(-0.0544724 0.0194162 0)
(-0.0558476 0.0180697 0)
(-0.0571759 0.0166217 0)
(-0.0584494 0.0150687 0)
(-0.0596592 0.0134081 0)
(-0.0607959 0.0116378 0)
(-0.0618495 0.00975706 0)
(-0.0628096 0.0077663 0)
(-0.0636655 0.00566752 0)
(-0.0644065 0.00346448 0)
(-0.0650227 0.00116282 0)
(-0.065503 -0.00122962 0)
(-0.0658391 -0.00370385 0)
(-0.0367929 0.0308121 0)
(-0.0383886 0.030347 0)
(-0.0399892 0.0298307 0)
(-0.0415938 0.0292588 0)
(-0.0432008 0.0286272 0)
(-0.044808 0.0279318 0)
(-0.0464131 0.0271678 0)
(-0.0480133 0.0263304 0)
(-0.0496052 0.0254144 0)
(-0.0511849 0.0244146 0)
(-0.0527479 0.0233258 0)
(-0.0542889 0.0221426 0)
(-0.055802 0.0208597 0)
(-0.0572805 0.0194722 0)
(-0.0587168 0.0179753 0)
(-0.0601026 0.0163649 0)
(-0.061429 0.0146376 0)
(-0.0626861 0.0127907 0)
(-0.0638635 0.0108228 0)
(-0.0649507 0.00873425 0)
(-0.0659367 0.00652682 0)
(-0.0668109 0.00420451 0)
(-0.0675634 0.0017735 0)
(-0.0681835 -0.00075761 0)
(-0.0686636 -0.0033789 0)
(-0.0372517 0.0324272 0)
(-0.0388957 0.03197 0)
(-0.0405487 0.0314604 0)
(-0.0422101 0.0308937 0)
(-0.0438786 0.0302658 0)
(-0.0455522 0.0295718 0)
(-0.0472289 0.0288068 0)
(-0.0489059 0.0279653 0)
(-0.0505802 0.0270417 0)
(-0.052248 0.0260302 0)
(-0.0539048 0.0249248 0)
(-0.0555456 0.0237193 0)
(-0.0571643 0.0224079 0)
(-0.0587543 0.0209846 0)
(-0.060308 0.019444 0)
(-0.0618169 0.0177811 0)
(-0.0632719 0.0159917 0)
(-0.0646631 0.0140726 0)
(-0.0659803 0.012022 0)
(-0.0672126 0.00983982 0)
(-0.0683496 0.00752806 0)
(-0.0693813 0.00509117 0)
(-0.0702985 0.00253603 0)
(-0.0710914 -0.000127718 0)
(-0.0717544 -0.00288864 0)
(-0.0376973 0.0340891 0)
(-0.0393903 0.0336438 0)
(-0.0410969 0.0331454 0)
(-0.0428165 0.0325887 0)
(-0.0445483 0.0319693 0)
(-0.0462905 0.0312821 0)
(-0.0480414 0.0305215 0)
(-0.0497986 0.0296817 0)
(-0.0515592 0.0287565 0)
(-0.0533198 0.0277393 0)
(-0.055076 0.0266235 0)
(-0.0568228 0.0254021 0)
(-0.0585547 0.0240685 0)
(-0.0602648 0.0226159 0)
(-0.0619457 0.021038 0)
(-0.0635891 0.0193291 0)
(-0.065186 0.017484 0)
(-0.0667267 0.0154993 0)
(-0.0682015 0.0133727 0)
(-0.0696 0.0111041 0)
(-0.0709128 0.00869584 0)
(-0.0721312 0.00615327 0)
(-0.0732481 0.00348436 0)
(-0.0742552 0.000700294 0)
(-0.0751507 -0.00218512 0)
(-0.0381262 0.0357982 0)
(-0.0398688 0.0353693 0)
(-0.0416296 0.0348868 0)
(-0.0434086 0.0343452 0)
(-0.0452052 0.0337397 0)
(-0.047018 0.0330649 0)
(-0.0488456 0.0323149 0)
(-0.050686 0.0314832 0)
(-0.0525367 0.0305629 0)
(-0.0543944 0.029547 0)
(-0.0562554 0.0284279 0)
(-0.0581148 0.0271981 0)
(-0.0599672 0.0258499 0)
(-0.0618063 0.0243757 0)
(-0.0636249 0.0227685 0)
(-0.065415 0.0210216 0)
(-0.0671683 0.0191296 0)
(-0.0688757 0.0170884 0)
(-0.0705284 0.0148957 0)
(-0.0721176 0.0125517 0)
(-0.0736355 0.0100596 0)
(-0.0750762 0.00742603 0)
(-0.0764355 0.0046609 0)
(-0.0777074 0.00177817 0)
(-0.0789025 -0.00120692 0)
(-0.0385345 0.0375547 0)
(-0.0403268 0.037147 0)
(-0.0421424 0.0366854 0)
(-0.0439815 0.0361643 0)
(-0.045844 0.0355786 0)
(-0.047729 0.0349225 0)
(-0.0496354 0.0341895 0)
(-0.0515618 0.0333728 0)
(-0.0535059 0.032465 0)
(-0.0554652 0.031458 0)
(-0.057436 0.0303439 0)
(-0.0594143 0.029114 0)
(-0.0613949 0.0277601 0)
(-0.0633721 0.0262737 0)
(-0.0653393 0.0246469 0)
(-0.0672894 0.0228726 0)
(-0.0692148 0.0209449 0)
(-0.071108 0.0188597 0)
(-0.0729619 0.016615 0)
(-0.0747702 0.0142117 0)
(-0.0765277 0.0116544 0)
(-0.0782328 0.00895245 0)
(-0.0798859 0.00611895 0)
(-0.0814922 0.00316982 0)
(-0.0389181 0.0393587 0)
(-0.0407599 0.038977 0)
(-0.0426302 0.0385416 0)
(-0.0445299 0.0380468 0)
(-0.0464589 0.0374871 0)
(-0.0484172 0.0368563 0)
(-0.0504042 0.0361477 0)
(-0.0524188 0.0353537 0)
(-0.0544595 0.0344663 0)
(-0.0565242 0.0334771 0)
(-0.0586099 0.032377 0)
(-0.0607132 0.031157 0)
(-0.0628296 0.0298078 0)
(-0.0649543 0.0283202 0)
(-0.0670816 0.0266859 0)
(-0.0692056 0.0248972 0)
(-0.0713204 0.0229484 0)
(-0.0734208 0.0208357 0)
(-0.0755025 0.0185581 0)
(-0.0775624 0.0161177 0)
(-0.0795988 0.0135222 0)
(-0.0816213 0.0107854 0)
(-0.0836324 0.00792318 0)
(-0.0856491 0.00495296 0)
(-0.0392723 0.0412094 0)
(-0.041163 0.040859 0)
(-0.0430877 0.0404555 0)
(-0.0450477 0.039993 0)
(-0.0470436 0.0394659 0)
(-0.0490759 0.0388677 0)
(-0.0511445 0.0381911 0)
(-0.0532491 0.0374281 0)
(-0.055389 0.0365703 0)
(-0.0575625 0.0356084 0)
(-0.0597677 0.0345329 0)
(-0.0620019 0.0333338 0)
(-0.0642616 0.0320013 0)
(-0.0665432 0.0305257 0)
(-0.0688425 0.0288984 0)
(-0.0711556 0.0271117 0)
(-0.0734788 0.0251604 0)
(-0.0758102 0.0230417 0)
(-0.0781499 0.0207567 0)
(-0.0804985 0.01831 0)
(-0.0828655 0.0157143 0)
(-0.0395924 0.0431061 0)
(-0.0415309 0.0427922 0)
(-0.043509 0.0424264 0)
(-0.0455286 0.0420027 0)
(-0.0475911 0.0415152 0)
(-0.0496973 0.0409571 0)
(-0.0518482 0.0403209 0)
(-0.0540441 0.0395981 0)
(-0.056285 0.0387797 0)
(-0.0585703 0.0378558 0)
(-0.060899 0.0368164 0)
(-0.0632695 0.0356509 0)
(-0.0656798 0.0343491 0)
(-0.0681277 0.0329012 0)
(-0.0706113 0.0312983 0)
(-0.0731291 0.0295337 0)
(-0.0756813 0.0276033 0)
(-0.0782702 0.0255066 0)
(-0.0809019 0.0232475 0)
(-0.0835831 0.0208353 0)
(-0.0863325 0.0182878 0)
(-0.0398731 0.0450473 0)
(-0.0418578 0.0447754 0)
(-0.0438879 0.0444534 0)
(-0.045966 0.0440751 0)
(-0.0480939 0.0436345 0)