/*--------------------------------*- C++ -*----------------------------------*\
  =========                 |
  \\      /  F ield         | OpenFOAM: The Open Source CFD Toolbox
   \\    /   O peration     | Website:  https://openfoam.org
    \\  /    A nd           | Version:  9
     \\/     M anipulation  |
\*---------------------------------------------------------------------------*/
FoamFile
{
    format      ascii;
    class       volScalarField;
    location    "3";
    object      p;
}
// * * * * * * * * * * * * * * * * * * * * * * * * * * * * * * * * * * * * * //

dimensions      [0 2 -2 0 0 0 0];

internalField   nonuniform List<scalar> 
10000
(
-3.1234e-07
1.96617e-05
3.16926e-05
3.10696e-05
1.40664e-05
-2.04913e-05
-7.20004e-05
-0.000139045
-0.000219921
-0.000312931
-0.000416557
-0.000529563
-0.000651052
-0.000780472
-0.000917599
-0.00106248
-0.0012154
-0.00137677
-0.00154707
-0.00172679
-0.00191635
-0.00211606
-0.00232606
-0.00254627
-0.00277639
-0.00301584
-0.00326375
-0.00351896
-0.00377995
-0.00404487
-0.00431152
-0.00457732
-0.00483933
-0.00509428
-0.00533856
-0.00556827
-0.0057793
-0.00596736
-0.00612807
-0.0062571
-0.00635024
-0.00640351
-0.00641337
-0.00637675
-0.00629131
-0.00615546
-0.00596857
-0.00573108
-0.00544455
-0.00511177
-0.00473684
-0.00432502
-0.00388257
-0.00341786
-0.00293938
-0.00245677
-0.00198038
-0.00152097
-0.0010894
-0.000696335
-0.000351893
-6.53051e-05
0.000155419
0.000303796
0.000375135
0.000366735
0.000278018
0.000110567
-0.000131918
-0.000443768
-0.00081764
-0.00124456
-0.00171466
-0.00221733
-0.00274168
-0.00327697
-0.003813
-0.00434039
-0.00485084
-0.00533738
-0.00579438
-0.00621765
-0.00660436
-0.00695295
-0.00726301
-0.00753505
-0.00777035
-0.00797072
-0.00813832
-0.00827541
-0.00838424
-0.00846685
-0.00852501
-0.00856022
-0.00857384
-0.00856751
-0.00854387
-0.00850787
-0.00846734
-0.00843564
-2.08332e-05
-5.49279e-07
6.83524e-06
1.51373e-06
-1.76935e-05
-5.17892e-05
-0.000100583
-0.000163171
-0.000238354
-0.000324859
-0.000421504
-0.000527303
-0.000641493
-0.000763629
-0.000893497
-0.00103112
-0.00117669
-0.00133057
-0.00149314
-0.00166481
-0.00184593
-0.00203677
-0.00223746
-0.00244792
-0.00266791
-0.0028969
-0.00313415
-0.00337859
-0.00362886
-0.0038833
-0.00413988
-0.00439622
-0.00464963
-0.00489703
-0.00513506
-0.00536005
-0.0055681
-0.00575514
-0.00591698
-0.00604946
-0.00614849
-0.00621021
-0.00623112
-0.00620819
-0.00613902
-0.00602198
-0.0058563
-0.00564223
-0.00538112
-0.00507553
-0.00472932
-0.00434749
-0.00393561
-0.00350144
-0.00305343
-0.00260076
-0.00215328
-0.00172129
-0.0013152
-0.000945238
-0.00062112
-0.000351709
-0.000144693
-6.28996e-06
5.90123e-05
4.86449e-05
-3.79193e-05
-0.00019913
-0.00043141
-0.000729295
-0.00108568
-0.00149211
-0.00193905
-0.00241644
-0.00291397
-0.00342151
-0.00392944
-0.00442898
-0.00491242
-0.00537326
-0.00580632
-0.00620777
-0.00657502
-0.00690669
-0.0072024
-0.00746267
-0.00768868
-0.00788211
-0.00804494
-0.00817931
-0.00828734
-0.00837105
-0.00843227
-0.0084727
-0.00849394
-0.00849779
-0.00848673
-0.00846459
-0.00843574
-0.00840392
-3.31404e-05
-8.03347e-06
-6.78515e-07
-7.41037e-06
-2.74022e-05
-6.12182e-05
-0.000108603
-0.000168729
-0.000240549
-0.000322959
-0.000414931
-0.000515602
-0.000624359
-0.00074078
-0.000864714
-0.000996211
-0.00113549
-0.00128288
-0.00143879
-0.00160361
-0.00177772
-0.00196139
-0.00215479
-0.0023579
-0.00257055
-0.00279232
-0.00302256
-0.00326036
-0.0035045
-0.00375345
-0.00400537
-0.00425804
-0.00450891
-0.00475508
-0.00499329
-0.00522002
-0.00543143
-0.00562353
-0.00579215
-0.00593312
-0.00604231
-0.0061158
-0.00614997
-0.00614165
-0.0060883
-0.00598806
-0.00583999
-0.00564411
-0.00540152
-0.00511459
-0.00478692
-0.00442244
-0.00402838
-0.00361124
-0.00317922
-0.0027414
-0.00230753
-0.00188778
-0.00149249
-0.00113181
-0.000815412
-0.000552143
-0.000349677
-0.000214234
-0.000150317
-0.000160509
-0.000245358
-0.00040333
-0.000630867
-0.000922531
-0.00127123
-0.00166852
-0.00210501
-0.00257067
-0.00305526
-0.00354885
-0.00404201
-0.00452616
-0.00499384
-0.00543884
-0.00585627
-0.00624254
-0.00659538
-0.0069136
-0.00719704
-0.00744638
-0.00766291
-0.00784839
-0.00800484
-0.00813445
-0.00823934
-0.00832157
-0.00838299
-0.00842528
-0.00844996
-0.00845853
-0.00845284
-0.00843552
-0.00840699
-0.0083633
-3.29459e-05
-2.98595e-06
5.4071e-06
-1.75484e-06
-2.22364e-05
-5.61245e-05
-0.000102918
-0.000161673
-0.000231327
-0.000310822
-0.000399199
-0.000495679
-0.000599706
-0.00071096
-0.000829361
-0.000955028
-0.00108824
-0.00122939
-0.00137894
-0.00153734
-0.00170504
-0.00188239
-0.00206964
-0.00226688
-0.00247405
-0.00269086
-0.00291682
-0.00315115
-0.00339283
-0.00364047
-0.00389237
-0.00414648
-0.00440035
-0.00465116
-0.00489573
-0.00513053
-0.00535172
-0.00555522
-0.00573677
-0.00589204
-0.00601672
-0.00610667
-0.00615803
-0.00616738
-0.00613191
-0.00604951
-0.00591896
-0.00574004
-0.00551364
-0.00524203
-0.00492886
-0.00457665
-0.00419362
-0.00378616
-0.00336227
-0.00293101
-0.00250213
-0.00208588
-0.00169267
-0.0013328
-0.00101608
-0.000751525
-0.000546982
-0.000408846
-0.000341778
-0.000348502
-0.000429665
-0.000583796
-0.000807353
-0.00109487
-0.00143917
-0.00183169
-0.00226283
-0.0027228
-0.00320065
-0.00368667
-0.00417131
-0.00464598
-0.00510327
-0.00553705
-0.00594261
-0.00631656
-0.00665693
-0.00696274
-0.00723414
-0.00747205
-0.00767801
-0.007854
-0.00800224
-0.00812502
-0.00822462
-0.00830313
-0.00836243
-0.00840411
-0.00842947
-0.00843954
-0.00843544
-0.00841863
-0.00838626
-0.00832896
-1.62115e-05
1.59733e-05
2.44378e-05
1.64238e-05
-4.99622e-06
-3.95181e-05
-8.63811e-05
-0.000144482
-0.000212688
-0.000289936
-0.0003753
-0.000468056
-0.000567727
-0.000674089
-0.000787159
-0.000907162
-0.00103449
-0.00116963
-0.00131317
-0.00146568
-0.00162772
-0.00179978
-0.00198225
-0.00217538
-0.00237927
-0.00259382
-0.00281872
-0.00305338
-0.00329693
-0.00354817
-0.00380554
-0.00406706
-0.00433036
-0.00459264
-0.00485067
-0.00510081
-0.00533909
-0.00556122
-0.0057627
-0.00593891
-0.00608524
-0.00619722
-0.00627066
-0.00630181
-0.00628752
-0.0062254
-0.00611394
-0.00595271
-0.0057424
-0.00548475
-0.00518229
-0.00484164
-0.0044669
-0.00406532
-0.00364513
-0.00321544
-0.00278612
-0.00236754
-0.0019703
-0.0016049
-0.00128143
-0.00100915
-0.000796226
-0.000649333
-0.000573423
-0.000571477
-0.00064436
-0.000790762
-0.00100723
-0.00128832
-0.00162681
-0.00201401
-0.00244016
-0.00289495
-0.00336769
-0.00384805
-0.00432644
-0.0047939
-0.00524303
-0.00566766
-0.00606309
-0.00642609
-0.00675474
-0.00704847
-0.00730764
-0.00753348
-0.00772783
-0.00789296
-0.00803135
-0.00814552
-0.00823792
-0.00831076
-0.00836595
-0.00840502
-0.00842905
-0.00843864
-0.00843424
-0.00841637
-0.00837973
-0.00831083
1.88915e-05
5.03569e-05
5.74337e-05
4.76977e-05
2.45922e-05
-1.12735e-05
-5.89118e-05
-0.000117068
-0.000184526
-0.000260192
-0.00034316
-0.000432761
-0.000528603
-0.000630574
-0.00073882
-0.000853705
-0.000975773
-0.00110569
-0.00124419
-0.00139204
-0.00154999
-0.00171871
-0.0018988
-0.00209073
-0.00229483
-0.00251121
-0.00273977
-0.00298014
-0.00323161
-0.00349311
-0.00376318
-0.00403986
-0.00432076
-0.00460295
-0.00488303
-0.00515715
-0.00542102
-0.00567002
-0.00589926
-0.00610373
-0.0062784
-0.00641838
-0.00651912
-0.00657647
-0.00658697
-0.0065479
-0.00645751
-0.00631512
-0.00612126
-0.00587756
-0.0055867
-0.00525398
-0.0048847
-0.00448584
-0.00406558
-0.00363308
-0.00319831
-0.00277182
-0.00236442
-0.00198688
-0.00164961
-0.00136223
-0.0011333
-0.000969922
-0.000877469
-0.000859325
-0.000916725
-0.00104867
-0.00125193
-0.0015212
-0.00184929
-0.00222746
-0.00264579
-0.00309366
-0.00356013
-0.0040344
-0.00450716
-0.00496812
-0.00541023
-0.00582703
-0.00621369
-0.00656694
-0.00688499
-0.00716735
-0.00741469
-0.00762846
-0.00781083
-0.00796439
-0.00809192
-0.00819622
-0.00827997
-0.00834555
-0.00839496
-0.00842972
-0.00845076
-0.00845834
-0.00845243
-0.00843286
-0.00839265
-0.00831565
7.27654e-05
0.000100729
0.000104844
9.23317e-05
6.6667e-05
2.86937e-05
-2.04227e-05
-7.93103e-05
-0.000146684
-0.000221427
-0.000302654
-0.000389767
-0.000482478
-0.00058081
-0.000685072
-0.000795815
-0.000913785
-0.00103987
-0.00117504
-0.0013203
-0.00147665
-0.00164505
-0.00182635
-0.00202132
-0.00223053
-0.00245436
-0.00269295
-0.00294611
-0.00321328
-0.00349347
-0.00378518
-0.00408641
-0.00439457
-0.0047065
-0.00501848
-0.00532625
-0.00562509
-0.00590991
-0.00617532
-0.00641582
-0.00662592
-0.00680027
-0.00693389
-0.0070223
-0.00706166
-0.007049
-0.00698231
-0.00686069
-0.00668446
-0.00645519
-0.0061756
-0.00585039
-0.00548511
-0.00508672
-0.00466335
-0.0042242
-0.00377935
-0.00333947
-0.00291561
-0.00251884
-0.0021599
-0.00184887
-0.00159482
-0.00140537
-0.00128649
-0.00124214
-0.0012741
-0.00138189
-0.00156269
-0.00181153
-0.00212141
-0.00248364
-0.00288824
-0.00332441
-0.00378092
-0.00424668
-0.00471135
-0.00516521
-0.00560018
-0.00600953
-0.00638816
-0.00673267
-0.00704117
-0.00731314
-0.00754953
-0.00775186
-0.0079226
-0.00806462
-0.00818102
-0.0082749
-0.00834921
-0.00840655
-0.00844907
-0.00847834
-0.00849525
-0.00849985
-0.00849182
-0.00847051
-0.00842805
-0.00834688
0.000145152
0.000167066
0.00016666
0.000150283
0.000121176
8.0355e-05
2.91068e-05
-3.11295e-05
-9.90369e-05
-0.000173504
-0.000253697
-0.000339111
-0.000429592
-0.000525333
-0.000626847
-0.000734919
-0.000850556
-0.000974926
-0.0011093
-0.00125501
-0.00141337
-0.00158567
-0.00177312
-0.0019768
-0.00219759
-0.00243615
-0.00269282
-0.00296757
-0.00325989
-0.00356878
-0.00389261
-0.00422915
-0.00457549
-0.00492805
-0.00528263
-0.00563445
-0.00597822
-0.00630827
-0.00661866
-0.00690336
-0.00715635
-0.00737186
-0.00754448
-0.00766938
-0.00774243
-0.00776037
-0.00772097
-0.0076231
-0.00746689
-0.00725373
-0.00698632
-0.00666904
-0.00630736
-0.00590813
-0.00547942
-0.00503042
-0.00457123
-0.00411263
-0.00366586
-0.00324228
-0.00285303
-0.00250869
-0.00221889
-0.00199197
-0.00183462
-0.00175156
-0.00174539
-0.00181633
-0.00196227
-0.00217877
-0.00245925
-0.00279532
-0.00317706
-0.00359359
-0.00403346
-0.00448526
-0.00493805
-0.0053818
-0.00580776
-0.00620875
-0.00657923
-0.00691542
-0.00721521
-0.00747805
-0.00770447
-0.00789645
-0.00805652
-0.00818776
-0.00829355
-0.00837727
-0.00844213
-0.008491
-0.00852622
-0.0085495
-0.00856177
-0.00856303
-0.00855282
-0.00853022
-0.00848706
-0.00840552
0.000235437
0.000248976
0.000242597
0.000221337
0.000187974
0.000143645
8.96835e-05
2.75364e-05
-4.15024e-05
-0.000116377
-0.000196346
-0.000281034
-0.000370461
-0.000465036
-0.000565526
-0.000673004
-0.000788798
-0.000914428
-0.00105154
-0.00120183
-0.00136705
-0.00154887
-0.00174889
-0.00196854
-0.00220902
-0.00247125
-0.00275573
-0.00306248
-0.00339097
-0.00374001
-0.0041077
-0.00449141
-0.00488774
-0.00529255
-0.00570103
-0.00610775
-0.00650677
-0.0068918
-0.00725631
-0.0075937
-0.00789748
-0.00816145
-0.00837981
-0.0085474
-0.0086598
-0.00871349
-0.008706
-0.00863598
-0.00850328
-0.00830908
-0.008056
-0.00774806
-0.00739052
-0.00699006
-0.00655457
-0.00609313
-0.00561579
-0.00513336
-0.00465722
-0.00419899
-0.0037702
-0.00338196
-0.00304458
-0.00276719
-0.00255739
-0.0024209
-0.00236131
-0.00237989
-0.00247548
-0.00264451
-0.00288112
-0.00317741
-0.00352383
-0.00390959
-0.00432314
-0.00475278
-0.00518714
-0.00561562
-0.00602887
-0.00641906
-0.00678005
-0.00710753
-0.00739892
-0.00765331
-0.00787118
-0.00805425
-0.00820512
-0.00832698
-0.0084234
-0.00849798
-0.00855419
-0.00859515
-0.00862342
-0.00864091
-0.00864867
-0.00864679
-0.00863477
-0.00861162
-0.00856936
-0.00849075
0.000342698
0.000345731
0.000332064
0.000305025
0.000266707
0.000218316
0.000161149
9.65706e-05
2.57848e-05
-5.02632e-05
-0.000130975
-0.000216161
-0.000306063
-0.000401357
-0.000503124
-0.000612789
-0.00073207
-0.000862903
-0.00100738
-0.00116766
-0.00134594
-0.00154436
-0.00176491
-0.00200941
-0.00227934
-0.00257579
-0.00289934
-0.00324996
-0.00362691
-0.00402867
-0.00445289
-0.00489638
-0.0053551
-0.00582423
-0.00629822
-0.00677094
-0.00723576
-0.00768575
-0.00811377
-0.00851271
-0.00887563
-0.00919589
-0.00946736
-0.00968457
-0.00984279
-0.00993826
-0.00996824
-0.00993111
-0.00982644
-0.00965507
-0.0094195
-0.00912329
-0.0087714
-0.00837021
-0.00792736
-0.00745167
-0.00695302
-0.00644219
-0.00593057
-0.00542999
-0.00495234
-0.00450925
-0.00411176
-0.00376988
-0.00349226
-0.00328583
-0.00315544
-0.00310367
-0.00313067
-0.00323406
-0.00340907
-0.00364867
-0.00394393
-0.00428443
-0.00465876
-0.00505505
-0.00546155
-0.00586714
-0.00626178
-0.00663688
-0.00698556
-0.00730277
-0.00758529
-0.00783165
-0.00804194
-0.0082175
-0.00836093
-0.00847524
-0.00856409
-0.00863122
-0.00868029
-0.00871462
-0.00873702
-0.0087496
-0.00875359
-0.00874926
-0.00873618
-0.00871341
-0.00867351
-0.00860052
0.000465677
0.00045621
0.000434089
0.000400519
0.000356715
0.000303814
0.000243011
0.000175492
0.000102293
2.41764e-05
-5.84667e-05
-0.000145686
-0.000238012
-0.000336452
-0.000442463
-0.00055789
-0.000684914
-0.00082596
-0.000983625
-0.0011606
-0.00135957
-0.00158315
-0.00183376
-0.00211352
-0.00242414
-0.00276679
-0.00314198
-0.00354945
-0.00398811
-0.00445592
-0.00494993
-0.00546621
-0.00599999
-0.00654564
-0.00709686
-0.00764674
-0.00818799
-0.00871301
-0.00921413
-0.00968372
-0.0101144
-0.0104992
-0.0108316
-0.0111058
-0.0113169
-0.0114608
-0.0115344
-0.0115359
-0.0114645
-0.0113207
-0.0111065
-0.0108253
-0.0104814
-0.010081
-0.00963115
-0.00914039
-0.00861831
-0.00807546
-0.00752318
-0.00697336
-0.00643816
-0.0059297
-0.00545971
-0.00503915
-0.00467781
-0.00438397
-0.004164
-0.00402208
-0.00396
-0.00397699
-0.00406975
-0.00423254
-0.00445748
-0.00473486
-0.00505369
-0.00540218
-0.00576835
-0.00614059
-0.00650818
-0.00686172
-0.00719341
-0.00749729
-0.00776929
-0.00800715
-0.00821032
-0.0083797
-0.00851724
-0.00862599
-0.00870942
-0.00877125
-0.00881524
-0.00884485
-0.00886307
-0.00887221
-0.00887372
-0.00886805
-0.00885495
-0.00883361
-0.00879735
-0.00873195
0.000602709
0.000578839
0.000547261
0.000506574
0.000456865
0.000399117
0.000334297
0.000263308
0.00018693
0.000105666
1.96284e-05
-7.15458e-05
-0.000168739
-0.000273362
-0.000387321
-0.000512955
-0.000652973
-0.000810359
-0.000988277
-0.00118997
-0.00141866
-0.00167741
-0.001969
-0.00229581
-0.00265963
-0.00306157
-0.00350192
-0.00398001
-0.0044942
-0.00504178
-0.00561901
-0.00622118
-0.00684262
-0.0074769
-0.00811689
-0.00875496
-0.0093831
-0.00999313
-0.0105768
-0.0111261
-0.0116332
-0.0120907
-0.0124919
-0.0128306
-0.0131017
-0.0133007
-0.0134243
-0.0134703
-0.0134377
-0.0133264
-0.0131382
-0.0128758
-0.0125432
-0.0121458
-0.0116905
-0.0111851
-0.0106388
-0.0100619
-0.00946528
-0.0088609
-0.00826101
-0.00767807
-0.00712444
-0.00661195
-0.00615159
-0.00575306
-0.00542443
-0.00517174
-0.00499874
-0.00490669
-0.0048942
-0.00495732
-0.00508967
-0.00528276
-0.0055264
-0.00580921
-0.00611926
-0.0064446
-0.00677387
-0.0070968
-0.0074046
-0.00769023
-0.00794852
-0.00817622
-0.00837185
-0.00853553
-0.00866868
-0.00877378
-0.00885403
-0.00891298
-0.00895431
-0.00898154
-0.00899774
-0.00900539
-0.00900611
-0.00900058
-0.00898872
-0.00896988
-0.00893832
-0.00888179
0.000751557
0.000711548
0.000669636
0.000621396
0.000565497
0.000502638
0.000433425
0.000358372
0.000277899
0.000192167
0.000100931
3.44041e-06
-0.00010162
-0.000216137
-0.00034254
-0.000483737
-0.000643032
-0.000824019
-0.00103047
-0.00126619
-0.00153491
-0.0018401
-0.00218482
-0.00257155
-0.00300204
-0.00347716
-0.00399676
-0.00455959
-0.00516329
-0.00580432
-0.00647808
-0.00717891
-0.00790027
-0.00863485
-0.00937471
-0.0101115
-0.0108365
-0.0115409
-0.0122161
-0.0128536
-0.0134451
-0.013983
-0.0144601
-0.0148702
-0.0152078
-0.0154681
-0.0156476
-0.0157437
-0.015755
-0.0156813
-0.0155236
-0.0152842
-0.0149667
-0.0145757
-0.0141175
-0.0135994
-0.0130299
-0.0124186
-0.0117763
-0.0111144
-0.0104452
-0.00978115
-0.00913515
-0.00851976
-0.00794704
-0.00742814
-0.00697287
-0.00658932
-0.00628348
-0.00605898
-0.00591684
-0.0058554
-0.00587037
-0.00595502
-0.00610051
-0.00629636
-0.00653104
-0.00679255
-0.00706905
-0.00734945
-0.00762389
-0.00788411
-0.00812366
-0.00833802
-0.00852453
-0.00868224
-0.00881173
-0.00891472
-0.00899387
-0.00905235
-0.0090936
-0.00912103
-0.00913769
-0.00914611
-0.00914805
-0.00914436
-0.00913513
-0.00911989
-0.00909386
-0.00904682
0.000909397
0.000851625
0.000798663
0.000742575
0.000680307
0.000612105
0.00053809
0.00045826
0.000372574
0.000280758
0.000182125
7.5457e-05
-4.1072e-05
-0.000169906
-0.000314074
-0.000477115
-0.000662985
-0.000875926
-0.00112032
-0.00140052
-0.00172071
-0.00208465
-0.00249556
-0.00295586
-0.00346706
-0.00402958
-0.00464266
-0.0053043
-0.00601124
-0.00675902
-0.00754203
-0.00835366
-0.00918643
-0.0100321
-0.010882
-0.011727
-0.0125578
-0.0133651
-0.0141396
-0.0148724
-0.0155551
-0.0161796
-0.0167386
-0.0172256
-0.0176348
-0.0179613
-0.0182014
-0.0183523
-0.0184121
-0.0183803
-0.0182574
-0.0180453
-0.0177469
-0.0173663
-0.016909
-0.0163815
-0.0157916
-0.0151482
-0.0144614
-0.0137421
-0.013002
-0.0122538
-0.0115104
-0.0107847
-0.0100897
-0.00943796
-0.00884083
-0.00830851
-0.00784942
-0.00746984
-0.00717361
-0.00696188
-0.00683307
-0.00678285
-0.0068044
-0.00688879
-0.00702542
-0.00720267
-0.00740854
-0.00763127
-0.00785997
-0.00808505
-0.00829861
-0.00849461
-0.00866891
-0.00881923
-0.00894492
-0.00904672
-0.00912644
-0.00918666
-0.00923034
-0.00926059
-0.00928031
-0.00929194
-0.00929729
-0.00929728
-0.00929215
-0.00928156
-0.00926165
-0.00922417
0.00107269
0.000995693
0.000931115
0.000867012
0.000798245
0.000724474
0.000645169
0.000559681
0.000467406
0.000367544
0.000258879
0.000139638
7.40433e-06
-0.000140898
-0.000308968
-0.000501034
-0.000721736
-0.000975971
-0.00126871
-0.0016048
-0.00198874
-0.00242449
-0.00291521
-0.00346309
-0.00406918
-0.00473326
-0.00545378
-0.00622779
-0.00705103
-0.00791799
-0.00882201
-0.00975547
-0.0107099
-0.0116762
-0.0126449
-0.0136061
-0.0145499
-0.0154665
-0.0163461
-0.0171796
-0.0179581
-0.0186735
-0.0193182
-0.0198855
-0.0203696
-0.0207655
-0.0210693
-0.0212779
-0.0213894
-0.0214029
-0.0213184
-0.0211375
-0.0208624
-0.0204966
-0.0200447
-0.0195125
-0.0189069
-0.0182359
-0.0175087
-0.0167353
-0.015927
-0.0150957
-0.0142542
-0.0134156
-0.0125934
-0.011801
-0.0110513
-0.0103563
-0.00972699
-0.00917235
-0.00869933
-0.00831236
-0.00801314
-0.00780048
-0.00767035
-0.00761611
-0.00762885
-0.00769797
-0.00781179
-0.00795825
-0.00812556
-0.00830284
-0.00848058
-0.00865101
-0.00880823
-0.00894826
-0.00906891
-0.00916958
-0.00925096
-0.0093147
-0.00936307
-0.00939865
-0.00942395
-0.00944126
-0.00945221
-0.00945777
-0.0094582
-0.00945325
-0.00943986
-0.00941157
0.00123712
0.00113965
0.00106304
0.000990824
0.000915484
0.000835871
0.000750653
0.000658414
0.000557877
0.00044762
0.000325817
0.000190055
3.72473e-05
-0.000136388
-0.000335273
-0.000564365
-0.000829
-0.0011347
-0.00148697
-0.00189102
-0.00235157
-0.00287253
-0.00345685
-0.00410626
-0.00482114
-0.00560043
-0.00644158
-0.00734059
-0.00829206
-0.00928934
-0.0103247
-0.0113894
-0.012474
-0.0135685
-0.0146626
-0.0157458
-0.0168075
-0.0178374
-0.0188255
-0.0197622
-0.0206386
-0.0214463
-0.0221778
-0.0228264
-0.0233862
-0.0238523
-0.0242206
-0.0244882
-0.024653
-0.0247136
-0.0246701
-0.0245234
-0.0242754
-0.0239288
-0.0234875
-0.0229563
-0.0223413
-0.0216493
-0.0208884
-0.0200678
-0.0191975
-0.0182888
-0.0173538
-0.0164052
-0.0154565
-0.0145217
-0.0136147
-0.0127491
-0.0119379
-0.0111929
-0.0105242
-0.00993988
-0.00944532
-0.00904315
-0.00873295
-0.00851126
-0.00837179
-0.00830582
-0.00830274
-0.00835071
-0.00843747
-0.00855099
-0.00868015
-0.00881526
-0.00894838
-0.00907349
-0.00918648
-0.00928502
-0.00936831
-0.00943676
-0.00949163
-0.00953473
-0.00956801
-0.00959331
-0.00961202
-0.00962496
-0.00963235
-0.00963394
-0.00962731
-0.00960753
0.0013976
0.00127865
0.00118971
0.00110938
0.00102738
0.000941559
0.000849634
0.000749292
0.000638485
0.000515083
0.000376556
0.000219777
4.09164e-05
-0.000164574
-0.000401882
-0.000676703
-0.000995046
-0.00136301
-0.00178649
-0.00227097
-0.00282114
-0.00344071
-0.00413217
-0.00489656
-0.00573338
-0.00664054
-0.00761434
-0.00864957
-0.0097396
-0.0108766
-0.0120515
-0.0132547
-0.0144757
-0.0157034
-0.016927
-0.018135
-0.0193165
-0.0204608
-0.0215576
-0.0225971
-0.0235702
-0.0244688
-0.0252854
-0.0260133
-0.0266469
-0.0271813
-0.0276128
-0.0279384
-0.028156
-0.0282642
-0.0282627
-0.0281523
-0.0279344
-0.027611
-0.0271854
-0.0266614
-0.0260442
-0.0253394
-0.0245539
-0.0236956
-0.0227734
-0.0217972
-0.020778
-0.019728
-0.01866
-0.0175879
-0.0165259
-0.0154888
-0.0144912
-0.0135473
-0.0126701
-0.0118713
-0.0111604
-0.0105443
-0.0100269
-0.00960882
-0.00928754
-0.00905722
-0.00890933
-0.00883315
-0.00881655
-0.00884678
-0.00891128
-0.00899839
-0.00909789
-0.00920138
-0.00930242
-0.00939652
-0.00948097
-0.00955454
-0.00961718
-0.00966957
-0.00971286
-0.00974824
-0.00977668
-0.00979869
-0.00981434
-0.00982328
-0.00982356
-0.00981144
0.0015483
0.00140703
0.00130566
0.00121726
0.00112846
0.00103595
0.00093631
0.000826233
0.0007028
0.000563088
0.000403789
0.000220985
1.00414e-05
-0.000234396
-0.0005183
-0.000848084
-0.00123037
-0.00167173
-0.00217834
-0.0027557
-0.00340832
-0.00413947
-0.00495091
-0.00584279
-0.00681353
-0.0078598
-0.00897663
-0.0101574
-0.0113943
-0.0126781
-0.0139985
-0.0153448
-0.0167053
-0.0180684
-0.0194221
-0.0207548
-0.0220547
-0.0233111
-0.0245134
-0.0256518
-0.0267175
-0.0277023
-0.0285991
-0.0294017
-0.0301045
-0.0307032
-0.0311941
-0.0315746
-0.0318426
-0.031997
-0.032037
-0.0319637
-0.0317778
-0.0314809
-0.0310756
-0.030565
-0.029953
-0.0292444
-0.0284446
-0.0275603
-0.0265987
-0.0255685
-0.0244791
-0.0233413
-0.0221671
-0.0209694
-0.0197623
-0.0185609
-0.0173806
-0.0162373
-0.0151467
-0.0141236
-0.0131816
-0.012332
-0.0115838
-0.0109425
-0.0104103
-0.00998542
-0.0096627
-0.00943371
-0.00928745
-0.00921118
-0.00919133
-0.00921442
-0.00926788
-0.00934061
-0.00942344
-0.00950923
-0.00959288
-0.00967107
-0.00974199
-0.00980491
-0.00985983
-0.00990707
-0.00994695
-0.00997955
-0.0100046
-0.0100216
-0.0100289
-0.0100236
0.00168247
0.00151852
0.00140471
0.0013083
0.00121251
0.00111264
0.00100406
0.000882316
0.000743555
0.000583978
0.000399431
0.000185144
-6.43695e-05
-0.000355291
-0.000694363
-0.00108867
-0.00154536
-0.00207131
-0.00267279
-0.00335516
-0.00412247
-0.0049773
-0.00592047
-0.00695099
-0.00806601
-0.00926081
-0.010529
-0.0118624
-0.0132519
-0.0146868
-0.0161556
-0.0176465
-0.0191467
-0.0206438
-0.0221252
-0.0235786
-0.0249922
-0.0263549
-0.0276563
-0.0288868
-0.0300377
-0.0311014
-0.032071
-0.0329409
-0.0337062
-0.0343627
-0.0349073
-0.0353377
-0.0356523
-0.0358498
-0.0359293
-0.0358925
-0.0357393
-0.0354712
-0.0350899
-0.034598
-0.0339984
-0.0332948
-0.0324915
-0.0315936
-0.0306068
-0.0295381
-0.0283953
-0.0271876
-0.0259251
-0.0246196
-0.0232842
-0.0219332
-0.0205824
-0.0192484
-0.0179485
-0.0167003
-0.0155208
-0.0144257
-0.0134292
-0.0125422
-0.0117726
-0.0111239
-0.0105957
-0.0101833
-0.00987817
-0.00966866
-0.00954103
-0.00948047
-0.00947214
-0.00950212
-0.00955811
-0.00962984
-0.00970926
-0.00979045
-0.00986934
-0.00994337
-0.010011
-0.0100715
-0.0101243
-0.0101688
-0.0102043
-0.01023
-0.0102445
-0.0102452
0.00179294
0.00160617
0.00148007
0.00137569
0.00127261
0.00116455
0.00104554
0.000909914
0.000752796
0.000569453
0.000354819
0.000103231
-0.000191672
-0.000536898
-0.000939914
-0.00140839
-0.00194984
-0.00257132
-0.00327898
-0.00407774
-0.004971
-0.00596036
-0.00704551
-0.00822408
-0.00949174
-0.0108422
-0.0122675
-0.0137581
-0.015303
-0.0168903
-0.0185074
-0.0201409
-0.0217776
-0.023404
-0.025007
-0.0265741
-0.0280933
-0.0295536
-0.0309447
-0.0322576
-0.033484
-0.0346168
-0.0356499
-0.036578
-0.037397
-0.0381035
-0.0386946
-0.0391686
-0.0395241
-0.0397602
-0.0398764
-0.0398743
-0.0397533
-0.0395147
-0.0391599
-0.0386909
-0.0381098
-0.0374193
-0.0366225
-0.0357232
-0.0347255
-0.0336347
-0.0324568
-0.031199
-0.0298695
-0.0284783
-0.0270367
-0.0255578
-0.0240564
-0.022549
-0.0210535
-0.0195891
-0.0181755
-0.0168324
-0.0155783
-0.0144303
-0.013402
-0.0125038
-0.011741
-0.0111142
-0.0106191
-0.0102466
-0.00998426
-0.00981662
-0.00972712
-0.00969908
-0.00971682
-0.00976649
-0.00983653
-0.00991776
-0.0100033
-0.0100883
-0.0101693
-0.010244
-0.0103107
-0.0103682
-0.0104151
-0.0104502
-0.0104719
-0.0104782
0.00187191
0.00166255
0.00152441
0.00141209
0.00130128
0.00118402
0.00105285
0.000900865
0.00072208
0.000510781
0.000260953
-3.39926e-05
-0.000381292
-0.000788738
-0.00126445
-0.00181655
-0.0024528
-0.00318016
-0.00400444
-0.00492991
-0.00595903
-0.0070922
-0.00832769
-0.00966161
-0.011088
-0.0125987
-0.0141843
-0.0158333
-0.0175335
-0.0192713
-0.021033
-0.0228041
-0.0245705
-0.0263182
-0.0280337
-0.0297044
-0.0313185
-0.032865
-0.0343345
-0.0357181
-0.0370085
-0.0381991
-0.0392848
-0.040261
-0.0411241
-0.0418716
-0.0425012
-0.0430115
-0.0434016
-0.0436715
-0.0438218
-0.0438501
-0.0437591
-0.0435496
-0.0432226
-0.0427793
-0.0422213
-0.0415504
-0.0407687
-0.0398788
-0.0388834
-0.0377862
-0.0365912
-0.0353037
-0.0339298
-0.0324772
-0.0309551
-0.0293745
-0.0277485
-0.0260924
-0.0244236
-0.0227616
-0.0211277
-0.0195441
-0.0180337
-0.0166183
-0.0153183
-0.0141505
-0.0131279
-0.0122576
-0.0115413
-0.0109745
-0.0105475
-0.0102457
-0.0100519
-0.00994691
-0.00991181
-0.00992878
-0.00998216
-0.0100589
-0.0101486
-0.0102435
-0.0103378
-0.0104272
-0.0105088
-0.0105801
-0.0106391
-0.0106842
-0.0107135
-0.0107252
0.00191123
0.00167986
0.00153003
0.00140976
0.00129068
0.00116301
0.00101776
0.000846691
0.000642708
0.000399064
0.000108771
-0.000235688
-0.000642398
-0.00111987
-0.00167678
-0.00232153
-0.00306191
-0.00390462
-0.00485484
-0.00591593
-0.00708915
-0.00837347
-0.00976554
-0.0112597
-0.0128482
-0.0145211
-0.016267
-0.0180729
-0.0199249
-0.0218081
-0.0237075
-0.0256079
-0.0274944
-0.0293526
-0.031169
-0.0329309
-0.034627
-0.0362469
-0.0377815
-0.0392231
-0.040565
-0.0418017
-0.0429285
-0.0439421
-0.0448395
-0.0456188
-0.0462786
-0.0468178
-0.0472362
-0.0475338
-0.0477113
-0.047768
-0.0477051
-0.0475234
-0.047224
-0.0468077
-0.0462757
-0.0456291
-0.0448692
-0.0439975
-0.0430156
-0.0419255
-0.0407298
-0.0394316
-0.0380351
-0.0365455
-0.0349695
-0.0333158
-0.0315949
-0.0298201
-0.028007
-0.0261743
-0.0243433
-0.0225376
-0.0207826
-0.0191046
-0.0175294
-0.016081
-0.0147798
-0.0136414
-0.0126748
-0.0118823
-0.0112589
-0.010793
-0.0104679
-0.0102634
-0.0101572
-0.0101278
-0.0101547
-0.0102205
-0.0103106
-0.0104134
-0.0105201
-0.0106244
-0.0107213
-0.0108071
-0.010879
-0.0109347
-0.010972
-0.0109892
0.00190259
0.00165016
0.00148909
0.00136079
0.00123276
0.00109331
0.000931864
0.000738839
0.000505984
0.000225512
-0.000110549
-0.00051062
-0.000983582
-0.00153857
-0.00218466
-0.00293037
-0.00378331
-0.00474963
-0.00583366
-0.00703759
-0.00836122
-0.00980187
-0.0113544
-0.0130111
-0.0147623
-0.0165963
-0.0184997
-0.0204578
-0.0224551
-0.0244756
-0.0265031
-0.0285217
-0.0305162
-0.0324719
-0.0343756
-0.0362149
-0.0379789
-0.0396582
-0.0412446
-0.0427311
-0.044112
-0.0453827
-0.0465397
-0.0475803
-0.0485025
-0.0493049
-0.0499869
-0.050548
-0.0509883
-0.0513082
-0.0515083
-0.0515889
-0.0515508
-0.0513948
-0.0511219
-0.0507326
-0.0502278
-0.0496083
-0.0488745
-0.0480273
-0.0470672
-0.0459952
-0.0448122
-0.0435198
-0.0421201
-0.0406159
-0.0390117
-0.0373131
-0.0355281
-0.0336669
-0.0317428
-0.0297723
-0.0277751
-0.0257747
-0.0237976
-0.0218727
-0.0200302
-0.0183003
-0.0167112
-0.015287
-0.0140458
-0.0129983
-0.0121469
-0.0114851
-0.0109989
-0.0106683
-0.0104692
-0.0103761
-0.010364
-0.0104101
-0.0104949
-0.0106024
-0.0107202
-0.0108388
-0.0109512
-0.0110521
-0.0111376
-0.0112045
-0.0112504
-0.0112737
0.00183774
0.00156554
0.00139376
0.0012573
0.00111952
0.000966787
0.000786914
0.000568954
0.000303503
-1.82655e-05
-0.000405288
-0.000866848
-0.00141254
-0.00205199
-0.00279451
-0.00364855
-0.00462127
-0.00571804
-0.00694208
-0.00829415
-0.00977236
-0.0113722
-0.0130864
-0.0149053
-0.0168172
-0.0188083
-0.0208633
-0.022966
-0.0250994
-0.0272464
-0.02939
-0.0315138
-0.0336023
-0.0356412
-0.0376175
-0.0395195
-0.0413373
-0.0430621
-0.0446868
-0.0462055
-0.0476135
-0.0489073
-0.0500843
-0.0511425
-0.0520808
-0.0528986
-0.0535957
-0.0541723
-0.0546287
-0.0549657
-0.055184
-0.0552844
-0.0552676
-0.0551346
-0.054886
-0.0545226
-0.0540449
-0.0534533
-0.0527479
-0.051929
-0.0509964
-0.0499502
-0.0487901
-0.0475162
-0.0461291
-0.0446295
-0.0430194
-0.041302
-0.039482
-0.0375667
-0.0355661
-0.0334935
-0.0313661
-0.0292055
-0.0270374
-0.0248916
-0.0228009
-0.0208003
-0.0189247
-0.0172065
-0.0156738
-0.0143472
-0.0132383
-0.0123487
-0.0116695
-0.0111833
-0.0108656
-0.010688
-0.0106208
-0.0106359
-0.0107079
-0.0108156
-0.0109419
-0.0110739
-0.0112016
-0.011318
-0.0114177
-0.0114967
-0.011552
-0.0115823
0.00170871
0.00141834
0.00123646
0.00109166
0.000943268
0.00077565
0.000575041
0.000329149
2.74327e-05
-0.000339961
-0.000782886
-0.00131142
-0.00193576
-0.00266589
-0.00351115
-0.0044797
-0.00557801
-0.00681044
-0.00817882
-0.00968224
-0.0113169
-0.0130763
-0.0149509
-0.0169291
-0.0189968
-0.0211383
-0.0233365
-0.0255738
-0.0278317
-0.0300924
-0.0323383
-0.0345528
-0.0367205
-0.0388275
-0.0408615
-0.0428118
-0.0446692
-0.0464263
-0.0480769
-0.0496163
-0.0510409
-0.052348
-0.0535361
-0.0546039
-0.0555511
-0.0563776
-0.0570838
-0.0576703
-0.0581379
-0.0584874
-0.0587199
-0.0588363
-0.0588376
-0.0587245
-0.0584979
-0.0581584
-0.0577064
-0.0571422
-0.0564656
-0.0556765
-0.0547744
-0.0537584
-0.0526278
-0.0513816
-0.0500187
-0.0485385
-0.0469409
-0.0452265
-0.0433974
-0.0414574
-0.0394132
-0.0372744
-0.0350546
-0.0327722
-0.0304505
-0.0281181
-0.0258084
-0.023559
-0.0214097
-0.0194007
-0.0175692
-0.0159468
-0.0145561
-0.013409
-0.0125048
-0.0118313
-0.011366
-0.0110793
-0.0109377
-0.0109073
-0.0109566
-0.0110582
-0.0111895
-0.0113331
-0.0114758
-0.0116079
-0.0117225
-0.0118143
-0.0118801
-0.0119186
0.00150807
0.00120145
0.00101012
0.000856773
0.000696818
0.000512677
0.000289031
1.22818e-05
-0.000329216
-0.000746294
-0.00124967
-0.00185012
-0.0025583
-0.0033844
-0.00433757