/*--------------------------------*- C++ -*----------------------------------*\
  =========                 |
  \\      /  F ield         | OpenFOAM: The Open Source CFD Toolbox
   \\    /   O peration     | Website:  https://openfoam.org
    \\  /    A nd           | Version:  9
     \\/     M anipulation  |
\*---------------------------------------------------------------------------*/
FoamFile
{
    format      ascii;
    class       surfaceScalarField;
    location    "3";
    object      phi;
}
// * * * * * * * * * * * * * * * * * * * * * * * * * * * * * * * * * * * * * //

dimensions      [0 3 -1 0 0 0 0];

internalField   nonuniform List<scalar> 
19800
(
7.80968e-11
-7.56047e-11
9.29047e-10
-8.51002e-10
2.43521e-09
-1.50613e-09
4.31192e-09
-1.87674e-09
6.32139e-09
-2.00945e-09
8.28556e-09
-1.96414e-09
1.00788e-08
-1.79323e-09
1.16185e-08
-1.53972e-09
1.28555e-08
-1.23705e-09
1.37658e-08
-9.10276e-10
1.43431e-08
-5.7732e-10
1.4593e-08
-2.49906e-10
1.45277e-08
6.53211e-11
1.41613e-08
3.66392e-10
1.35067e-08
6.54619e-10
1.25728e-08
9.33913e-10
1.13629e-08
1.20989e-09
9.87392e-09
1.48898e-09
8.09621e-09
1.77771e-09
6.01418e-09
2.08203e-09
3.60727e-09
2.40691e-09
8.51254e-10
2.75602e-09
-2.28031e-09
3.13158e-09
-5.81466e-09
3.53435e-09
-9.77838e-09
3.96371e-09
-1.41961e-08
4.41773e-09
-1.90894e-08
4.89328e-09
-2.44755e-08
5.38608e-09
-3.03663e-08
5.89083e-09
-3.67675e-08
6.40119e-09
-4.36773e-08
6.90981e-09
-5.10857e-08
7.4084e-09
-5.89735e-08
7.88776e-09
-6.73113e-08
8.33788e-09
-7.60594e-08
8.74801e-09
-8.51663e-08
9.10691e-09
-9.45692e-08
9.40294e-09
-1.04194e-07
9.62437e-09
-1.13953e-07
9.75962e-09
-1.23751e-07
9.7975e-09
-1.33478e-07
9.72755e-09
-1.43019e-07
9.54033e-09
-1.52246e-07
9.22769e-09
-1.61029e-07
8.78313e-09
-1.69231e-07
8.20204e-09
-1.76713e-07
7.48201e-09
-1.83336e-07
6.62304e-09
-1.88964e-07
5.62782e-09
-1.93466e-07
4.50215e-09
-1.96722e-07
3.25544e-09
-1.98622e-07
1.90023e-09
-1.99077e-07
4.5454e-10
-1.97988e-07
-1.08885e-09
-1.95317e-07
-2.67033e-09
-1.9103e-07
-4.28794e-09
-1.85119e-07
-5.91097e-09
-1.77608e-07
-7.51056e-09
-1.68552e-07
-9.05644e-09
-1.58034e-07
-1.05174e-08
-1.46172e-07
-1.18622e-08
-1.33112e-07
-1.30603e-08
-1.19028e-07
-1.40833e-08
-1.04123e-07
-1.49053e-08
-8.86184e-08
-1.55047e-08
-7.27537e-08
-1.58647e-08
-5.67791e-08
-1.59747e-08
-4.09487e-08
-1.58303e-08
-2.5514e-08
-1.54347e-08
-1.0716e-08
-1.4798e-08
3.22211e-09
-1.39381e-08
1.61022e-08
-1.28801e-08
2.77538e-08
-1.16516e-08
3.80429e-08
-1.02891e-08
4.68727e-08
-8.82988e-09
5.41873e-08
-7.31454e-09
5.99694e-08
-5.78214e-09
6.42399e-08
-4.27051e-09
6.70545e-08
-2.81461e-09
6.84992e-08
-1.44465e-09
6.86846e-08
-1.85364e-10
6.774e-08
9.44543e-10
6.58073e-08
1.93275e-09
6.3034e-08
2.77329e-09
5.95681e-08
3.46585e-09
5.55527e-08
4.0154e-09
5.11215e-08
4.43119e-09
4.63959e-08
4.72563e-09
4.14828e-08
4.91309e-09
3.64745e-08
5.00836e-09
3.14495e-08
5.02499e-09
2.64761e-08
4.97332e-09
2.1618e-08
4.85814e-09
1.69419e-08
4.67609e-09
1.25291e-08
4.41284e-09
8.48852e-09
4.04055e-09
4.97108e-09
3.51744e-09
2.17708e-09
2.794e-09
3.43014e-10
1.83407e-09
-3.39274e-10
6.82288e-10
-3.39275e-10
8.49999e-10
-9.25662e-10
3.27176e-09
-3.27265e-09
6.8428e-09
-5.07721e-09
1.10902e-08
-6.12419e-09
1.55702e-08
-6.48945e-09
1.99124e-08
-6.30629e-09
2.38307e-08
-5.71158e-09
2.71193e-08
-4.82827e-09
2.96408e-08
-3.75857e-09
3.13135e-08
-2.58292e-09
3.20972e-08
-1.36109e-09
3.19805e-08
-1.33194e-10
3.09711e-08
1.07476e-09
2.90822e-08
2.25529e-09
2.63276e-08
3.40919e-09
2.27144e-08
4.54716e-09
1.82387e-08
5.68554e-09
1.28841e-08
6.84359e-09
6.62091e-09
8.04091e-09
-5.92539e-10
9.29548e-09
-8.80741e-09
1.06218e-08
-1.80812e-08
1.20299e-08
-2.84744e-08
1.35247e-08
-4.00461e-08
1.51061e-08
-5.2851e-08
1.67686e-08
-6.69353e-08
1.8502e-08
-8.23333e-08
2.02913e-08
-9.90649e-08
2.21177e-08
-1.17132e-07
2.39581e-08
-1.36517e-07
2.57859e-08
-1.57178e-07
2.75711e-08
-1.7905e-07
2.92807e-08
-2.02042e-07
3.08791e-08
-2.26032e-07
3.23286e-08
-2.50874e-07
3.35899e-08
-2.76391e-07
3.46233e-08
-3.02377e-07
3.5389e-08
-3.28601e-07
3.58484e-08
-3.54806e-07
3.59648e-08
-3.80713e-07
3.57047e-08
-4.06024e-07
3.50386e-08
-4.30426e-07
3.39418e-08
-4.53594e-07
3.23956e-08
-4.75198e-07
3.03877e-08
-4.9491e-07
2.79133e-08
-5.12403e-07
2.49754e-08
-5.27365e-07
2.15852e-08
-5.395e-07
1.77628e-08
-5.48536e-07
1.35377e-08
-5.5423e-07
8.94985e-09
-5.56378e-07
4.0483e-09
-5.54825e-07
-1.09862e-09
-5.49424e-07
-6.4899e-09
-5.40115e-07
-1.19792e-08
-5.26889e-07
-1.75139e-08
-5.09791e-07
-2.30092e-08
-4.88926e-07
-2.83751e-08
-4.64464e-07
-3.35185e-08
-4.36636e-07
-3.83454e-08
-4.05736e-07
-4.27626e-08
-3.72116e-07
-4.66805e-08
-3.36183e-07
-5.00157e-08
-2.98395e-07
-5.26935e-08
-2.59248e-07
-5.4651e-08
-2.19274e-07
-5.58396e-08
-1.79021e-07
-5.62273e-08
-1.3905e-07
-5.5801e-08
-9.9917e-08
-5.45681e-08
-6.21586e-08
-5.25564e-08
-2.62813e-08
-4.98153e-08
7.25259e-09
-4.6414e-08
3.80409e-08
-4.244e-08
6.57442e-08
-3.79924e-08
9.01006e-08
-3.31863e-08
1.1093e-07
-2.81441e-08
1.28136e-07
-2.29878e-08
1.41704e-07
-1.78381e-08
1.51699e-07
-1.28101e-08
1.58261e-07
-8.00652e-09
1.61591e-07
-3.51592e-09
1.61946e-07
5.90034e-10
1.59619e-07
4.25941e-09
1.54934e-07
7.45896e-09
1.48225e-07
1.01744e-08
1.39831e-07
1.24091e-08
1.30081e-07
1.41812e-08
1.19286e-07
1.5521e-08
1.07733e-07
1.64665e-08
9.56823e-08
1.70586e-08
8.33713e-08
1.73359e-08
7.10168e-08
1.73279e-08
5.88268e-08
1.70481e-08
4.70159e-08
1.6487e-08
3.58231e-08
1.56056e-08
2.55314e-08
1.43323e-08
1.64813e-08
1.25675e-08
9.06705e-09
1.02083e-08
3.69769e-09
7.20342e-09
7.06672e-10
3.67331e-09
3.67398e-10
1.51175e-09
-2.43738e-09
5.0977e-09
-6.85864e-09
1.00518e-08
-1.00313e-08
1.5746e-08
-1.18184e-08
2.16166e-08
-1.23601e-08
2.71863e-08
-1.1876e-08
3.20744e-08
-1.05997e-08
3.59942e-08
-8.74806e-09
3.87431e-08
-6.50746e-09
4.01887e-08
-4.02849e-09
4.02531e-08
-1.4255e-09
3.88983e-08
1.22155e-09
3.61094e-08
3.86369e-09
3.18849e-08
6.47987e-09
2.62234e-08
9.07065e-09
1.9117e-08
1.16536e-08
1.05452e-08
1.42573e-08
4.72563e-10
1.69162e-08
-1.11518e-08
1.96653e-08
-2.43918e-08
2.25356e-08
-3.93214e-08
2.55514e-08
-5.60192e-08
2.87277e-08
-7.45633e-08
3.20688e-08
-9.50253e-08
3.55681e-08
-1.17465e-07
3.92079e-08
-1.41923e-07
4.29604e-08
-1.6842e-07
4.67879e-08
-1.96946e-07
5.06439e-08
-2.27462e-07
5.44738e-08
-2.59892e-07
5.82159e-08
-2.94123e-07
6.18022e-08
-3.30002e-07
6.51595e-08
-3.67333e-07
6.82106e-08
-4.0588e-07
7.08759e-08
-4.45366e-07
7.30751e-08
-4.85471e-07
7.47289e-08
-5.25843e-07
7.57609e-08
-5.66094e-07
7.60997e-08
-6.05811e-07
7.56809e-08
-6.44555e-07
7.44488e-08
-6.81874e-07
7.23582e-08
-7.17308e-07
6.93756e-08
-7.50393e-07
6.5481e-08
-7.80674e-07
6.06684e-08
-8.07707e-07
5.49467e-08
-8.31072e-07
4.83403e-08
-8.50376e-07
4.08891e-08
-8.65263e-07
3.2649e-08
-8.75416e-07
2.36913e-08
-8.80572e-07
1.41056e-08
-8.80537e-07
4.01334e-09
-8.75103e-07
-6.53235e-09
-8.64226e-07
-1.73673e-08
-8.47865e-07
-2.83398e-08
-8.26069e-07
-3.93102e-08
-7.98956e-07
-5.01228e-08
-7.66716e-07
-6.06143e-08
-7.29617e-07
-7.0618e-08
-6.87996e-07
-7.99666e-08
-6.42262e-07
-8.84958e-08
-5.92894e-07
-9.60484e-08
-5.40432e-07
-1.02478e-07
-4.85472e-07
-1.07654e-07
-4.28658e-07
-1.11465e-07
-3.70674e-07
-1.13824e-07
-3.12228e-07
-1.14673e-07
-2.54043e-07
-1.13986e-07
-1.96842e-07
-1.11769e-07
-1.41331e-07
-1.08068e-07
-8.8183e-08
-1.02963e-07
-3.80271e-08
-9.65699e-08
8.57129e-09
-8.90384e-08
5.11265e-08
-8.05476e-08
8.923e-08
-7.12897e-08
1.22582e-07
-6.1496e-08
1.5098e-07
-5.13854e-08
1.74326e-07
-4.11845e-08
1.92631e-07
-3.11149e-08
2.06003e-07
-2.13792e-08
2.14645e-07
-1.2158e-08
2.1884e-07
-3.60405e-09
2.18936e-07
4.16281e-09
2.15336e-07
1.10596e-08
2.08475e-07
1.70351e-08
1.9881e-07
2.20743e-08
1.86799e-07
2.61916e-08
1.72894e-07
2.94266e-08
1.57524e-07
3.18365e-08
1.41095e-07
3.34873e-08
1.23987e-07
3.44433e-08
1.0656e-07
3.47552e-08
8.91608e-08
3.44475e-08
7.21412e-08
3.35066e-08
5.58762e-08
3.18706e-08
4.07812e-08
2.94273e-08
2.73232e-08
2.60255e-08
1.6016e-08
2.15154e-08
7.39016e-09
1.58293e-08
1.92622e-09
9.13724e-09
2.29362e-09
1.90368e-09
-4.3411e-09
6.2005e-09
-1.11555e-08
1.19278e-08
-1.57585e-08
1.83153e-08
-1.82059e-08
2.47105e-08
-1.87552e-08
3.05704e-08
-1.77359e-08
3.5459e-08
-1.54883e-08
3.90403e-08
-1.23294e-08
4.10676e-08
-8.53473e-09
4.13692e-08
-4.33011e-09
3.9833e-08
1.10687e-10
3.63901e-08
4.66448e-09
3.0999e-08
9.25483e-09
2.36324e-08
1.38464e-08
1.42656e-08
1.84375e-08
2.86713e-09
2.3052e-08
-1.06061e-08
2.77306e-08
-2.62116e-08
3.25217e-08
-4.40207e-08
3.74744e-08
-6.41156e-08
4.26304e-08
-8.65841e-08
4.80199e-08
-1.11514e-07
5.36571e-08
-1.38983e-07
5.95383e-08
-1.69056e-07
6.56415e-08
-2.01774e-07
7.1926e-08
-2.37148e-07
7.83339e-08
-2.75152e-07
8.47915e-08
-3.15718e-07
9.12104e-08
-3.58734e-07
9.74897e-08
-4.04036e-07
1.03518e-07
-4.51409e-07
1.09175e-07
-5.00586e-07
1.14336e-07
-5.51245e-07
1.1887e-07
-6.03017e-07
1.22648e-07
-6.55484e-07
1.25542e-07
-7.08188e-07
1.27433e-07
-7.60634e-07
1.28207e-07
-8.12301e-07
1.27766e-07
-8.62645e-07
1.26025e-07
-9.11114e-07
1.22918e-07
-9.57153e-07
1.18397e-07
-1.00021e-06
1.12435e-07
-1.03976e-06
1.05028e-07
-1.07529e-06
9.61951e-08
-1.10632e-06
8.59755e-08
-1.13241e-06
7.44327e-08
-1.15317e-06
6.16514e-08
-1.16826e-06
4.7738e-08
-1.17739e-06
3.28187e-08
-1.18031e-06
1.70339e-08
-1.17693e-06
6.32981e-10
-1.16704e-06
-1.6431e-08
-1.15066e-06
-3.37424e-08
-1.12783e-06
-5.11696e-08
-1.09865e-06
-6.84901e-08
-1.0633e-06
-8.54741e-08
-1.02203e-06
-1.01886e-07
-9.75161e-07
-1.17486e-07
-9.23092e-07
-1.32035e-07
-8.66289e-07
-1.45299e-07
-8.05282e-07
-1.57055e-07
-7.40668e-07
-1.67092e-07
-6.73099e-07
-1.75223e-07
-6.03279e-07
-1.81285e-07
-5.31954e-07
-1.85149e-07
-4.59902e-07
-1.86725e-07
-3.87921e-07
-1.85967e-07
-3.16815e-07
-1.82875e-07
-2.47381e-07
-1.77502e-07
-1.80393e-07
-1.69951e-07
-1.16583e-07
-1.6038e-07
-5.66294e-08
-1.48992e-07
-1.14203e-09
-1.36035e-07
4.93725e-08
-1.21804e-07
9.44786e-08
-1.06602e-07
1.33863e-07
-9.07697e-08
1.67323e-07
-7.4645e-08
1.94777e-07
-5.8568e-08
2.16253e-07
-4.2856e-08
2.31896e-07
-2.78003e-08
2.41947e-07
-1.36555e-08
2.46744e-07
-6.34475e-10
2.46694e-07
1.11098e-08
2.42267e-07
2.14624e-08
2.33972e-07
3.0369e-08
2.22343e-07
3.78205e-08
2.07921e-07
4.38485e-08
1.91242e-07
4.85159e-08
1.72826e-07
5.19035e-08
1.53174e-07
5.4095e-08
1.3277e-07
5.51592e-08
1.12086e-07
5.51316e-08
9.15955e-08
5.39971e-08
7.17888e-08
5.16773e-08
5.31889e-08
4.80272e-08
3.63637e-08
4.28507e-08
2.19317e-08
3.59475e-08
1.05595e-08
2.72014e-08
2.96477e-09
1.6732e-08
5.25839e-09
2.06948e-09
-6.41056e-09
6.63981e-09
-1.57258e-08
1.25689e-08
-2.16877e-08
1.89738e-08
-2.46108e-08
2.51358e-08
-2.49172e-08
3.047e-08
-2.30701e-08
3.45089e-08
-1.95272e-08
3.68883e-08
-1.47087e-08
3.73332e-08
-8.97962e-09
3.56434e-08
-2.6403e-09
3.16774e-08
4.07664e-09
2.53368e-08
1.10051e-08
1.65505e-08
1.8041e-08
5.26211e-09
2.51348e-08
-8.58211e-09
3.22817e-08
-2.50407e-08
3.95106e-08
-4.41819e-08
4.68718e-08
-6.60853e-08
5.44251e-08
-9.08395e-08
6.22285e-08
-1.18538e-07
7.03287e-08
-1.49271e-07
7.87534e-08
-1.83121e-07
8.75069e-08
-2.20149e-07
9.65662e-08
-2.60388e-07
1.05881e-07
-3.03837e-07
1.15374e-07
-3.50447e-07
1.24944e-07
-4.0012e-07
1.34464e-07
-4.52701e-07
1.43792e-07
-5.07976e-07
1.52764e-07
-5.65667e-07
1.61209e-07
-6.25436e-07
1.68945e-07
-6.86885e-07
1.75785e-07
-7.49559e-07
1.81544e-07
-8.12952e-07
1.86041e-07
-8.76519e-07
1.89108e-07
-9.39676e-07
1.9059e-07
-1.00182e-06
1.9035e-07
-1.06233e-06
1.88275e-07
-1.12058e-06
1.84279e-07
-1.17596e-06
1.78302e-07
-1.22788e-06
1.70314e-07
-1.27576e-06
1.60315e-07
-1.31907e-06
1.48336e-07
-1.35731e-06
1.34434e-07
-1.39003e-06
1.18698e-07
-1.41684e-06
1.01241e-07
-1.43739e-06
8.22027e-08
-1.4514e-06
6.17459e-08
-1.45863e-06
4.00558e-08
-1.45894e-06
1.73432e-08
-1.45216e-06
-6.15403e-09
-1.43832e-06
-3.02684e-08
-1.4174e-06
-5.46655e-08
-1.38947e-06
-7.90927e-08
-1.35469e-06
-1.03269e-07
-1.31327e-06
-1.26902e-07
-1.26546e-06
-1.4969e-07
-1.21162e-06
-1.71328e-07
-1.15214e-06
-1.91512e-07
-1.0875e-06
-2.09942e-07
-1.01822e-06
-2.26329e-07
-9.44916e-07
-2.40401e-07
-8.68226e-07
-2.51912e-07
-7.88866e-07
-2.60645e-07
-7.07591e-07
-2.66423e-07
-6.25199e-07
-2.69117e-07
-5.42515e-07
-2.68651e-07
-4.60382e-07
-2.65008e-07
-3.79646e-07
-2.58237e-07
-3.01143e-07
-2.48454e-07
-2.25681e-07
-2.35843e-07
-1.5402e-07
-2.20652e-07
-8.68635e-08
-2.03192e-07
-2.48404e-08
-1.83827e-07
3.15218e-08
-1.62964e-07
8.17945e-08
-1.41042e-07
1.25651e-07
-1.18502e-07
1.62907e-07
-9.58235e-08
1.93486e-07
-7.34352e-08
2.17438e-07
-5.17522e-08
2.3493e-07
-3.11471e-08
2.46234e-07
-1.19385e-08
2.51725e-07
5.61878e-09
2.51851e-07
2.13361e-08
2.47128e-07
3.50917e-08
2.38118e-07
4.68308e-08
2.2541e-07
5.65565e-08
2.09608e-07
6.43184e-08
1.91314e-07
7.01966e-08
1.71127e-07
7.42822e-08
1.49632e-07
7.66542e-08
1.27408e-07
7.73556e-08
1.05034e-07
7.63712e-08
8.31015e-08
7.361e-08
6.22288e-08
6.88998e-08
4.30784e-08
6.20011e-08
2.63757e-08
5.26502e-08
1.29373e-08
4.06399e-08
3.72421e-09
2.59451e-08
8.9826e-09
2.05829e-09
-8.46881e-09
6.51193e-09
-2.01795e-08
1.21185e-08
-2.72943e-08
1.79237e-08
-3.0416e-08
2.31677e-08
-3.01611e-08
2.72433e-08
-2.71458e-08
2.96685e-08
-2.19524e-08
3.00652e-08
-1.51054e-08
2.81423e-08
-7.05675e-09
2.36795e-08
1.82251e-09
1.65113e-08
1.12448e-08
6.51191e-09
2.10045e-08
-6.41894e-09
3.09719e-08
-2.23683e-08
4.10842e-08
-4.14195e-08
5.1333e-08
-6.3659e-08
6.17502e-08
-8.91792e-08
7.2392e-08
-1.18078e-07
8.33237e-08
-1.50454e-07
9.46047e-08
-1.86402e-07
1.06277e-07
-2.26002e-07
1.18354e-07
-2.69311e-07
1.30816e-07
-3.16353e-07
1.43608e-07
-3.67108e-07
1.56636e-07
-4.21502e-07
1.69769e-07
-4.79405e-07
1.82847e-07
-5.40618e-07
1.95677e-07
-6.04875e-07
2.08048e-07
-6.71838e-07
2.19728e-07
-7.41102e-07
2.30474e-07
-8.12196e-07
2.40039e-07
-8.8459e-07
2.48178e-07
-9.57703e-07
2.54656e-07
-1.03091e-06
2.59252e-07
-1.10357e-06
2.61766e-07
-1.17501e-06
2.62028e-07
-1.24456e-06
2.59897e-07
-1.31155e-06
2.55268e-07
-1.37534e-06
2.48074e-07
-1.43533e-06
2.38282e-07
-1.49091e-06
2.25902e-07
-1.54157e-06
2.10975e-07
-1.58682e-06
1.93581e-07
-1.62622e-06
1.73831e-07
-1.65938e-06
1.51865e-07
-1.68599e-06
1.27852e-07
-1.70578e-06
1.01986e-07
-1.71851e-06
7.44822e-08
-1.72404e-06
4.55804e-08
-1.72224e-06
1.55457e-08
-1.71303e-06
-1.53621e-08
-1.69644e-06
-4.68611e-08
-1.67249e-06
-7.86181e-08
-1.64126e-06
-1.10316e-07
-1.60292e-06
-1.41619e-07
-1.55764e-06
-1.7218e-07
-1.50569e-06
-2.01641e-07
-1.44738e-06
-2.29639e-07
-1.38308e-06
-2.5581e-07
-1.31323e-06
-2.79791e-07
-1.23833e-06
-3.0123e-07
-1.15894e-06
-3.19793e-07
-1.07568e-06
-3.35169e-07
-9.89242e-07
-3.47082e-07
-9.00366e-07
-3.553e-07
-8.0984e-07
-3.59643e-07
-7.18498e-07
-3.59993e-07
-6.27201e-07
-3.56305e-07
-5.36828e-07
-3.4861e-07
-4.48262e-07
-3.3702e-07
-3.62372e-07
-3.21733e-07
-2.79995e-07
-3.03029e-07
-2.0192e-07
-2.81267e-07
-1.2887e-07
-2.56877e-07
-6.14864e-08
-2.30348e-07
-3.15242e-10
-2.02214e-07
5.42366e-08
-1.73054e-07
1.01833e-07
-1.4342e-07
1.42294e-07
-1.13896e-07
1.75563e-07
-8.50215e-08
2.01711e-07
-5.72949e-08
2.20928e-07
-3.11553e-08
2.33518e-07
-6.97137e-09
2.39884e-07
1.49698e-08
2.40511e-07
3.44648e-08
2.35954e-07
5.13877e-08
2.26818e-07
6.56922e-08
2.13742e-07
7.73945e-08
1.97383e-07
8.65552e-08
1.78408e-07
9.32575e-08
1.57483e-07
9.75791e-08
1.35275e-07
9.95636e-08
1.12454e-07
9.91925e-08
8.97012e-08
9.63629e-08
6.7725e-08
9.08761e-08
4.72806e-08
8.24454e-08
2.92018e-08
7.0729e-08
1.44499e-08
5.53918e-08
4.19541e-09
3.61996e-08
1.3178e-08
1.90609e-09
-1.03749e-08
5.90128e-09
-2.41747e-08
1.07092e-08
-3.21022e-08
1.53482e-08
-3.5055e-08
1.90461e-08
-3.38591e-08
2.11932e-08
-2.92929e-08
2.13075e-08
-2.20667e-08
1.90093e-08
-1.28071e-08
1.40001e-08
-2.04764e-09
6.04641e-09
9.77623e-09
-5.03683e-09
2.23281e-08
-1.93998e-08
3.53675e-08
-3.71704e-08
4.87426e-08
-5.84649e-08
6.23786e-08
-8.33948e-08
7.62629e-08
-1.12072e-07
9.04269e-08
-1.44607e-07
1.04927e-07
-1.81109e-07
1.19826e-07
-2.21677e-07
1.35173e-07
-2.66392e-07
1.50992e-07
-3.15307e-07
1.67268e-07
-3.68433e-07
1.83943e-07
-4.25735e-07
2.0091e-07
-4.87113e-07
2.18014e-07
-5.52401e-07
2.35058e-07
-6.2136e-07
2.51806e-07
-6.93673e-07
2.6799e-07
-7.68945e-07
2.8332e-07
-8.46708e-07
2.9749e-07
-9.26424e-07
3.1019e-07
-1.0075e-06
3.21113e-07
-1.08929e-06
3.29966e-07
-1.1711e-06
3.36475e-07
-1.25225e-06
3.40401e-07
-1.33202e-06
3.41536e-07
-1.40971e-06
3.39715e-07
-1.48463e-06
3.34819e-07
-1.55614e-06
3.26773e-07
-1.62361e-06
3.15548e-07
-1.68649e-06
3.01161e-07
-1.74426e-06
2.8367e-07
-1.79646e-06
2.63172e-07
-1.84268e-06
2.39801e-07
-1.88256e-06
2.1372e-07
-1.91582e-06
1.85122e-07
-1.94219e-06
1.54225e-07
-1.96147e-06
1.21268e-07
-1.97351e-06
8.65125e-08
-1.97816e-06
5.02372e-08
-1.97537e-06
1.27495e-08
-1.96506e-06
-2.56673e-08
-1.94725e-06
-6.46668e-08
-1.92198e-06
-1.03896e-07
-1.8893e-06
-1.42995e-07
-1.84933e-06
-1.81586e-07
-1.80224e-06
-2.19275e-07
-1.74822e-06
-2.55658e-07
-1.68754e-06
-2.90318e-07
-1.62051e-06
-3.22834e-07
-1.54752e-06
-3.52784e-07
-1.469e-06
-3.7975e-07
-1.38546e-06
-4.03332e-07
-1.29748e-06
-4.23151e-07
-1.2057e-06
-4.38862e-07
-1.11083e-06
-4.50167e-07
-1.01365e-06
-4.56824e-07
-9.14984e-07
-4.58662e-07
-8.15702e-07
-4.55587e-07
-7.16714e-07
-4.47598e-07
-6.18945e-07
-4.34789e-07
-5.23323e-07
-4.17356e-07
-4.30758e-07
-3.95593e-07
-3.42127e-07
-3.69898e-07
-2.5825e-07
-3.40755e-07
-1.79871e-07
-3.08727e-07
-1.07642e-07
-2.74442e-07
-4.2122e-08
-2.38574e-07
1.62719e-08
-2.01814e-07
6.7236e-08
-1.6486e-07
1.10601e-07
-1.28387e-07
1.46334e-07
-9.30273e-08
1.7453e-07
-5.93519e-08
1.95411e-07
-2.78526e-08
2.09321e-07
1.06079e-09
2.16686e-07
2.70993e-08
2.18038e-07
5.00354e-08
2.13972e-07
6.97587e-08
2.05136e-07
8.62306e-08
1.92217e-07
9.94737e-08
1.75929e-07
1.09546e-07
1.56997e-07
1.1651e-07
1.3616e-07
1.20401e-07
1.14164e-07
1.21189e-07
9.17715e-08
1.18755e-07
6.97753e-08
1.12872e-07
4.90205e-08
1.032e-07
3.04429e-08
8.93066e-08
1.5128e-08
7.07067e-08
4.4009e-09
4.69267e-08
1.75789e-08
1.63615e-09
-1.20111e-08
4.86988e-09
-2.74084e-08
8.44495e-09
-3.56772e-08
1.13954e-08
-3.80054e-08
1.2967e-08
-3.54306e-08
1.25683e-08
-2.88942e-08
9.73248e-09
-1.92309e-08
4.08817e-09
-7.16282e-09
-4.66246e-09
6.703e-09
-1.67613e-08
2.1875e-08
-3.24087e-08
3.79755e-08
-5.17763e-08
5.47351e-08
-7.50169e-08
7.19832e-08
-1.02273e-07
8.96343e-08
-1.33679e-07
1.07669e-07
-1.69366e-07
1.26114e-07
-2.09457e-07
1.45018e-07
-2.54059e-07
1.64427e-07
-3.03256e-07
1.84371e-07
-3.57101e-07
2.04836e-07
-4.15597e-07
2.25764e-07
-4.7869e-07
2.47037e-07
-5.4626e-07
2.6848e-07
-6.18109e-07
2.89863e-07
-6.93958e-07
3.10906e-07
-7.73441e-07
3.31289e-07
-8.56113e-07
3.50662e-07
-9.41448e-07
3.68655e-07
-1.02885e-06
3.84893e-07
-1.11767e-06
3.99008e-07
-1.2072e-06
4.10647e-07
-1.29672e-06
4.19488e-07
-1.3855e-06
4.25248e-07
-1.47278e-06
4.27686e-07
-1.55786e-06
4.26616e-07
-1.64005e-06
4.21904e-07
-1.7187e-06
4.13472e-07
-1.79323e-06
4.01295e-07
-1.86308e-06
3.854e-07
-1.92777e-06
3.65859e-07
-1.98689e-06
3.42788e-07
-2.04006e-06
3.16339e-07
-2.08696e-06
2.86696e-07
-2.12731e-06
2.54072e-07
-2.16089e-06
2.187e-07
-2.1875e-06
1.80837e-07
-2.20699e-06
1.40756e-07
-2.21922e-06
9.87478e-08
-2.2241e-06
5.51184e-08
-2.22156e-06
1.02029e-08
-2.21153e-06
-3.5698e-08
-2.19399e-06
-8.21986e-08
-2.16896e-06
-1.28929e-07
-2.13646e-06
-1.75499e-07
-2.09654e-06
-2.21498e-07
-2.04932e-06
-2.66495e-07
-1.99494e-06
-3.10042e-07
-1.93358e-06
-3.51677e-07
-1.86549e-06
-3.90924e-07
-1.79097e-06
-4.273e-07
-1.7104e-06
-4.60325e-07
-1.62421e-06
-4.89526e-07
-1.53291e-06
-5.14449e-07
-1.4371e-06
-5.34674e-07
-1.33744e-06
-5.49822e-07
-1.23469e-06
-5.59578e-07
-1.12965e-06
-5.63699e-07
-1.02321e-06
-5.62029e-07
-9.16291e-07
-5.54514e-07
-8.09868e-07
-5.41212e-07
-7.04927e-07
-5.22297e-07
-6.02453e-07
-4.98067e-07
-5.03415e-07
-4.68936e-07
-4.08735e-07
-4.35435e-07
-3.1927e-07
-3.98191e-07
-2.35794e-07
-3.57918e-07
-1.58976e-07
-3.15393e-07
-8.93633e-08
-2.71426e-07
-2.73762e-08
-2.26847e-07
2.67044e-08
-1.82467e-07
7.27384e-08
-1.39061e-07
1.10726e-07
-9.73396e-08
1.40804e-07
-5.79308e-08
1.63232e-07
-2.13666e-08
1.78398e-07
1.19331e-08
1.8678e-07
4.16533e-08
1.8895e-07
6.75886e-08
1.85551e-07
8.96294e-08
1.77283e-07
1.07742e-07
1.64885e-07
1.21944e-07
1.49128e-07
1.32267e-07
1.30805e-07
1.38724e-07
1.10728e-07
1.41266e-07
8.9731e-08
1.39752e-07
6.86838e-08
1.33919e-07
4.85142e-08
1.2337e-07
3.02466e-08
1.07574e-07
1.50611e-08
8.58923e-08
4.37703e-09
5.76107e-08
2.19559e-08
1.26131e-09
-1.32724e-08
3.45766e-09
-2.96047e-08
5.3996e-09
-3.76192e-08
6.17752e-09
-3.87833e-08
5.08565e-09
-3.43388e-08
1.57298e-09
-2.53816e-08
-4.79759e-09
-1.28603e-08
-1.43794e-08
2.41897e-09
-2.74634e-08
1.97871e-08
-4.42951e-08
3.87067e-08
-6.50869e-08
5.87673e-08
-9.00285e-08
7.96766e-08
-1.19294e-07
1.01248e-07
-1.53045e-07
1.23386e-07
-1.91436e-07
1.4606e-07
-2.34606e-07
1.69284e-07
-2.82676e-07
1.93088e-07
-3.35739e-07
2.17491e-07
-3.93849e-07
2.4248e-07
-4.57006e-07
2.67993e-07
-5.25145e-07
2.93903e-07
-5.98127e-07
3.20018e-07
-6.75726e-07
3.46079e-07
-7.57628e-07
3.71765e-07
-8.43428e-07
3.96706e-07
-9.32632e-07
4.20493e-07
-1.02466e-06
4.42694e-07
-1.11888e-06
4.62869e-07
-1.21457e-06
4.80589e-07
-1.31101e-06
4.95442e-07
-1.40742e-06
5.07058e-07
-1.50304e-06
5.15109e-07
-1.59712e-06
5.19326e-07
-1.68893e-06
5.195e-07
-1.7778e-06
5.15486e-07
-1.8631e-06
5.07203e-07
-1.94426e-06
4.94631e-07
-2.02077e-06
4.77806e-07
-2.09219e-06
4.56816e-07
-2.15812e-06
4.31792e-07
-2.21823e-06
4.02903e-07
-2.27225e-06
3.70349e-07
-2.31991e-06
3.34359e-07
-2.36101e-06
2.95178e-07
-2.39539e-06
2.53072e-07
-2.42287e-06
2.08323e-07
-2.44334e-06
1.61223e-07
-2.45667e-06
1.12082e-07
-2.46277e-06
6.12208e-08
-2.46156e-06
8.98622e-09
-2.45295e-06
-4.43028e-08
-2.43691e-06
-9.82462e-08
-2.41337e-06
-1.5246e-07
-2.38234e-06
-2.06533e-07
-2.34381e-06
-2.60029e-07
-2.29782e-06
-3.12489e-07
-2.24443e-06
-3.6343e-07
-2.18376e-06
-4.12346e-07
-2.11597e-06
-4.58711e-07
-2.04129e-06
-5.01988e-07
-1.95998e-06
-5.41627e-07
-1.87242e-06
-5.77085e-07
-1.77905e-06
-6.07827e-07
-1.68037e-06
-6.33348e-07
-1.57701e-06
-6.5318e-07
-1.46967e-06
-6.66918e-07
-1.35914e-06
-6.7423e-07
-1.24629e-06
-6.74879e-07
-1.13207e-06
-6.68738e-07
-1.01748e-06
-6.55804e-07
-9.03564e-07
-6.36211e-07
-7.91395e-07
-6.10236e-07
-6.82033e-07
-5.78298e-07
-5.76516e-07
-5.40953e-07
-4.75822e-07
-4.98884e-07
-3.80855e-07
-4.52885e-07
-2.92417e-07
-4.03831e-07
-2.11186e-07
-3.52657e-07
-1.37709e-07
-3.00324e-07
-7.2386e-08
-2.47791e-07
-1.54659e-08
-1.95981e-07
3.29529e-08
-1.45758e-07
7.29196e-08
-9.78975e-08
1.04623e-07
-5.307e-08
1.28385e-07
-1.18293e-08
1.44644e-07
2.53947e-08
1.53938e-07
5.82949e-08
1.56895e-07
8.66719e-08
1.54217e-07
1.10421e-07
1.46659e-07
1.29502e-07
1.35024e-07
1.43902e-07
1.20148e-07
1.536e-07
1.02896e-07
1.58517e-07
8.41666e-08
1.58482e-07
6.48971e-08
1.53189e-07
4.60869e-08
1.4218e-07
2.88312e-08
1.2483e-07
1.43719e-08
1.00352e-07
4.16666e-09
6.78159e-08
2.61226e-08
7.87466e-10
-1.40598e-08
1.6881e-09
-3.05054e-08
1.62317e-09
-3.75542e-08
-2.21552e-10
-3.69386e-08
-4.47172e-09
-3.00886e-08
-1.16178e-08
-1.82355e-08
-2.20528e-08
-2.42531e-09
-3.61025e-08
1.64687e-08
-5.40456e-08
3.77301e-08
-7.61272e-08
6.07883e-08
-1.02568e-07
8.52086e-08
-1.33573e-07
1.10681e-07
-1.69331e-07
1.37006e-07
-2.10018e-07
1.64073e-07
-2.55796e-07
1.91838e-07
-3.06802e-07
2.2029e-07
-3.63141e-07
2.49427e-07
-4.24873e-07
2.79223e-07
-4.92002e-07
3.09609e-07
-5.64457e-07
3.40448e-07
-6.42086e-07
3.71532e-07
-7.24643e-07
4.02575e-07
-8.11786e-07
4.33222e-07
-9.03075e-07
4.63054e-07
-9.97975e-07
4.91606e-07
-1.09587e-06
5.18387e-07
-1.19607e-06
5.42893e-07
-1.29783e-06
5.64631e-07
-1.40038e-06
5.83136e-07
-1.50292e-06
5.97984e-07
-1.60467e-06
6.08808e-07
-1.70487e-06
6.15308e-07
-1.8028e-06
6.17254e-07
-1.89779e-06
6.14489e-07
-1.98923e-06
6.06931e-07
-2.07659e-06
5.94561e-07
-2.15939e-06
5.77428e-07
-2.23721e-06
5.5563e-07
-2.30971e-06
5.29313e-07
-2.37658e-06
4.98662e-07
-2.43757e-06
4.63892e-07
-2.49246e-06
4.2524e-07
-2.54106e-06
3.82964e-07
-2.58322e-06
3.37337e-07
-2.61879e-06
2.88643e-07
-2.64765e-06
2.37176e-07
-2.66966e-06
1.83241e-07
-2.68473e-06
1.27153e-07
-2.69275e-06
6.92405e-08
-2.69362e-06
9.84997e-09
-2.68724e-06
-5.06798e-08
-2.67353e-06
-1.11955e-07
-2.65241e-06
-1.7358e-07
-2.62381e-06
-2.35133e-07
-2.58768e-06
-2.96161e-07
-2.54398e-06
-3.56184e-07
-2.49272e-06
-4.14692e-07
-2.43392e-06
-4.71144e-07
-2.36766e-06
-5.24973e-07
-2.29406e-06
-5.75586e-07
-2.21332e-06
-6.22375e-07
-2.12568e-06
-6.6472e-07
-2.0315e-06
-7.02008e-07
-1.93121e-06
-7.33638e-07
-1.82534e-06
-7.59048e-07
-1.71453e-06
-7.77727e-07
-1.59953e-06
-7.89236e-07
-1.48117e-06
-7.93236e-07
-1.36041e-06
-7.89502e-07
-1.23826e-06
-7.77947e-07
-1.11584e-06
-7.58636e-07
-9.94277e-07
-7.31797e-07
-8.74744e-07
-6.9783e-07
-7.58397e-07
-6.573e-07
-6.46353e-07
-6.10928e-07
-5.39664e-07
-5.59575e-07
-4.3928e-07
-5.04215e-07
-3.46033e-07
-4.45904e-07
-2.6061e-07
-3.85746e-07
-1.83546e-07
-3.24855e-07
-1.1521e-07
-2.64318e-07
-5.5804e-08
-2.05164e-07
-5.36894e-09
-1.48333e-07
3.62106e-08
-9.46496e-08
6.91947e-08
-4.48133e-08
9.39799e-08
6.09454e-10
1.1107e-07
4.1205e-08
1.21079e-07
7.66625e-08
1.24705e-07
1.06795e-07
1.22714e-07
1.31492e-07
1.15934e-07
1.50683e-07
1.05234e-07
1.64299e-07
9.15288e-08
1.72223e-07
7.5768e-08
1.74243e-07
5.89486e-08
1.70008e-07
4.21287e-08
1.59e-07
2.64548e-08
1.40504e-07
1.32006e-08
1.13606e-07
3.81581e-09
7.72007e-08
2.99384e-08
2.17122e-10
-1.4277e-08
-4.24571e-10
-2.98637e-08
-2.84735e-09
-3.51315e-08
-7.73154e-09
-3.20544e-08
-1.55948e-08
-2.22253e-08
-2.6844e-08
-6.98631e-09
-4.1815e-08
1.25456e-08
-6.07983e-08
3.54521e-08
-8.40555e-08
6.09873e-08
-1.11828e-07
8.85605e-08
-1.44341e-07
1.17722e-07
-1.81809e-07
1.48149e-07
-2.24431e-07
1.79628e-07
-2.72388e-07
2.1203e-07
-3.25837e-07
2.45286e-07
-3.84897e-07
2.79351e-07
-4.49643e-07
3.14173e-07
-5.20084e-07
3.49664e-07
-5.96151e-07
3.85676e-07
-6.77687e-07
4.21984e-07
-7.64434e-07
4.58279e-07
-8.56029e-07
4.94171e-07
-9.52006e-07
5.29199e-07
-1.0518e-06
5.62846e-07
-1.15475e-06
5.94561e-07
-1.26015e-06
6.2378e-07
-1.3672e-06
6.49948e-07
-1.47511e-06
6.72542e-07
-1.58307e-06
6.91088e-07
-1.69026e-06
7.05178e-07
-1.79593e-06
7.1448e-07
-1.89936e-06
7.1874e-07
-1.9999e-06
7.17791e-07
-2.09696e-06
7.11545e-07
-2.19001e-06
6.99988e-07
-2.27863e-06
6.83175e-07
-2.36241e-06
6.61215e-07
-2.44105e-06
6.34269e-07
-2.51427e-06
6.02533e-07
-2.58184e-06
5.66234e-07
-2.64358e-06
5.25624e-07
-2.6993e-06
4.80967e-07
-2.74888e-06
4.32544e-07
-2.79219e-06
3.80641e-07
-2.8291e-06
3.25554e-07
-2.85951e-06
2.67583e-07
-2.8833e-06
2.07039e-07
-2.90039e-06
1.44236e-07
-2.91065e-06
7.95026e-08
-2.91398e-06
1.31789e-08
-2.91027e-06
-5.43842e-08
-2.89942e-06
-1.22807e-07
-2.88131e-06
-1.9169e-07
-2.85584e-06
-2.60609e-07
-2.82289e-06
-3.29106e-07
-2.78238e-06
-3.96691e-07
-2.73424e-06
-4.62837e-07
-2.6784e-06
-5.2698e-07
-2.61486e-06
-5.88518e-07
-2.54363e-06
-6.46817e-07
-2.46479e-06
-7.01213e-07
-2.37849e-06
-7.51019e-07
-2.28495e-06
-7.95541e-07
-2.18451e-06
-8.34085e-07
-2.07757e-06
-8.65983e-07
-1.96469e-06
-8.90608e-07
-1.84653e-06
-9.07401e-07
-1.72387e-06
-9.15894e-07
-1.59763e-06
-9.15739e-07
-1.46884e-06
-9.06734e-07
-1.33864e-06
-8.88843e-07
-1.20822e-06
-8.62213e-07
-1.07886e-06
-8.2719e-07
-9.51843e-07
-7.8432e-07
-8.28433e-07
-7.34338e-07
-7.09851e-07
-6.78157e-07
-5.97226e-07
-6.1684e-07
-4.91566e-07
-5.51564e-07
-3.93731e-07
-4.83581e-07
-3.04412e-07
-4.14174e-07
-2.24119e-07
-3.44611e-07
-1.53177e-07
-2.76107e-07
-9.17237e-08
-2.09785e-07
-3.97242e-08
-1.46649e-07
3.02307e-09
-8.75606e-08
3.6864e-08
-3.32315e-08
6.2287e-08
1.5782e-08
7.98861e-08
5.90634e-08
9.03585e-08
9.63231e-08
9.44832e-08
1.27367e-07
9.3108e-08
1.52058e-07
8.71371e-08
1.7027e-07
7.75235e-08
1.81837e-07
6.52651e-08
1.86501e-07
5.14082e-08
1.83865e-07
3.70571e-08
1.73351e-07
2.3392e-08
1.54169e-07
1.16935e-08
1.25304e-07
3.37109e-09
8.5523e-08
3.33095e-08
-4.50719e-10
-1.38262e-08
-2.87117e-09
-2.74432e-08
-7.98225e-09
-3.00204e-08
-1.62909e-08
-2.37458e-08
-2.81767e-08
-1.03395e-08
-4.39447e-08
8.78172e-09
-6.38614e-08
3.24623e-08
-8.8175e-08
5.97657e-08
-1.17126e-07
8.99378e-08
-1.50947e-07
1.22382e-07
-1.89868e-07
1.56642e-07
-2.34103e-07
1.92385e-07
-2.83855e-07
2.29379e-07
-3.39297e-07
2.67473e-07
-4.00569e-07
3.06558e-07
-4.6776e-07
3.46541e-07
-5.4089e-07
3.87303e-07
-6.19901e-07
4.28675e-07
-7.04637e-07
4.70412e-07
-7.94836e-07
5.12183e-07
-8.90124e-07
5.53568e-07
-9.90018e-07
5.94065e-07
-1.09393e-06
6.33109e-07
-1.20117e-06
6.70092e-07
-1.311e-06
7.0439e-07
-1.42261e-06
7.35388e-07
-1.53517e-06
7.62503e-07
-1.64784e-06
7.85211e-07
-1.75981e-06
8.03059e-07
-1.87031e-06
8.1568e-07
-1.97862e-06
8.22797e-07
-2.08411e-06
8.24228e-07
-2.1862e-06
8.19877e-07
-2.28438e-06
8.09731e-07
-2.37824e-06
7.93849e-07
-2.46742e-06
7.72351e-07
-2.55161e-06
7.45409e-07
-2.63058e-06
7.13231e-07
-2.7041e-06
6.76057e-07
-2.77202e-06
6.3415e-07
-2.83418e-06
5.87787e-07
-2.89047e-06
5.37255e-07
-2.94077e-06
4.82848e-07
-2.98499e-06
4.24865e-07
-3.02305e-06
3.63607e-07
-3.05484e-06
2.99379e-07
-3.08029e-06
2.3249e-07
-3.09931e-06
1.63252e-07
-3.1118e-06
9.19884e-08
-3.11765e-06
1.90306e-08
-3.11676e-06
-5.52733e-08
-3.10901e-06
-1.30557e-07
-3.09427e-06
-2.06432e-07
-3.0724e-06
-2.82479e-07
-3.04325e-06
-3.58249e-07
-3.00669e-06
-4.33253e-07
-2.96257e-06
-5.06962e-07
-2.91075e-06
-5.788e-07
-2.85112e-06
-6.4815e-07
-2.78359e-06
-7.14345e-07
-2.70812e-06
-7.76679e-07
-2.62473e-06
-8.34409e-07
-2.53351e-06
-8.86765e-07
-2.43463e-06
-9.32966e-07
-2.32838e-06
-9.72234e-07
-2.21517e-06
-1.00382e-06
-2.09554e-06
-1.02703e-06
-1.97019e-06
-1.04124e-06
-1.83997e-06
-1.04597e-06
-1.70586e-06
-1.04085e-06
-1.56899e-06
-1.02571e-06
-1.43062e-06
-1.00058e-06
-1.2921e-06
-9.65711e-07
-1.15484e-06
-9.21585e-07
-1.02025e-06
-8.68919e-07
-8.89762e-07
-8.0865e-07
-7.64691e-07
-7.41911e-07
-6.46262e-07
-6.69993e-07
-5.35543e-07
-5.94299e-07
-4.33423e-07
-5.16294e-07
-3.40586e-07
-4.37448e-07
-2.57507e-07
-3.59187e-07
-1.84446e-07
-2.82846e-07
-1.2146e-07
-2.09635e-07