/*--------------------------------*- C++ -*----------------------------------*\
  =========                 |
  \\      /  F ield         | OpenFOAM: The Open Source CFD Toolbox
   \\    /   O peration     | Website:  https://openfoam.org
    \\  /    A nd           | Version:  9
     \\/     M anipulation  |
\*---------------------------------------------------------------------------*/
FoamFile
{
    format      ascii;
    class       volVectorField;
    location    "3";
    object      U;
}
// * * * * * * * * * * * * * * * * * * * * * * * * * * * * * * * * * * * * * //

dimensions      [0 1 -1 0 0 0 0];

internalField   nonuniform List<vector> 
10000
(
(-7.8333e-06 7.92746e-06 0)
(3.19175e-05 -2.22558e-05 0)
(0.000158042 -4.92171e-05 0)
(0.000332619 -6.41154e-05 0)
(0.000530918 -6.94418e-05 0)
(0.000732762 -6.81846e-05 0)
(0.000922939 -6.26684e-05 0)
(0.00109112 -5.46239e-05 0)
(0.00123088 -4.52917e-05 0)
(0.00133871 -3.55417e-05 0)
(0.00141322 -2.59598e-05 0)
(0.00145451 -1.69067e-05 0)
(0.00146355 -8.57175e-06 0)
(0.00144176 -9.67542e-07 0)
(0.00139055 5.98729e-06 0)
(0.00131106 1.24594e-05 0)
(0.00120392 1.86694e-05 0)
(0.00106915 2.48621e-05 0)
(0.00090612 3.12812e-05 0)
(0.000713545 3.8151e-05 0)
(0.000489594 4.56609e-05 0)
(0.000231996 5.39597e-05 0)
(-6.18152e-05 6.31505e-05 0)
(-0.000394556 7.32933e-05 0)
(-0.00076895 8.44082e-05 0)
(-0.00118759 9.64796e-05 0)
(-0.00165281 0.000109459 0)
(-0.00216657 0.000123268 0)
(-0.00273037 0.000137798 0)
(-0.0033451 0.000152913 0)
(-0.00401097 0.000168442 0)
(-0.00472742 0.000184184 0)
(-0.005493 0.000199903 0)
(-0.0063053 0.000215327 0)
(-0.00716086 0.000230153 0)
(-0.00805513 0.000244045 0)
(-0.0089824 0.00025664 0)
(-0.0099358 0.000267551 0)
(-0.0109073 0.000276376 0)
(-0.0118876 0.000282707 0)
(-0.0128665 0.000286135 0)
(-0.0138327 0.000286264 0)
(-0.014774 0.00028272 0)
(-0.0156776 0.000275167 0)
(-0.0165299 0.000263315 0)
(-0.0173171 0.000246935 0)
(-0.0180252 0.000225872 0)
(-0.0186405 0.00020006 0)
(-0.0191495 0.000169548 0)
(-0.0195397 0.000134539 0)
(-0.0197994 9.5369e-05 0)
(-0.0199187 5.23617e-05 0)
(-0.0198882 6.05451e-06 0)
(-0.0197009 -4.33345e-05 0)
(-0.019353 -9.46556e-05 0)
(-0.0188426 -0.000146933 0)
(-0.0181704 -0.00019917 0)
(-0.0173403 -0.000250278 0)
(-0.0163593 -0.000299102 0)
(-0.0152374 -0.00034446 0)
(-0.0139878 -0.000385181 0)
(-0.0126266 -0.000420153 0)
(-0.0111726 -0.000448368 0)
(-0.00964729 -0.000468969 0)
(-0.0080737 -0.000481296 0)
(-0.00647646 -0.000484923 0)
(-0.00488093 -0.000479691 0)
(-0.00331251 -0.000465728 0)
(-0.00179594 -0.000443453 0)
(-0.00035451 -0.000413588 0)
(0.000990411 -0.000377142 0)
(0.00222028 -0.000335141 0)
(0.00331996 -0.000289032 0)
(0.00427779 -0.000240233 0)
(0.00508608 -0.00019023 0)
(0.0057412 -0.000140432 0)
(0.00624334 -9.21615e-05 0)
(0.00659639 -4.6596e-05 0)
(0.00680753 -4.69648e-06 0)
(0.0068867 3.28052e-05 0)
(0.00684602 6.5416e-05 0)
(0.00669916 9.28907e-05 0)
(0.00646074 0.000115206 0)
(0.00614563 0.000132535 0)
(0.00576851 0.00014522 0)
(0.0053433 0.000153735 0)
(0.00488282 0.000158641 0)
(0.00439851 0.000160543 0)
(0.00390033 0.000160042 0)
(0.00339679 0.000157678 0)
(0.00289514 0.000153863 0)
(0.00240185 0.00014879 0)
(0.00192325 0.000142326 0)
(0.00146651 0.000133871 0)
(0.00104092 0.000122192 0)
(0.000659422 0.000105303 0)
(0.000339636 8.06239e-05 0)
(0.000103129 4.59021e-05 0)
(-2.57056e-05 2.67272e-06 0)
(-2.99906e-05 -3.02373e-05 0)
(2.21288e-05 -3.15619e-05 0)
(0.000170828 -0.000170795 0)
(0.000483282 -0.000283839 0)
(0.000886745 -0.000349513 0)
(0.00133255 -0.000373474 0)
(0.00178125 -0.000365081 0)
(0.0022001 -0.000333257 0)
(0.00256455 -0.000285632 0)
(0.00285772 -0.000228314 0)
(0.00306897 -0.000165969 0)
(0.00319249 -0.000101983 0)
(0.003226 -3.8607e-05 0)
(0.00316955 2.29065e-05 0)
(0.0030244 8.20721e-05 0)
(0.00279207 0.000139093 0)
(0.00247371 0.000194661 0)
(0.00206958 0.000249786 0)
(0.00157867 0.000305638 0)
(0.000998665 0.000363408 0)
(0.000325963 0.00042419 0)
(-0.000444148 0.000488889 0)
(-0.00131719 0.000558171 0)
(-0.00229914 0.000632429 0)
(-0.00339608 0.000711777 0)
(-0.00461378 0.000796063 0)
(-0.00595738 0.000884879 0)
(-0.00743098 0.000977583 0)
(-0.00903737 0.00107331 0)
(-0.0107777 0.00117101 0)
(-0.0126512 0.00126939 0)
(-0.0146551 0.001367 0)
(-0.0167839 0.00146221 0)
(-0.01903 0.00155321 0)
(-0.0213826 0.00163803 0)
(-0.0238285 0.0017146 0)
(-0.0263513 0.00178075 0)
(-0.028932 0.00183425 0)
(-0.0315486 0.00187287 0)
(-0.0341768 0.00189445 0)
(-0.0367895 0.0018969 0)
(-0.0393579 0.0018783 0)
(-0.0418513 0.00183696 0)
(-0.0442376 0.00177144 0)
(-0.0464841 0.00168065 0)
(-0.0485576 0.00156387 0)
(-0.0504253 0.00142081 0)
(-0.052055 0.00125164 0)
(-0.0534163 0.00105704 0)
(-0.0544805 0.000838271 0)
(-0.0552218 0.000597181 0)
(-0.055618 0.000335992 0)
(-0.0556506 5.69925e-05 0)
(-0.0553046 -0.000234297 0)
(-0.0545696 -0.000535445 0)
(-0.053442 -0.000841752 0)
(-0.0519235 -0.00114813 0)
(-0.0500218 -0.00144926 0)
(-0.0477504 -0.00173956 0)
(-0.0451296 -0.00201334 0)
(-0.0421855 -0.00226491 0)
(-0.0389506 -0.00248876 0)
(-0.0354629 -0.00267973 0)
(-0.0317659 -0.0028332 0)
(-0.0279074 -0.00294526 0)
(-0.023939 -0.00301292 0)
(-0.019915 -0.00303422 0)
(-0.0158911 -0.00300839 0)
(-0.0119234 -0.00293595 0)
(-0.0080668 -0.00281872 0)
(-0.00437376 -0.00265983 0)
(-0.000892952 -0.0024637 0)
(0.00233198 -0.00223558 0)
(0.00526376 -0.00198176 0)
(0.00787226 -0.00170912 0)
(0.0101352 -0.00142511 0)
(0.0120388 -0.0011369 0)
(0.0135774 -0.000851511 0)
(0.0147537 -0.000575505 0)
(0.015578 -0.000314611 0)
(0.0160677 -7.35926e-05 0)
(0.0162458 0.000143867 0)
(0.0161402 0.000335246 0)
(0.0157819 0.000499219 0)
(0.0152043 0.000635499 0)
(0.0144413 0.000744803 0)
(0.0135264 0.000828674 0)
(0.0124919 0.000889271 0)
(0.0113678 0.000929134 0)
(0.0101814 0.00095091 0)
(0.0089577 0.000957027 0)
(0.00771909 0.000949331 0)
(0.00648657 0.000928659 0)
(0.0052809 0.00089438 0)
(0.00412431 0.000843945 0)
(0.00304255 0.000772537 0)
(0.00206682 0.000673199 0)
(0.00123421 0.000538206 0)
(0.000584588 0.000362885 0)
(0.000159472 0.000155747 0)
(4.21296e-06 -2.54681e-05 0)
(4.93519e-05 -0.000157683 0)
(0.00028524 -0.000483496 0)
(0.000729802 -0.00072705 0)
(0.00127953 -0.000867993 0)
(0.00187038 -0.000915741 0)
(0.00245262 -0.000887304 0)
(0.00298361 -0.000800786 0)
(0.00342997 -0.000672847 0)
(0.00376751 -0.000517599 0)
(0.00397984 -0.000346306 0)
(0.00405682 -0.000167426 0)
(0.00399302 1.3203e-05 0)
(0.00378612 0.000192114 0)
(0.00343557 0.000367797 0)
(0.00294146 0.000540424 0)
(0.00230349 0.000711407 0)
(0.00152033 0.000882976 0)
(0.000589208 0.00105778 0)
(-0.000494197 0.00123854 0)
(-0.0017357 0.00142772 0)
(-0.00314231 0.00162728 0)
(-0.00472178 0.00183857 0)
(-0.00648207 0.0020622 0)
(-0.00843083 0.002298 0)
(-0.0105747 0.00254505 0)
(-0.012919 0.00280172 0)
(-0.0154668 0.00306572 0)
(-0.0182187 0.00333411 0)
(-0.0211724 0.0036034 0)
(-0.0243222 0.00386954 0)
(-0.0276588 0.00412803 0)
(-0.0311689 0.00437392 0)
(-0.034835 0.00460192 0)
(-0.0386356 0.00480647 0)
(-0.0425449 0.00498182 0)
(-0.046533 0.00512221 0)
(-0.0505663 0.00522193 0)
(-0.0546075 0.0052755 0)
(-0.0586166 0.00527781 0)
(-0.0625507 0.00522427 0)
(-0.0663652 0.00511092 0)
(-0.0700142 0.00493458 0)
(-0.0734514 0.00469297 0)
(-0.0766305 0.0043848 0)
(-0.0795066 0.00400984 0)
(-0.0820361 0.00356904 0)
(-0.0841783 0.00306452 0)
(-0.0858955 0.00249962 0)
(-0.087154 0.00187896 0)
(-0.0879248 0.00120842 0)
(-0.0881847 0.000494914 0)
(-0.0879137 -0.000254492 0)
(-0.0870989 -0.00102776 0)
(-0.085736 -0.00181591 0)
(-0.0838257 -0.00260812 0)
(-0.081376 -0.00339241 0)
(-0.0784024 -0.00415625 0)
(-0.0749279 -0.00488681 0)
(-0.0709827 -0.00557115 0)
(-0.0666043 -0.00619652 0)
(-0.0618371 -0.00675072 0)
(-0.0567322 -0.00722239 0)
(-0.0513465 -0.00760136 0)
(-0.0457423 -0.00787908 0)
(-0.0399861 -0.0080489 0)
(-0.0341479 -0.00810642 0)
(-0.0282996 -0.00804979 0)
(-0.0225136 -0.00787985 0)
(-0.0168617 -0.0076003 0)
(-0.0114133 -0.00721768 0)
(-0.00623383 -0.00674129 0)
(-0.00138326 -0.00618288 0)
(0.00308542 -0.00555626 0)
(0.00712716 -0.00487666 0)
(0.0107065 -0.00416142 0)
(0.0137982 -0.00342731 0)
(0.0163871 -0.00269123 0)
(0.0184688 -0.00196949 0)
(0.0200496 -0.00127681 0)
(0.021145 -0.000626043 0)
(0.0217796 -2.77303e-05 0)
(0.0219854 0.00051013 0)
(0.0218003 0.000982314 0)
(0.0212666 0.00138616 0)
(0.0204292 0.00172152 0)
(0.0193343 0.00199044 0)
(0.0180277 0.00219671 0)
(0.0165536 0.00234528 0)
(0.0149538 0.00244163 0)
(0.0132678 0.00249094 0)
(0.0115322 0.00249722 0)
(0.00978214 0.00246234 0)
(0.00805211 0.00238507 0)
(0.00637803 0.00226031 0)
(0.00479907 0.00207878 0)
(0.0033595 0.0018279 0)
(0.00210839 0.00149515 0)
(0.00109534 0.00107526 0)
(0.000377846 0.000585117 0)
(5.06473e-05 0.000108815 0)
(6.52181e-05 -0.000333701 0)
(0.000354722 -0.000889945 0)
(0.000878073 -0.00127837 0)
(0.00150471 -0.00149313 0)
(0.00215847 -0.0015528 0)
(0.002783 -0.00148417 0)
(0.0033299 -0.00131561 0)
(0.00376057 -0.00107369 0)
(0.00404617 -0.000781421 0)
(0.00416615 -0.000457559 0)
(0.00410672 -0.000116464 0)
(0.0038592 0.000231756 0)
(0.00341842 0.000580867 0)
(0.00278127 0.000928074 0)
(0.00194537 0.00127335 0)
(0.000908097 0.0016188 0)
(-0.000334181 0.00196791 0)
(-0.00178647 0.00232488 0)
(-0.00345527 0.00269399 0)
(-0.00534834 0.003079 0)
(-0.00747433 0.00348277 0)
(-0.00984218 0.00390696 0)
(-0.0124604 0.00435185 0)
(-0.0153363 0.00481628 0)
(-0.0184753 0.00529764 0)
(-0.0218802 0.005792 0)
(-0.0255504 0.00629413 0)
(-0.0294813 0.00679767 0)
(-0.033664 0.00729521 0)
(-0.0380849 0.00777842 0)
(-0.0427249 0.0082382 0)
(-0.04756 0.00866484 0)
(-0.0525607 0.00904819 0)
(-0.0576923 0.00937788 0)
(-0.0629155 0.00964353 0)
(-0.0681862 0.00983505 0)
(-0.0734566 0.00994285 0)
(-0.0786756 0.00995813 0)
(-0.0837899 0.0098731 0)
(-0.0887445 0.00968126 0)
(-0.0934836 0.00937751 0)
(-0.0979518 0.00895842 0)
(-0.102095 0.00842228 0)
(-0.105861 0.00776923 0)
(-0.109199 0.00700134 0)
(-0.112065 0.00612257 0)
(-0.114417 0.00513883 0)
(-0.116216 0.00405793 0)
(-0.117433 0.00288946 0)
(-0.11804 0.00164456 0)
(-0.11802 0.000336517 0)
(-0.117357 -0.00101721 0)
(-0.116042 -0.00240378 0)
(-0.11408 -0.00380509 0)
(-0.111475 -0.00520245 0)
(-0.108243 -0.0065764 0)
(-0.104404 -0.00790683 0)
(-0.0999883 -0.0091733 0)
(-0.095031 -0.0103554 0)
(-0.0895753 -0.0114332 0)
(-0.0836712 -0.0123874 0)
(-0.0773754 -0.0132004 0)
(-0.0707502 -0.0138561 0)
(-0.0638637 -0.014341 0)
(-0.0567886 -0.0146445 0)
(-0.0496013 -0.0147591 0)
(-0.0423809 -0.0146814 0)
(-0.0352077 -0.0144121 0)
(-0.0281621 -0.0139561 0)
(-0.0213231 -0.013323 0)
(-0.0147662 -0.0125266 0)
(-0.00856233 -0.0115848 0)
(-0.00277571 -0.0105191 0)
(0.00253627 -0.00935389 0)
(0.00732618 -0.00811605 0)
(0.0115577 -0.00683354 0)
(0.0152042 -0.00553441 0)
(0.0182513 -0.00424672 0)
(0.0206964 -0.00299612 0)
(0.0225484 -0.00180585 0)
(0.0238266 -0.000695852 0)
(0.0245604 0.000317878 0)
(0.0247873 0.00122352 0)
(0.0245517 0.00201386 0)
(0.0239029 0.00268582 0)
(0.0228935 0.00324018 0)
(0.0215776 0.00368096 0)
(0.0200094 0.00401456 0)
(0.0182419 0.00424865 0)
(0.0163261 0.00439086 0)
(0.0143113 0.00444729 0)
(0.012245 0.004421 0)
(0.0101742 0.00431049 0)
(0.00814654 0.00410863 0)
(0.00621249 0.00380242 0)
(0.0044267 0.00337447 0)
(0.00284784 0.00280758 0)
(0.00153496 0.00209367 0)
(0.000565538 0.00124989 0)
(8.93892e-05 0.000359094 0)
(7.22031e-05 -0.000536345 0)
(0.000384259 -0.00134303 0)
(0.000934935 -0.0018746 0)
(0.00157504 -0.00214877 0)
(0.00221935 -0.00219859 0)
(0.00280685 -0.00206317 0)
(0.00328577 -0.00178214 0)
(0.0036146 -0.00139229 0)
(0.00376172 -0.000925656 0)
(0.00370376 -0.000408598 0)
(0.00342401 0.000138514 0)
(0.00291087 0.000701174 0)
(0.0021562 0.00127032 0)
(0.00115393 0.00184171 0)
(-0.000101227 0.00241504 0)
(-0.00161471 0.00299297 0)
(-0.0033928 0.00358013 0)
(-0.00544288 0.00418207 0)
(-0.00777345 0.00480426 0)
(-0.0103937 0.00545136 0)
(-0.0133132 0.0061265 0)
(-0.0165406 0.00683088 0)
(-0.0200833 0.00756352 0)
(-0.0239463 0.00832115 0)
(-0.0281315 0.00909826 0)
(-0.0326363 0.00988723 0)
(-0.0374538 0.0106785 0)
(-0.0425713 0.0114607 0)
(-0.0479704 0.0122211 0)
(-0.0536267 0.0129458 0)
(-0.0595092 0.0136197 0)
(-0.065581 0.0142273 0)
(-0.0717995 0.0147529 0)
(-0.0781163 0.0151808 0)
(-0.0844787 0.0154959 0)
(-0.09083 0.0156842 0)
(-0.0971105 0.0157327 0)
(-0.103259 0.0156305 0)
(-0.109212 0.0153684 0)
(-0.114909 0.0149395 0)
(-0.120289 0.0143397 0)
(-0.125292 0.0135669 0)
(-0.129864 0.0126221 0)
(-0.133953 0.0115088 0)
(-0.137511 0.0102331 0)
(-0.140496 0.00880365 0)
(-0.142872 0.0072315 0)
(-0.144605 0.00553008 0)
(-0.145672 0.00371487 0)
(-0.146052 0.00180325 0)
(-0.145729 -0.000185017 0)
(-0.144697 -0.00222607 0)
(-0.142957 -0.00430057 0)
(-0.140512 -0.00638347 0)
(-0.137372 -0.00844912 0)
(-0.133555 -0.0104711 0)
(-0.129085 -0.0124224 0)
(-0.123994 -0.0142755 0)
(-0.118317 -0.0160032 0)
(-0.112099 -0.0175787 0)
(-0.105389 -0.0189763 0)
(-0.0982454 -0.0201719 0)
(-0.0907294 -0.0211439 0)
(-0.0829097 -0.0218733 0)
(-0.0748597 -0.0223453 0)
(-0.0666574 -0.0225488 0)
(-0.058384 -0.022478 0)
(-0.0501233 -0.0221325 0)
(-0.0419599 -0.0215176 0)
(-0.0339784 -0.0206445 0)
(-0.0262612 -0.0195305 0)
(-0.0188871 -0.0181986 0)
(-0.0119298 -0.016677 0)
(-0.00545621 -0.0149988 0)
(0.000475397 -0.0131997 0)
(0.00581708 -0.0113187 0)
(0.0105307 -0.00939486 0)
(0.0145904 -0.0074691 0)
(0.0179833 -0.0055787 0)
(0.020708 -0.00375871 0)
(0.0227755 -0.0020402 0)
(0.024208 -0.000449223 0)
(0.0250381 0.000993731 0)
(0.0253073 0.00227438 0)
(0.0250644 0.00338444 0)
(0.0243636 0.00432118 0)
(0.0232629 0.00508684 0)
(0.0218223 0.00568753 0)
(0.0201024 0.00613173 0)
(0.0181635 0.0064285 0)
(0.0160647 0.00658547 0)
(0.0138641 0.0066067 0)
(0.0116194 0.0064907 0)
(0.00938875 0.00622896 0)
(0.00723228 0.00580556 0)
(0.00521408 0.0051988 0)
(0.00340221 0.00438588 0)
(0.00186635 0.00335171 0)
(0.000704789 0.00210303 0)
(0.00011671 0.000699172 0)
(7.29544e-05 -0.000746168 0)
(0.000381197 -0.00180285 0)
(0.000912044 -0.00246349 0)
(0.00150739 -0.00277373 0)
(0.00207658 -0.00278501 0)
(0.00255572 -0.00255096 0)
(0.00289138 -0.00212341 0)
(0.00304079 -0.00154961 0)
(0.00297087 -0.000870462 0)
(0.00265645 -0.000119667 0)
(0.00207862 0.000676655 0)
(0.00122316 0.00149982 0)
(7.90848e-05 0.00233806 0)
(-0.00136269 0.00318574 0)
(-0.0031105 0.00404222 0)
(-0.00517272 0.0049106 0)
(-0.00755826 0.00579633 0)
(-0.0102767 0.00670583 0)
(-0.0133379 0.00764521 0)
(-0.0167519 0.00861919 0)
(-0.0205276 0.00963019 0)
(-0.024672 0.0106778 0)
(-0.0291896 0.0117585 0)
(-0.0340806 0.0128655 0)
(-0.0393407 0.0139888 0)
(-0.0449599 0.0151157 0)
(-0.0509216 0.0162306 0)
(-0.0572029 0.0173159 0)
(-0.0637734 0.0183522 0)
(-0.0705961 0.0193187 0)
(-0.0776268 0.020194 0)
(-0.0848155 0.0209564 0)
(-0.0921062 0.0215845 0)
(-0.0994386 0.0220579 0)
(-0.106749 0.0223577 0)
(-0.113971 0.022467 0)
(-0.121037 0.0223715 0)
(-0.12788 0.0220597 0)
(-0.134436 0.0215233 0)
(-0.140639 0.0207573 0)
(-0.146432 0.0197601 0)
(-0.151757 0.0185335 0)
(-0.156563 0.0170828 0)
(-0.160805 0.0154163 0)
(-0.164442 0.0135454 0)
(-0.167437 0.0114841 0)
(-0.169762 0.00924934 0)
(-0.171392 0.00686016 0)
(-0.172308 0.00433799 0)
(-0.172496 0.00170639 0)
(-0.171946 -0.00100932 0)
(-0.170654 -0.00378335 0)
(-0.168625 -0.00658591 0)
(-0.165862 -0.00938708 0)
(-0.162379 -0.0121557 0)
(-0.158192 -0.0148595 0)
(-0.153323 -0.0174653 0)
(-0.147801 -0.0199396 0)
(-0.141661 -0.0222489 0)
(-0.134942 -0.0243599 0)
(-0.127692 -0.0262407 0)
(-0.119963 -0.027861 0)
(-0.111815 -0.029193 0)
(-0.103314 -0.0302124 0)
(-0.0945303 -0.0308988 0)
(-0.0855413 -0.0312372 0)
(-0.076428 -0.0312181 0)
(-0.0672756 -0.0308387 0)
(-0.0581712 -0.0301034 0)
(-0.0492034 -0.0290239 0)
(-0.04046 -0.0276197 0)
(-0.0320268 -0.0259173 0)
(-0.0239854 -0.0239507 0)
(-0.0164121 -0.0217598 0)
(-0.0093753 -0.0193895 0)
(-0.00293356 -0.0168886 0)
(0.00286264 -0.0143082 0)
(0.0079759 -0.0116999 0)
(0.0123827 -0.00911418 0)
(0.01607 -0.00659878 0)
(0.0190385 -0.00419698 0)
(0.0213014 -0.00194639 0)
(0.0228836 0.000122165 0)
(0.0238208 0.00198508 0)
(0.0241578 0.00362673 0)
(0.0239471 0.00503859 0)
(0.023247 0.00621894 0)
(0.0221201 0.00717155 0)
(0.0206318 0.00790394 0)
(0.0188483 0.00842518 0)
(0.0168364 0.00874343 0)
(0.0146628 0.00886324 0)
(0.0123942 0.00878305 0)
(0.0100978 0.0084932 0)
(0.00784278 0.00797522 0)
(0.0057022 0.00720293 0)
(0.00375367 0.00614641 0)
(0.00207806 0.0047793 0)
(0.000792376 0.00308976 0)
(0.000132986 0.00110078 0)
(6.92139e-05 -0.000947334 0)
(0.000351432 -0.00223302 0)
(0.000820123 -0.00299536 0)
(0.00131742 -0.00330942 0)
(0.00175117 -0.00324715 0)
(0.0020566 -0.00287816 0)
(0.00218033 -0.00226709 0)
(0.00207958 -0.00147158 0)
(0.00172088 -0.000541046 0)
(0.00107804 0.000484003 0)
(0.000130491 0.00157221 0)
(-0.00113822 0.00270113 0)
(-0.00274171 0.00385662 0)
(-0.00469199 0.00503176 0)
(-0.00700029 0.00622553 0)
(-0.00967773 0.00744122 0)
(-0.0127355 0.00868462 0)
(-0.0161846 0.00996235 0)
(-0.0200358 0.0112802 0)
(-0.0242983 0.0126418 0)
(-0.0289789 0.0140476 0)
(-0.0340813 0.015494 0)
(-0.0396044 0.0169733 0)
(-0.0455418 0.0184737 0)
(-0.0518803 0.019979 0)
(-0.0585998 0.0214697 0)
(-0.0656725 0.022923 0)
(-0.0730628 0.024314 0)
(-0.0807274 0.0256157 0)
(-0.0886159 0.0268004 0)
(-0.0966714 0.02784 0)
(-0.104832 0.0287072 0)
(-0.11303 0.0293762 0)
(-0.121196 0.0298232 0)
(-0.12926 0.0300274 0)
(-0.137151 0.0299714 0)
(-0.144798 0.0296414 0)
(-0.152135 0.029028 0)
(-0.159099 0.028126 0)
(-0.16563 0.0269342 0)
(-0.171675 0.0254558 0)
(-0.177183 0.0236976 0)
(-0.182113 0.0216701 0)
(-0.186426 0.0193873 0)
(-0.19009 0.016866 0)
(-0.193076 0.0141256 0)
(-0.195363 0.0111882 0)
(-0.196931 0.00807782 0)
(-0.197768 0.00482069 0)
(-0.197861 0.00144499 0)
(-0.197206 -0.00201953 0)
(-0.195799 -0.00554229 0)
(-0.193643 -0.00908943 0)
(-0.190742 -0.0126264 0)
(-0.187106 -0.0161173 0)
(-0.182748 -0.0195248 0)
(-0.177686 -0.0228107 0)
(-0.171944 -0.0259358 0)
(-0.16555 -0.0288609 0)
(-0.158539 -0.0315466 0)
(-0.150952 -0.0339547 0)
(-0.142837 -0.0360484 0)
(-0.134246 -0.0377934 0)
(-0.125242 -0.0391589 0)
(-0.115893 -0.0401186 0)
(-0.106272 -0.0406519 0)
(-0.0964594 -0.0407445 0)
(-0.086541 -0.04039 0)
(-0.0766058 -0.0395902 0)
(-0.0667458 -0.0383559 0)
(-0.0570541 -0.0367069 0)
(-0.0476229 -0.0346725 0)
(-0.0385422 -0.0322908 0)
(-0.0298972 -0.0296076 0)
(-0.0217666 -0.0266758 0)
(-0.0142205 -0.0235536 0)
(-0.00732008 -0.0203037 0)
(-0.00111436 -0.0169883 0)
(0.00436042 -0.0136713 0)
(0.00908044 -0.0104135 0)
(0.0130355 -0.00727108 0)
(0.0162289 -0.00429442 0)
(0.0186765 -0.00152619 0)
(0.020407 0.000999328 0)
(0.0214591 0.00325668 0)
(0.0218812 0.00522994 0)
(0.0217301 0.00691128 0)
(0.0210682 0.00830002 0)
(0.0199628 0.00940076 0)
(0.0184843 0.010221 0)
(0.0167047 0.010768 0)
(0.0146974 0.011046 0)
(0.0125366 0.0110529 0)
(0.0102973 0.0107776 0)
(0.00805708 0.0101991 0)
(0.00589757 0.00928598 0)
(0.00390573 0.00799989 0)
(0.00217309 0.00630014 0)
(0.000831312 0.00415158 0)
(0.000139662 0.00153581 0)
(6.19877e-05 -0.00112703 0)
(0.000298988 -0.00260142 0)
(0.000667356 -0.00342472 0)
(0.00101764 -0.00370131 0)
(0.00126017 -0.00352448 0)
(0.00133161 -0.00298033 0)
(0.00118025 -0.00214626 0)
(0.000764604 -0.00108992 0)
(5.16549e-05 0.000131417 0)
(-0.000985183 0.00147119 0)
(-0.0023677 0.00289348 0)
(-0.00411423 0.00437266 0)
(-0.00624078 0.00589254 0)
(-0.00876196 0.00744508 0)
(-0.0116916 0.00902877 0)
(-0.015043 0.0106466 0)
(-0.0188288 0.0123042 0)
(-0.0230609 0.0140072 0)
(-0.0277491 0.01576 0)
(-0.0329005 0.0175636 0)
(-0.0385181 0.0194147 0)
(-0.0445997 0.021305 0)
(-0.051137 0.0232208 0)
(-0.058114 0.0251432 0)
(-0.0655071 0.0270488 0)
(-0.073284 0.0289098 0)
(-0.0814042 0.0306954 0)
(-0.0898189 0.0323724 0)
(-0.0984719 0.0339067 0)
(-0.1073 0.0352638 0)
(-0.116236 0.0364104 0)
(-0.125208 0.0373149 0)
(-0.134141 0.0379491 0)
(-0.142963 0.038288 0)
(-0.151599 0.0383116 0)
(-0.15998 0.0380041 0)
(-0.168037 0.0373553 0)
(-0.175711 0.0363598 0)
(-0.182942 0.0350173 0)
(-0.189681 0.0333321 0)
(-0.195881 0.0313128 0)
(-0.201504 0.0289721 0)
(-0.206514 0.026326 0)
(-0.210882 0.0233935 0)
(-0.214583 0.0201963 0)
(-0.217597 0.0167584 0)
(-0.219904 0.0131058 0)
(-0.221493 0.00926619 0)
(-0.22235 0.00526929 0)
(-0.222467 0.00114641 0)
(-0.221838 -0.00306943 0)
(-0.22046 -0.00734426 0)
(-0.21833 -0.0116414 0)
(-0.215452 -0.015923 0)
(-0.211828 -0.0201492 0)
(-0.207468 -0.0242788 0)
(-0.202383 -0.0282689 0)
(-0.196591 -0.0320755 0)
(-0.190111 -0.0356536 0)
(-0.182973 -0.0389581 0)
(-0.175209 -0.041944 0)
(-0.166859 -0.0445679 0)
(-0.157972 -0.0467882 0)
(-0.148601 -0.0485668 0)
(-0.138812 -0.0498705 0)
(-0.128673 -0.0506715 0)
(-0.118264 -0.0509495 0)
(-0.107669 -0.0506926 0)
(-0.0969783 -0.0498984 0)
(-0.0862881 -0.0485751 0)
(-0.0756961 -0.0467414 0)
(-0.0653016 -0.0444275 0)
(-0.0552027 -0.0416744 0)
(-0.0454946 -0.0385329 0)
(-0.0362667 -0.0350628 0)
(-0.027601 -0.0313314 0)
(-0.0195703 -0.0274113 0)
(-0.0122357 -0.0233773 0)
(-0.00564592 -0.0193057 0)
(0.000163822 -0.0152709 0)
(0.00517235 -0.0113429 0)
(0.0093727 -0.0075855 0)
(0.0127718 -0.00405448 0)
(0.0153897 -0.000796206 0)
(0.0172591 0.00215287 0)
(0.0184236 0.00476723 0)
(0.0189362 0.00703115 0)
(0.018858 0.00893757 0)
(0.0182565 0.0104864 0)
(0.017204 0.0116816 0)
(0.0157764 0.0125284 0)
(0.0140521 0.0130294 0)
(0.0121111 0.0131811 0)
(0.0100356 0.0129705 0)
(0.00791058 0.0123733 0)
(0.00582557 0.0113527 0)
(0.00387615 0.00986062 0)
(0.00216304 0.00784077 0)
(0.000827672 0.00523335 0)
(0.000138437 0.00197918 0)
(5.17473e-05 -0.00127427 0)
(0.000226229 -0.00287934 0)
(0.00045927 -0.00370999 0)
(0.000617233 -0.00389919 0)
(0.000616862 -0.0035612 0)
(0.000398613 -0.00279821 0)
(-8.5776e-05 -0.00169972 0)
(-0.000875343 -0.000342489 0)
(-0.00200185 0.00120935 0)
(-0.00349176 0.00290409 0)
(-0.00536773 0.00470209 0)
(-0.00764964 0.00657513 0)
(-0.0103555 0.00850532 0)
(-0.0135022 0.0104836 0)
(-0.0171055 0.0125076 0)
(-0.02118 0.0145796 0)
(-0.0257392 0.0167038 0)
(-0.0307939 0.0188839 0)
(-0.0363518 0.0211211 0)
(-0.0424158 0.0234122 0)
(-0.0489832 0.0257484 0)
(-0.0560438 0.0281145 0)
(-0.0635797 0.0304892 0)
(-0.071564 0.0328454 0)
(-0.0799606 0.0351505 0)
(-0.0887244 0.0373682 0)
(-0.0978019 0.039459 0)
(-0.107132 0.0413824 0)
(-0.116646 0.0430974 0)
(-0.126271 0.0445645 0)
(-0.135933 0.045747 0)
(-0.145555 0.0466117 0)
(-0.155058 0.0471301 0)
(-0.164371 0.0472794 0)
(-0.173422 0.0470422 0)
(-0.182146 0.0464076 0)
(-0.190482 0.0453703 0)
(-0.198378 0.0439307 0)
(-0.205785 0.0420944 0)
(-0.212661 0.0398719 0)
(-0.218971 0.0372775 0)
(-0.224683 0.0343291 0)
(-0.229772 0.0310475 0)
(-0.234215 0.027456 0)
(-0.237992 0.0235798 0)
(-0.241088 0.0194462 0)
(-0.243488 0.0150838 0)
(-0.24518 0.0105227 0)
(-0.246153 0.00579465 0)
(-0.246398 0.000932803 0)
(-0.245908 -0.00402785 0)
(-0.244676 -0.00905126 0)
(-0.242697 -0.0140988 0)
(-0.239968 -0.01913 0)
(-0.236489 -0.0241024 0)
(-0.232261 -0.0289712 0)
(-0.227289 -0.0336898 0)
(-0.221583 -0.0382095 0)
(-0.215155 -0.0424802 0)
(-0.208025 -0.0464509 0)
(-0.200218 -0.05007 0)
(-0.191766 -0.0532868 0)
(-0.182708 -0.056052 0)
(-0.173092 -0.0583194 0)
(-0.162975 -0.0600473 0)
(-0.152423 -0.0611997 0)
(-0.14151 -0.0617485 0)
(-0.13032 -0.0616744 0)
(-0.118943 -0.0609691 0)
(-0.107478 -0.0596358 0)
(-0.0960274 -0.0576905 0)
(-0.0846974 -0.0551624 0)
(-0.073595 -0.0520937 0)
(-0.062826 -0.0485391 0)
(-0.0524917 -0.0445644 0)
(-0.0426869 -0.040245 0)
(-0.0334974 -0.0356636 0)
(-0.0249977 -0.0309074 0)
(-0.0172494 -0.0260658 0)
(-0.0103001 -0.021227 0)
(-0.00418248 -0.0164757 0)
(0.00108612 -0.0118902 0)
(0.00550332 -0.0075404 0)
(0.00908118 -0.00348613 0)
(0.0118456 0.000224267 0)
(0.0138348 0.0035538 0)
(0.015098 0.00647725 0)
(0.015694 0.00897953 0)
(0.0156896 0.0110541 0)
(0.0151581 0.0127 0)
(0.0141776 0.0139186 0)
(0.0128304 0.0147098 0)
(0.0112015 0.0150675 0)
(0.00937903 0.0149762 0)
(0.00745441 0.0144076 0)
(0.00552438 0.0133189 0)
(0.00369177 0.0116523 0)
(0.00206454 0.00933604 0)
(0.000789068 0.00628701 0)
(0.000131046 0.00240995 0)
(3.86317e-05 -0.00137895 0)
(0.00013435 -0.00304021 0)
(0.000199342 -0.00381263 0)
(0.000122774 -0.00385644 0)
(-0.000168402 -0.00330573 0)
(-0.000727544 -0.00227741 0)
(-0.00159771 -0.000871727 0)
(-0.00281435 0.000826881 0)
(-0.00440733 0.00274872 0)
(-0.00640254 0.00483808 0)
(-0.00882313 0.00705247 0)
(-0.0116902 0.00936167 0)
(-0.0150235 0.0117464 0)
(-0.0188413 0.0141963 0)
(-0.0231606 0.0167079 0)
(-0.0279965 0.0192817 0)
(-0.0333614 0.0219195 0)
(-0.0392641 0.0246213 0)
(-0.0457078 0.0273834 0)
(-0.0526898 0.0301965 0)
(-0.0601989 0.0330442 0)
(-0.0682157 0.0359029 0)
(-0.0767107 0.0387422 0)
(-0.0856447 0.0415252 0)
(-0.0949689 0.0442101 0)
(-0.104625 0.0467516 0)
(-0.114548 0.0491026 0)
(-0.124666 0.0512158 0)
(-0.134902 0.0530458 0)
(-0.145177 0.0545503 0)
(-0.155411 0.0556916 0)
(-0.165528 0.0564377 0)
(-0.175452 0.056763 0)
(-0.185114 0.0566488 0)
(-0.194451 0.0560832 0)
(-0.203404 0.0550614 0)
(-0.211923 0.0535844 0)
(-0.219963 0.0516592 0)
(-0.227487 0.0492975 0)
(-0.234463 0.0465155 0)
(-0.240861 0.0433325 0)
(-0.24666 0.0397707 0)
(-0.251838 0.0358547 0)
(-0.25638 0.0316107 0)
(-0.260269 0.0270664 0)
(-0.263493 0.0222508 0)
(-0.266038 0.0171942 0)
(-0.267895 0.0119278 0)
(-0.269051 0.0064842 0)
(-0.269497 0.000897594 0)
(-0.269222 -0.00479631 0)
(-0.268219 -0.0105602 0)
(-0.266479 -0.0163541 0)
(-0.263994 -0.0221362 0)
(-0.260758 -0.0278619 0)
(-0.256766 -0.0334838 0)
(-0.252017 -0.0389521 0)
(-0.246513 -0.0442143 0)
(-0.240257 -0.0492156 0)
(-0.23326 -0.0538992 0)
(-0.225538 -0.0582072 0)
(-0.217112 -0.0620814 0)
(-0.208012 -0.0654645 0)
(-0.198277 -0.0683013 0)
(-0.187956 -0.0705407 0)
(-0.177106 -0.072137 0)
(-0.165797 -0.0730524 0)
(-0.154108 -0.0732584 0)
(-0.142129 -0.0727383 0)
(-0.129958 -0.0714881 0)
(-0.117703 -0.0695185 0)
(-0.105476 -0.0668555 0)
(-0.0933927 -0.0635407 0)
(-0.0815705 -0.0596305 0)
(-0.0701237 -0.0551958 0)
(-0.0591616 -0.0503194 0)
(-0.048785 -0.0450939 0)
(-0.0390835 -0.0396187 0)
(-0.0301337 -0.0339969 0)
(-0.021997 -0.0283318 0)
(-0.0147186 -0.0227235 0)
(-0.00832736 -0.0172663 0)
(-0.00283527 -0.0120454 0)
(0.00176158 -0.00713524 0)
(0.00548225 -0.002598 0)
(0.00835989 0.00151705 0)
(0.0104399 0.00517339 0)
(0.0117786 0.00834668 0)
(0.0124419 0.0110224 0)
(0.0125036 0.0131932 0)
(0.0120435 0.0148553 0)
(0.0111468 0.0160045 0)
(0.00990276 0.016631 0)
(0.00840456 0.016716 0)
(0.00674935 0.0162267 0)
(0.00503985 0.0151141 0)
(0.00338471 0.013311 0)
(0.00189701 0.0107318 0)
(0.00072388 0.00727346 0)
(0.000119211 0.00281171 0)
(2.2616e-05 -0.00143136 0)
(2.38813e-05 -0.0030589 0)
(-0.000110187 -0.00369646 0)
(-0.000460782 -0.00352973 0)
(-0.00108694 -0.00271057 0)
(-0.00203351 -0.00136842 0)
(-0.00333677 0.000387867 0)
(-0.00502752 0.00246809 0)
(-0.0071331 0.00479867 0)
(-0.00967848 0.00732117 0)
(-0.012687 0.00999118 0)
(-0.0161806 0.012777 0)
(-0.02018 0.0156579 0)
(-0.0247044 0.0186222 0)
(-0.0297709 0.0216643 0)
(-0.0353937 0.024782 0)
(-0.0415828 0.0279729 0)
(-0.0483426 0.0312319 0)
(-0.0556708 0.0345483 0)
(-0.0635561 0.0379048 0)
(-0.0719781 0.0412756 0)
(-0.0809057 0.0446273 0)
(-0.0902975 0.0479191 0)
(-0.100102 0.0511041 0)
(-0.110257 0.0541313 0)
(-0.120693 0.0569474 0)
(-0.131336 0.0594988 0)
(-0.142106 0.0617342 0)
(-0.15292 0.0636058 0)
(-0.163697 0.0650714 0)
(-0.17436 0.0660952 0)
(-0.184833 0.0666492 0)
(-0.195047 0.0667131 0)
(-0.204941 0.0662742 0)
(-0.214459 0.0653278 0)
(-0.223553 0.0638757 0)
(-0.232182 0.0619257 0)
(-0.240311 0.0594912 0)
(-0.24791 0.0565894 0)
(-0.254954 0.0532412 0)
(-0.261423 0.04947 0)
(-0.2673 0.0453014 0)
(-0.272568 0.0407623 0)
(-0.277215 0.035881 0)
(-0.281228 0.0306865 0)
(-0.284596 0.0252087 0)
(-0.287308 0.0194785 0)
(-0.289354 0.0135277 0)
(-0.290723 0.00738897 0)
(-0.291404 0.00109663 0)
(-0.291387 -0.00531361 0)
(-0.290662 -0.0118038 0)
(-0.289215 -0.0183339 0)
(-0.287038 -0.0248611 0)
(-0.284119 -0.0313396 0)
(-0.280447 -0.0377208 0)
(-0.276016 -0.0439523 0)
(-0.270817 -0.0499787 0)
(-0.264848 -0.0557413 0)
(-0.258108 -0.0611784 0)
(-0.250602 -0.0662261 0)
(-0.242341 -0.0708192 0)
(-0.233343 -0.0748921 0)
(-0.223636 -0.0783802 0)
(-0.213256 -0.0812221 0)
(-0.202251 -0.0833612 0)
(-0.190682 -0.0847482 0)
(-0.178621 -0.0853431 0)
(-0.166154 -0.0851182 0)
(-0.153377 -0.0840597 0)
(-0.140399 -0.0821699 0)
(-0.127338 -0.0794687 0)
(-0.114318 -0.075994 0)
(-0.101468 -0.0718021 0)
(-0.0889154 -0.0669667 0)
(-0.0767862 -0.0615768 0)
(-0.0651985 -0.0557344 0)
(-0.0542601 -0.0495514 0)
(-0.0440649 -0.0431451 0)
(-0.034691 -0.0366351 0)
(-0.0261989 -0.0301388 0)
(-0.0186301 -0.0237676 0)
(-0.012008 -0.0176241 0)
(-0.00633744 -0.0117991 0)
(-0.00160627 -0.00637025 0)
(0.00221327 -0.00140058 0)
(0.00516333 0.00306091 0)
(0.00729839 0.00697902 0)
(0.00868351 0.01033 0)
(0.00939285 0.0130988 0)
(0.00950813 0.0152753 0)
(0.00911721 0.01685 0)
(0.00831311 0.0178088 0)
(0.00719339 0.0181283 0)
(0.00586018 0.0177713 0)
(0.00442113 0.0166827 0)
(0.00298926 0.0147868 0)
(0.00168086 0.0119865 0)
(0.000640683 0.00816349 0)
(0.00010461 0.00317274 0)
(3.6241e-06 -0.0014218 0)
(-0.000104917 -0.00291126 0)
(-0.000467588 -0.00332741 0)
(-0.00112897 -0.00287892 0)
(-0.00213043 -0.00173243 0)
(-0.00350612 -2.6871e-05 0)
(-0.00528396 0.00212323 0)
(-0.00748928 0.00462437 0)
(-0.0101464 0.00740103 0)
(-0.0132789 0.0103935 0)
(-0.0169101 0.0135562 0)
(-0.0210623 0.0168564 0)
(-0.0257566 0.0202719 0)
(-0.031012 0.0237889 0)
(-0.0368445 0.0273989 0)
(-0.043266 0.0310953 0)
(-0.0502822 0.0348701 0)
(-0.0578918 0.0387108 0)
(-0.0660843 0.0425983 0)
(-0.074839 0.046505 0)
(-0.0841243 0.0503948 0)
(-0.0938971 0.054223 0)
(-0.104104 0.0579383 0)
(-0.11468 0.0614842 0)
(-0.125554 0.0648012 0)
(-0.136647 0.0678299 0)
(-0.147876 0.0705127 0)
(-0.159159 0.0727966 0)
(-0.170412 0.0746344 0)
(-0.181554 0.0759869 0)
(-0.192513 0.0768231 0)
(-0.203219 0.0771208 0)
(-0.213612 0.0768667 0)
(-0.223637 0.0760558 0)
(-0.233249 0.0746903 0)
(-0.24241 0.0727791 0)
(-0.251085 0.0703365 0)
(-0.259248 0.0673811 0)
(-0.266877 0.063935 0)