/*--------------------------------*- C++ -*----------------------------------*\
  =========                 |
  \\      /  F ield         | OpenFOAM: The Open Source CFD Toolbox
   \\    /   O peration     | Website:  https://openfoam.org
    \\  /    A nd           | Version:  9
     \\/     M anipulation  |
\*---------------------------------------------------------------------------*/
FoamFile
{
    format      ascii;
    class       surfaceScalarField;
    location    "2.25";
    object      phi;
}
// * * * * * * * * * * * * * * * * * * * * * * * * * * * * * * * * * * * * * //

dimensions      [0 3 -1 0 0 0 0];

internalField   nonuniform List<scalar> 
2407
(
-8.77279e-08
-1.30016e-08
-7.42319e-08
-1.3496e-08
-6.04491e-08
-1.37828e-08
-4.65949e-08
-1.38542e-08
-3.28871e-08
-1.37077e-08
-1.95404e-08
-1.33468e-08
-6.75947e-09
-1.27809e-08
5.26645e-09
-1.20259e-08
1.63694e-08
-1.11029e-08
2.64065e-08
-1.00371e-08
3.52652e-08
-8.85875e-09
4.28652e-08
-7.59991e-09
4.91592e-08
-6.29406e-09
5.41337e-08
-4.97444e-09
5.78065e-08
-3.67279e-09
6.02246e-08
-2.41811e-09
6.14602e-08
-1.23567e-09
6.16064e-08
-1.46164e-10
6.07717e-08
8.34716e-10
5.90751e-08
1.69657e-09
5.66408e-08
2.43434e-09
5.35934e-08
3.04739e-09
5.00538e-08
3.53957e-09
4.61355e-08
3.91827e-09
4.19421e-08
4.19344e-09
3.75656e-08
4.37656e-09
3.30861e-08
4.4794e-09
2.85736e-08
4.51253e-09
2.409e-08
4.48361e-09
1.96946e-08
4.39542e-09
1.5451e-08
4.24362e-09
1.14367e-08
4.01431e-09
7.75479e-09
3.68186e-09
4.54621e-09
3.20858e-09
1.99583e-09
2.55038e-09
3.20174e-10
1.67565e-09
-3.05651e-10
6.25825e-10
-3.05651e-10
-2.54173e-07
-4.61373e-08
-2.19894e-07
-4.77751e-08
-1.84936e-07
-4.87403e-08
-1.49782e-07
-4.90088e-08
-1.14917e-07
-4.85723e-08
-8.08244e-08
-4.74395e-08
-4.79679e-08
-4.56374e-08
-1.67832e-08
-4.32105e-08
1.2334e-08
-4.02202e-08
3.90392e-08
-3.67423e-08
6.30451e-08
-3.28646e-08
8.41307e-08
-2.86856e-08
1.02145e-07
-2.43081e-08
1.17007e-07
-1.98371e-08
1.2871e-07
-1.53749e-08
1.37309e-07
-1.10179e-08
1.42926e-07
-6.85261e-09
1.45734e-07
-2.95348e-09
1.45949e-07
6.1942e-10
1.43823e-07
3.82242e-09
1.3963e-07
6.62779e-09
1.33654e-07
9.02284e-09
1.26184e-07
1.10096e-08
1.175e-07
1.26027e-08
1.07867e-07
1.3826e-08
9.75338e-08
1.47098e-08
8.67269e-08
1.52863e-08
7.56545e-08
1.55849e-08
6.45111e-08
1.5627e-08
5.34868e-08
1.54198e-08
4.27802e-08
1.49502e-08
3.26146e-08
1.41798e-08
2.32544e-08
1.3042e-08
1.50161e-08
1.14469e-08
8.26349e-09
9.30301e-09
3.37192e-09
6.56722e-09
6.45557e-10
3.35218e-09
3.39907e-10
-4.1746e-07
-9.46182e-08
-3.6739e-07
-9.78454e-08
-3.16338e-07
-9.97925e-08
-2.64933e-07
-1.00414e-07
-2.13813e-07
-9.96919e-08
-1.63615e-07
-9.7638e-08
-1.14956e-07
-9.42958e-08
-6.84266e-08
-8.974e-08
-2.45712e-08
-8.40756e-08
1.61217e-08
-7.74351e-08
5.3232e-08
-6.9975e-08
8.6416e-08
-6.18695e-08
1.15416e-07
-5.33083e-08
1.40064e-07
-4.44854e-08
1.60284e-07
-3.55948e-08
1.76089e-07
-2.68228e-08
1.87579e-07
-1.8342e-08
1.9493e-07
-1.03048e-08
1.98389e-07
-2.83983e-09
1.9826e-07
3.95177e-09
1.94886e-07
1.00022e-08
1.88642e-07
1.52662e-08
1.79921e-07
1.9731e-08
1.69116e-07
2.34077e-08
1.56614e-07
2.63275e-08
1.42789e-07
2.85355e-08
1.27992e-07
3.00831e-08
1.12558e-07
3.1019e-08
9.68058e-08
3.1379e-08
8.10497e-08
3.11759e-08
6.56115e-08
3.03884e-08
5.0837e-08
2.89543e-08
3.71109e-08
2.67681e-08
2.48653e-08
2.36925e-08
1.45738e-08
1.95945e-08
6.72309e-09
1.44179e-08
1.7517e-09
8.32357e-09
2.09161e-09
-5.84063e-07
-1.54633e-07
-5.22086e-07
-1.59822e-07
-4.58822e-07
-1.63057e-07
-3.9497e-07
-1.64266e-07
-3.31246e-07
-1.63416e-07
-2.68368e-07
-1.60516e-07
-2.07044e-07
-1.5562e-07
-1.47958e-07
-1.48826e-07
-9.17562e-08
-1.40278e-07
-3.90305e-08
-1.30161e-07
9.69177e-09
-1.18697e-07
5.39627e-08
-1.0614e-07
9.34193e-08
-9.27648e-08
1.27796e-07
-7.88621e-08
1.56927e-07
-6.47258e-08
1.80749e-07
-5.06444e-08
1.99297e-07
-3.68906e-08
2.12705e-07
-2.37123e-08
2.21189e-07
-1.13246e-08
2.25052e-07
8.88117e-11
2.24645e-07
1.04097e-08
2.2038e-07
1.95309e-08
2.127e-07
2.74108e-08
2.02068e-07
3.40401e-08
1.88952e-07
3.94432e-08
1.73819e-07
4.36691e-08
1.57122e-07
4.67802e-08
1.39301e-07
4.8839e-08
1.20787e-07
4.98934e-08
1.02002e-07
4.99611e-08
8.3375e-08
4.90153e-08
6.53549e-08
4.69745e-08
4.84222e-08
4.37008e-08
3.30999e-08
3.90148e-08
1.99566e-08
3.27378e-08
9.60317e-09
2.47714e-08
2.69359e-09
1.52331e-08
4.7852e-09
-7.59832e-07
-2.23263e-07
-6.88846e-07
-2.30808e-07
-6.16197e-07
-2.35706e-07
-5.42612e-07
-2.37851e-07
-4.68843e-07
-2.37185e-07
-3.95652e-07
-2.33707e-07
-3.23801e-07
-2.2747e-07
-2.54039e-07
-2.18588e-07
-1.87083e-07
-2.07233e-07
-1.2361e-07
-1.93634e-07
-6.42355e-08
-1.78071e-07
-9.50618e-09
-1.6087e-07
4.01187e-08
-1.4239e-07
8.4271e-08
-1.23014e-07
1.22686e-07
-1.03141e-07
1.55206e-07
-8.31642e-08
1.81781e-07
-6.34658e-08
2.02468e-07
-4.43999e-08
2.17427e-07
-2.62836e-08
2.26904e-07
-9.38785e-09
2.3124e-07
6.07425e-09
2.30829e-07
1.99412e-08
2.26129e-07
3.21112e-08
2.17631e-07
4.25375e-08
2.05854e-07
5.12204e-08
1.91326e-07
5.81977e-08
1.74576e-07
6.353e-08
1.56131e-07
6.72843e-08
1.3651e-07
6.95143e-08
1.1623e-07
7.02404e-08
9.58144e-08
6.94313e-08
7.57988e-08
6.69901e-08
5.6749e-08
6.27507e-08
3.92719e-08
5.64919e-08
2.40328e-08
4.79768e-08
1.1779e-08
3.70251e-08
3.38635e-09
2.36258e-08
8.17155e-09
-9.49002e-07
-2.98358e-07
-8.71074e-07
-3.08736e-07
-7.91002e-07
-3.15777e-07
-7.0952e-07
-3.19333e-07
-6.27393e-07
-3.19312e-07
-5.45411e-07
-3.15689e-07
-4.64375e-07
-3.08506e-07
-3.85083e-07
-2.9788e-07
-3.08317e-07
-2.83999e-07
-2.34826e-07
-2.67125e-07
-1.6531e-07
-2.47587e-07
-1.00406e-07
-2.25774e-07
-4.06729e-08
-2.02123e-07
1.34211e-08
-1.77108e-07
6.15088e-08
-1.51228e-07
1.0333e-07
-1.24986e-07
1.38739e-07
-9.88745e-08
1.67703e-07
-7.33634e-08
1.90299e-07
-4.88805e-08
2.06713e-07
-2.58012e-08
2.17226e-07
-4.43933e-09
2.22205e-07
1.49628e-08
2.22086e-07
3.22302e-08
2.17365e-07
4.72587e-08
2.08578e-07
6.00067e-08
1.96293e-07
7.04834e-08
1.8109e-07
7.8733e-08
1.63559e-07
8.48146e-08
1.44295e-07
8.8779e-08
1.23891e-07
9.06441e-08
1.0295e-07
9.03721e-08
8.20891e-08
8.78512e-08
6.19518e-08
8.2888e-08
4.32283e-08
7.52154e-08
2.66816e-08
6.45235e-08
1.3191e-08
5.05158e-08
3.82428e-09
3.29925e-08
1.19958e-08
-1.1536e-06
-3.78357e-07
-1.07019e-06
-3.92148e-07
-9.84036e-07
-4.01928e-07
-8.95873e-07
-4.07496e-07
-8.0647e-07
-4.08716e-07
-7.16636e-07
-4.05523e-07
-6.27205e-07
-3.97936e-07
-5.39025e-07
-3.8606e-07
-4.52937e-07
-3.70087e-07
-3.69762e-07
-3.503e-07
-2.90286e-07
-3.27064e-07
-2.15237e-07
-3.00823e-07
-1.45274e-07
-2.72086e-07
-8.09681e-08
-2.41414e-07
-2.27936e-08
-2.09403e-07
2.88858e-08
-1.76665e-07
7.38215e-08
-1.4381e-07
1.11884e-07
-1.11426e-07
1.43065e-07
-8.00609e-08
1.67469e-07
-5.02059e-08
1.85314e-07
-2.22834e-08
1.96915e-07
3.36117e-09
2.02675e-07
2.64705e-08
2.03071e-07
4.68625e-08
1.98641e-07
6.44371e-08
1.89966e-07
7.91581e-08
1.77661e-07
9.10376e-08
1.62363e-07
1.00113e-07
1.4472e-07
1.06422e-07
1.25393e-07
1.09971e-07
1.05053e-07
1.10712e-07
8.43891e-08
1.08515e-07
6.41203e-08
1.03157e-07
4.50173e-08
9.43185e-08
2.79356e-08
8.16052e-08
1.38688e-08
6.45826e-08
4.02868e-09
4.28326e-08
1.60245e-08
-1.37338e-06
-4.62077e-07
-1.28557e-06
-4.79953e-07
-1.19433e-06
-4.93173e-07
-1.10036e-06
-5.0147e-07
-1.00443e-06
-5.04646e-07
-9.07362e-07
-5.02586e-07
-8.10031e-07
-4.95267e-07
-7.13326e-07
-4.82766e-07
-6.1815e-07
-4.65263e-07
-5.25402e-07
-4.43048e-07
-4.35954e-07
-4.16512e-07
-3.50634e-07
-3.86143e-07
-2.70206e-07
-3.52514e-07
-1.95351e-07
-3.16269e-07
-1.26654e-07
-2.781e-07
-6.45893e-08
-2.3873e-07
-9.51123e-09
-1.98888e-07
3.8351e-08
-1.59288e-07
7.8895e-08
-1.20605e-07
1.12144e-07
-8.34552e-08
1.38244e-07
-4.83832e-08
1.57451e-07
-1.58453e-08
1.70125e-07
1.37962e-08
1.76714e-07
4.02735e-08
1.77742e-07
6.34093e-08
1.73793e-07
8.31066e-08
1.65501e-07
9.933e-08
1.53532e-07
1.12082e-07
1.3858e-07
1.21374e-07
1.21358e-07
1.27193e-07
1.02598e-07
1.29473e-07
8.30531e-08
1.2806e-07
6.35134e-08
1.22696e-07
4.48242e-08
1.13008e-07
2.79228e-08
9.85066e-08
1.3891e-08
7.86144e-08
4.03169e-09
5.26919e-08
2.00562e-08
-1.77361e-06
-4.88965e-07
-1.69255e-06
-5.20924e-07
-1.60615e-06
-5.48483e-07
-1.51491e-06
-5.71191e-07
-1.41945e-06
-5.88638e-07
-1.32044e-06
-6.00479e-07
-1.21864e-06
-6.06439e-07
-1.1149e-06
-6.06333e-07
-1.01009e-06
-6.00078e-07
-9.0515e-07
-5.87703e-07
-8.01053e-07
-5.6936e-07
-6.98774e-07
-5.45327e-07
-5.99281e-07
-5.16005e-07
-5.03508e-07
-4.81916e-07
-4.12334e-07
-4.43688e-07
-3.26561e-07
-4.02042e-07
-2.46896e-07
-3.57765e-07
-1.73933e-07
-3.11693e-07
-1.08141e-07
-2.64681e-07
-4.98559e-08
-2.17573e-07
7.22054e-10
-1.71183e-07
4.35315e-08
-1.26265e-07
7.86417e-08
-8.34934e-08
1.06248e-07
-4.34519e-08
1.26663e-07
-6.61888e-09
1.40301e-07
2.66361e-08
1.47665e-07
5.60454e-08
1.49335e-07
8.14366e-08
1.45952e-07
1.02713e-07
1.38206e-07
1.19828e-07
1.26824e-07
1.32755e-07
1.12563e-07
1.41454e-07
9.62078e-08
1.45828e-07
7.8571e-08
1.45697e-07
6.05055e-08
1.40762e-07
4.29233e-08
1.3059e-07
2.68281e-08
1.14602e-07
1.33621e-08
9.20803e-08
3.87005e-09
6.2184e-08
2.39263e-08
-2.16251e-06
-4.756e-07
-2.09374e-06
-5.21853e-07
-2.01824e-06
-5.64468e-07
-1.93629e-06
-6.02872e-07
-1.84826e-06
-6.36507e-07
-1.75462e-06
-6.64836e-07
-1.6559e-06
-6.87361e-07
-1.55273e-06
-7.03643e-07
-1.44586e-06
-7.13313e-07
-1.3361e-06
-7.16097e-07
-1.22434e-06
-7.1183e-07
-1.11157e-06
-7.00472e-07
-9.98813e-07
-6.82121e-07
-8.87119e-07
-6.57021e-07
-7.77558e-07
-6.25566e-07
-6.71182e-07
-5.88292e-07
-5.69e-07
-5.45871e-07
-4.71949e-07
-4.99092e-07
-3.80874e-07
-4.48839e-07
-2.96507e-07
-3.9606e-07
-2.19446e-07
-3.41742e-07
-1.50146e-07
-2.86873e-07
-8.89144e-08
-2.32415e-07
-3.59068e-08
-1.79272e-07
8.86869e-09
-1.28269e-07
4.5544e-08
-8.01272e-08
7.43805e-08
-3.54554e-08
9.57589e-08
5.25775e-09
1.10161e-07
4.16434e-08
1.18159e-07
7.34386e-08
1.20399e-07
1.00473e-07
1.17587e-07
1.22639e-07
1.10481e-07
1.39862e-07
9.98734e-08
1.52061e-07
8.65966e-08
1.59105e-07
7.15163e-08
1.60777e-07
5.55416e-08
1.56737e-07
3.9641e-08
1.4649e-07
2.48683e-08
1.29375e-07
1.24001e-08
1.04548e-07
3.58249e-09
7.10016e-08
2.75087e-08
-2.40702e-06
-5.3556e-07
-2.33969e-06
-5.89183e-07
-2.26511e-06
-6.39043e-07
-2.18349e-06
-6.84499e-07
-2.09508e-06
-7.24914e-07
-2.00025e-06
-7.59663e-07
-1.89946e-06
-7.88149e-07
-1.79328e-06
-8.09828e-07
-1.68237e-06
-8.2422e-07
-1.56753e-06
-8.30942e-07
-1.44963e-06
-8.29722e-07
-1.32968e-06
-8.20422e-07
-1.20874e-06
-8.0306e-07
-1.08795e-06
-7.77818e-07
-9.68461e-07
-7.45052e-07
-8.51461e-07
-7.05292e-07
-7.38097e-07
-6.59234e-07
-6.29465e-07
-6.07725e-07
-5.26569e-07
-5.51735e-07
-4.30301e-07
-4.92328e-07
-3.41414e-07
-4.3063e-07
-2.60503e-07
-3.67783e-07
-1.88002e-07
-3.04916e-07
-1.24172e-07
-2.43102e-07
-6.91106e-08
-1.8333e-07
-2.27545e-08
-1.26483e-07
1.51071e-08
-7.3317e-08
4.48183e-08
-2.44535e-08
6.68428e-08
1.96189e-08
8.17455e-08
5.8536e-08
9.01783e-08
9.204e-08
9.2865e-08
1.19952e-07
9.05882e-08
1.42139e-07
8.4179e-08
1.5847e-07
7.45107e-08
1.68773e-07
6.24974e-08
1.7279e-07
4.90976e-08
1.70136e-07
3.53264e-08
1.60262e-07
2.22732e-08
1.42428e-07
1.11276e-08
1.15694e-07
3.20804e-09
7.89212e-08
3.07168e-08
-2.64552e-06
-5.92571e-07
-2.58083e-06
-6.53865e-07
-2.5085e-06
-7.1138e-07
-2.42858e-06
-7.64413e-07
-2.34125e-06
-8.12251e-07
-2.24673e-06
-8.54182e-07
-2.14537e-06
-8.89507e-07
-2.03763e-06
-9.17565e-07
-1.9241e-06
-9.37755e-07
-1.80548e-06
-9.49559e-07
-1.68263e-06
-9.52574e-07
-1.55651e-06
-9.46536e-07
-1.42823e-06
-9.31345e-07
-1.29896e-06
-9.07086e-07
-1.16997e-06
-8.74044e-07
-1.04255e-06
-8.32709e-07
-9.18015e-07
-7.83772e-07
-7.97625e-07
-7.28116e-07
-6.82574e-07
-6.66785e-07
-5.73946e-07
-6.00957e-07
-4.72678e-07
-5.31897e-07
-3.79542e-07
-4.6092e-07
-2.95123e-07
-3.89335e-07
-2.19817e-07
-3.18408e-07
-1.53825e-07
-2.49322e-07
-9.7168e-08
-1.83141e-07
-4.96918e-08
-1.20793e-07
-1.1089e-08
-6.30562e-08
1.90847e-08
-1.05548e-08
4.13914e-08
3.62293e-08
5.6493e-08
7.69384e-08
6.51333e-08
1.11312e-07
6.81242e-08
1.39148e-07
6.63337e-08
1.60261e-07
6.0677e-08
1.7443e-07
5.21129e-08
1.81355e-07
4.16446e-08
1.80605e-07
3.03254e-08
1.71581e-07
1.92692e-08
1.53484e-07
9.66404e-09
1.25299e-07
2.78405e-09
8.58012e-08
3.35008e-08
-2.87157e-06
-6.45518e-07
-2.81081e-06
-7.14629e-07
-2.74213e-06
-7.8006e-07
-2.66548e-06
-8.41059e-07
-2.58088e-06
-8.96852e-07
-2.48842e-06
-9.46641e-07
-2.3883e-06
-9.89627e-07
-2.28084e-06
-1.02503e-06
-2.16648e-06
-1.05211e-06
-2.04583e-06
-1.07021e-06
-1.91965e-06
-1.07876e-06
-1.78885e-06
-1.07734e-06
-1.65451e-06
-1.06569e-06
-1.51783e-06
-1.04376e-06
-1.38015e-06
-1.01173e-06
-1.24287e-06
-9.69985e-07
-1.10745e-06
-9.19187e-07
-9.75357e-07
-8.60214e-07
-8.47979e-07
-7.94162e-07
-7.26629e-07
-7.22307e-07
-6.1247e-07
-6.46057e-07
-5.06489e-07
-5.66901e-07
-4.09469e-07
-4.86354e-07
-3.21975e-07
-4.05902e-07
-2.44347e-07
-3.26949e-07
-1.7671e-07
-2.50778e-07
-1.18983e-07
-1.7852e-07
-7.09053e-08
-1.11134e-07
-3.2052e-08
-4.94082e-08
-1.86174e-09
6.03901e-09
2.03409e-08
5.47357e-08
3.53273e-08
9.63258e-08
4.39441e-08
1.30531e-07
4.71001e-08
1.57105e-07
4.5755e-08
1.75775e-07
4.09125e-08
1.86197e-07
3.36179e-08
1.87899e-07
2.49582e-08
1.80241e-07
1.60654e-08
1.62377e-07
8.11903e-09
1.33246e-07
2.34434e-09
9.15759e-08
3.58452e-08
-3.07868e-06
-6.93327e-07
-3.0231e-06
-7.70204e-07
-2.95954e-06
-8.43623e-07
-2.8878e-06
-9.12802e-07
-2.80774e-06
-9.76914e-07
-2.71928e-06
-1.03509e-06
-2.62246e-06
-1.08645e-06
-2.51741e-06
-1.13008e-06
-2.40441e-06
-1.16511e-06
-2.2839e-06
-1.19072e-06
-2.15648e-06
-1.20617e-06
-2.02298e-06
-1.21084e-06
-1.88438e-06
-1.20428e-06
-1.74188e-06
-1.18627e-06
-1.59683e-06
-1.15678e-06
-1.45072e-06
-1.1161e-06
-1.30514e-06
-1.06476e-06
-1.16174e-06
-1.00362e-06
-1.02214e-06
-9.33761e-07
-8.87909e-07
-8.56542e-07
-7.6047e-07
-7.73495e-07
-6.4108e-07
-6.86291e-07
-5.30772e-07
-5.96662e-07
-4.30332e-07
-5.06343e-07
-3.40286e-07
-4.16996e-07
-2.60901e-07
-3.30163e-07
-1.92203e-07
-2.47218e-07
-1.3399e-07
-1.69346e-07
-8.5871e-08
-9.75276e-08
-4.72858e-08
-3.25462e-08
-1.75402e-08
2.49901e-08
4.16922e-09
7.46165e-08
1.87318e-08
1.15969e-07
2.71048e-08
1.48732e-07
3.0298e-08
1.72582e-07
2.93641e-08
1.87131e-07
2.53915e-08
1.91872e-07
1.9501e-08
1.86131e-07
1.28419e-08
1.69036e-07
6.58646e-09
1.39501e-07
1.9176e-09
9.62447e-08
3.77628e-08
-3.26063e-06
-7.35048e-07
-3.2114e-06
-8.19427e-07
-3.15434e-06
-9.00687e-07
-3.08911e-06
-9.78034e-07
-3.0154e-06
-1.05062e-06
-2.93298e-06
-1.11752e-06
-2.84166e-06
-1.17777e-06
-2.74138e-06
-1.23036e-06
-2.6322e-06
-1.2743e-06
-2.51434e-06
-1.30858e-06
-2.38823e-06
-1.33228e-06
-2.2545e-06
-1.34457e-06
-2.114e-06
-1.34478e-06
-1.96784e-06
-1.33243e-06
-1.81733e-06
-1.30729e-06
-1.66399e-06
-1.26943e-06
-1.50951e-06
-1.21924e-06
-1.3557e-06
-1.15743e-06
-1.2044e-06
-1.08506e-06
-1.05745e-06
-1.00349e-06
-9.16591e-07
-9.14359e-07
-7.83381e-07
-8.19501e-07
-6.59168e-07
-7.20875e-07
-5.45025e-07
-6.20486e-07
-4.41727e-07
-5.20294e-07
-3.49743e-07
-4.22146e-07
-2.69246e-07
-3.27716e-07
-2.00133e-07
-2.38459e-07
-1.42064e-07
-1.55597e-07
-9.44924e-08
-8.01175e-08
-5.67081e-08
-1.27942e-08
-2.787e-08
4.57783e-08
-7.03744e-09
9.51364e-08
6.80381e-09
1.3489e-07
1.47227e-08
1.64663e-07
1.78282e-08
1.84025e-07
1.72581e-08
1.92442e-07
1.41717e-08
1.89218e-07
9.74112e-09
1.73466e-07
5.14023e-09
1.44102e-07
1.52618e-09
9.98588e-08
3.9289e-08
-3.41196e-06
-7.69955e-07
-3.37004e-06
-8.61349e-07
-3.32066e-06
-9.50066e-07
-3.26337e-06
-1.03533e-06
-3.19771e-06
-1.11628e-06
-3.12325e-06
-1.19197e-06
-3.03962e-06
-1.2614e-06
-2.94651e-06
-1.32347e-06
-2.84374e-06
-1.37706e-06
-2.73129e-06
-1.42102e-06
-2.60934e-06
-1.45424e-06
-2.47826e-06
-1.47565e-06
-2.33871e-06
-1.48433e-06
-2.19161e-06
-1.47953e-06
-2.03816e-06
-1.46074e-06
-1.87984e-06
-1.42776e-06
-1.71837e-06
-1.38071e-06
-1.55565e-06
-1.32014e-06
-1.39374e-06
-1.24696e-06
-1.23474e-06
-1.16249e-06
-1.0807e-06
-1.0684e-06
-9.33545e-07
-9.66654e-07
-7.94998e-07
-8.59423e-07
-6.66488e-07
-7.48995e-07
-5.49118e-07
-6.37664e-07
-4.43632e-07
-5.27632e-07
-3.50418e-07
-4.2093e-07
-2.69525e-07
-3.19351e-07
-2.00704e-07
-2.24419e-07
-1.43445e-07
-1.37377e-07
-9.70322e-08
-5.92066e-08
-6.05893e-08
9.33541e-09
-3.31189e-08
6.7666e-08
-1.35393e-08
1.15311e-07
-7.11199e-10
1.51835e-07
6.54097e-09
1.76773e-07
9.41548e-09
1.89567e-07
9.12014e-09
1.89513e-07
6.86161e-09
1.75725e-07
3.83146e-09
1.47132e-07
1.18533e-09
1.02505e-07
4.04743e-08
-3.52847e-06
-7.97622e-07
-3.49448e-06
-8.95339e-07
-3.45365e-06
-9.90896e-07
-3.40542e-06
-1.08356e-06
-3.34919e-06
-1.1725e-06
-3.28437e-06
-1.25679e-06
-3.21038e-06
-1.33539e-06
-3.1267e-06
-1.40716e-06
-3.03289e-06
-1.47088e-06
-2.92864e-06
-1.52528e-06
-2.81382e-06
-1.56905e-06
-2.68854e-06
-1.60094e-06
-2.55314e-06
-1.61973e-06
-2.40829e-06
-1.62437e-06
-2.255e-06
-1.61404e-06
-2.09458e-06
-1.58817e-06
-1.92869e-06
-1.5466e-06
-1.75928e-06
-1.48955e-06
-1.58853e-06
-1.41772e-06
-1.41875e-06
-1.33227e-06
-1.25232e-06
-1.23483e-06
-1.09155e-06
-1.12743e-06
-9.38569e-07
-1.0124e-06
-7.95249e-07
-8.92314e-07
-6.63102e-07
-7.69811e-07
-5.43237e-07
-6.47497e-07
-4.36344e-07
-5.27823e-07
-3.42701e-07
-4.12994e-07
-2.62207e-07
-3.04913e-07
-1.94434e-07
-2.0515e-07
-1.38686e-07
-1.14955e-07
-9.40606e-08
-3.52897e-08
-5.9505e-08
3.31104e-08
-3.38624e-08
8.96681e-08
-1.59114e-08
1.33884e-07
-4.39491e-09
1.65257e-07
1.95937e-09
1.83213e-07
4.42338e-09
1.87049e-07
4.25561e-09
1.75893e-07
2.68728e-09
1.487e-07
9.0295e-10
1.04289e-07
4.13773e-08
-3.60756e-06
-8.1798e-07
-3.58175e-06
-9.21151e-07
-3.54992e-06
-1.02273e-06
-3.51142e-06
-1.12205e-06
-3.46558e-06
-1.21835e-06
-3.41165e-06
-1.31072e-06
-3.34889e-06
-1.39815e-06
-3.27654e-06
-1.4795e-06
-3.19393e-06
-1.55349e-06
-3.10046e-06
-1.61875e-06
-2.99568e-06
-1.67384e-06
-2.87934e-06
-1.71728e-06
-2.75145e-06
-1.74761e-06
-2.61235e-06
-1.76348e-06
-2.46272e-06
-1.76367e-06
-2.30362e-06
-1.74727e-06
-2.13655e-06
-1.71368e-06
-1.96336e-06
-1.66274e-06
-1.78625e-06
-1.59482e-06
-1.60771e-06
-1.51081e-06
-1.43037e-06
-1.41217e-06
-1.2569e-06
-1.30089e-06
-1.08989e-06
-1.17941e-06
-9.31694e-07
-1.05051e-06
-7.84314e-07
-9.17191e-07
-6.4933e-07
-7.82481e-07
-5.27837e-07
-6.49316e-07
-4.20436e-07
-5.20395e-07
-3.27262e-07
-3.98087e-07
-2.48032e-07
-2.8438e-07
-1.82115e-07
-1.80871e-07
-1.28609e-07
-8.87951e-08
-8.64156e-08
-9.08337e-09
-5.42999e-08
5.75525e-08
-3.09489e-08
1.10533e-07
-1.50091e-08
1.49317e-07
-5.11607e-09
1.7332e-07
8.56936e-11
1.81847e-07
1.92929e-09
1.74049e-07
1.71126e-09
1.48919e-07
6.79822e-10
1.05321e-07
4.20571e-08
-3.64856e-06
-8.31322e-07
-3.63075e-06
-9.38957e-07
-3.6079e-06
-1.04558e-06
-3.57933e-06
-1.15062e-06
-3.54429e-06
-1.25339e-06
-3.50195e-06
-1.35306e-06
-3.45142e-06
-1.44868e-06
-3.39178e-06
-1.53914e-06
-3.32212e-06
-1.62315e-06
-3.24157e-06
-1.6993e-06
-3.14937e-06
-1.76604e-06
-3.0449e-06
-1.82175e-06
-2.92779e-06
-1.86472e-06
-2.79796e-06
-1.89331e-06
-2.65569e-06
-1.90594e-06
-2.50171e-06
-1.90125e-06
-2.33717e-06
-1.87821e-06
-2.16373e-06
-1.83618e-06
-1.9835e-06
-1.77506e-06
-1.79896e-06
-1.69535e-06
-1.61295e-06
-1.59819e-06
-1.42844e-06
-1.4854e-06
-1.24844e-06
-1.3594e-06
-1.07583e-06
-1.22313e-06
-9.13169e-07
-1.07985e-06
-7.626e-07
-9.3305e-07
-6.25736e-07
-7.8618e-07
-5.03621e-07
-6.4251e-07
-3.9673e-07
-5.04978e-07
-3.05016e-07
-3.76094e-07
-2.27983e-07
-2.57904e-07
-1.64776e-07
-1.52003e-07
-1.1427e-07
-5.95888e-08
-7.51645e-08
1.84469e-08
-4.60473e-08
8.14155e-08
-2.54548e-08
1.28724e-07
-1.19116e-08
1.59777e-07
-3.95574e-09
1.73891e-07
-1.55441e-10
1.70249e-07
8.85191e-10
1.47878e-07
5.10247e-10
1.05696e-07
4.25673e-08
-3.65274e-06
-8.38271e-07
-3.64238e-06
-9.49323e-07
-3.62803e-06
-1.05992e-06
-3.60905e-06
-1.1696e-06
-3.58466e-06
-1.27778e-06
-3.55398e-06
-1.38374e-06
-3.51605e-06
-1.48662e-06
-3.46982e-06
-1.58537e-06
-3.41419e-06
-1.67877e-06
-3.34807e-06
-1.76541e-06
-3.2704e-06
-1.84371e-06
-3.18022e-06
-1.91193e-06
-3.07676e-06
-1.96819e-06
-2.95948e-06
-2.01058e-06
-2.82822e-06
-2.0372e-06
-2.68322e-06
-2.04625e-06
-2.52523e-06
-2.0362e-06
-2.35553e-06
-2.00588e-06
-2.17597e-06
-1.95462e-06
-1.98893e-06
-1.88238e-06
-1.79726e-06
-1.78986e-06
-1.60415e-06
-1.67852e-06
-1.41296e-06
-1.55059e-06
-1.22707e-06
-1.40902e-06
-1.04964e-06
-1.25728e-06
-8.83447e-07
-1.09924e-06
-7.30733e-07
-9.38895e-07
-5.93108e-07
-7.80135e-07
-4.7152e-07
-6.26566e-07
-3.66273e-07
-4.81341e-07
-2.77098e-07
-3.47079e-07
-2.03256e-07
-2.25845e-07
-1.43645e-07
-1.192e-07
-9.69141e-08
-2.82842e-08
-6.15571e-08
4.60586e-08
-3.59908e-08
1.03158e-07
-1.86098e-08
1.42396e-07
-7.82231e-09
1.63104e-07
-2.06843e-09
1.64495e-07
1.7168e-10
1.45638e-07
3.83143e-10
1.05484e-07
4.29505e-08
-3.62321e-06
-8.39712e-07
-3.61939e-06
-9.53142e-07
-3.61269e-06
-1.06662e-06
-3.60249e-06
-1.1798e-06
-3.58805e-06
-1.29222e-06
-3.56849e-06
-1.40329e-06
-3.54284e-06
-1.51227e-06
-3.50998e-06
-1.61823e-06
-3.4687e-06
-1.72005e-06
-3.41774e-06
-1.81638e-06
-3.3558e-06
-1.90566e-06
-3.2816e-06
-1.98612e-06
-3.194e-06
-2.05579e-06
-3.09202e-06
-2.11256e-06
-2.975e-06
-2.15422e-06
-2.84266e-06
-2.1786e-06
-2.6952e-06
-2.18366e-06
-2.53341e-06
-2.16767e-06
-2.35873e-06
-2.1293e-06
-2.17323e-06
-2.06788e-06
-1.97962e-06
-1.98347e-06
-1.78112e-06
-1.87702e-06
-1.58135e-06
-1.75037e-06
-1.38409e-06
-1.60627e-06
-1.19309e-06
-1.44828e-06
-1.0118e-06
-1.28053e-06
-8.43191e-07
-1.10751e-06
-6.89556e-07
-9.3377e-07
-5.52455e-07
-7.63667e-07
-4.32681e-07
-6.01115e-07
-3.30317e-07
-4.49443e-07
-2.44833e-07
-3.11329e-07
-1.75217e-07
-1.88816e-07
-1.20108e-07
-8.33929e-08
-7.79233e-08
3.87337e-09
-4.69559e-08
7.21908e-08
-2.54569e-08
1.20897e-07
-1.16816e-08
1.49328e-07
-3.91478e-09
1.56728e-07
-4.76873e-10
1.422e-07
2.83515e-10
1.04724e-07
4.3234e-08
-3.56449e-06
-8.36696e-07
-3.5661e-06
-9.51537e-07
-3.56587e-06
-1.06685e-06
-3.56326e-06
-1.18241e-06
-3.55761e-06
-1.29787e-06
-3.54811e-06
-1.4128e-06
-3.53379e-06
-1.52659e-06
-3.51356e-06
-1.63846e-06
-3.48618e-06
-1.74743e-06
-3.45027e-06
-1.85229e-06
-3.40437e-06
-1.95156e-06
-3.34698e-06
-2.04351e-06
-3.27663e-06
-2.12615e-06
-3.19193e-06
-2.19726e-06
-3.09172e-06
-2.25443e-06
-2.97517e-06
-2.29515e-06
-2.84189e-06
-2.31694e-06
-2.69207e-06
-2.31749e-06
-2.52656e-06
-2.29481e-06
-2.34696e-06
-2.24748e-06
-2.15563e-06
-2.17481e-06
-1.95564e-06
-2.07701e-06
-1.75065e-06
-1.95535e-06
-1.54474e-06
-1.81218e-06
-1.34214e-06
-1.65087e-06
-1.14699e-06
-1.47568e-06
-9.63e-07
-1.29149e-06
-7.9328e-07
-1.10349e-06
-6.40133e-07
-9.16814e-07
-5.04997e-07
-7.36251e-07
-3.88448e-07
-5.65992e-07
-2.90291e-07
-4.09485e-07
-2.09698e-07
-2.6941e-07
-1.45359e-07
-1.47732e-07
-9.56446e-08
-4.58405e-08
-5.8739e-08
3.52852e-08
-3.27399e-08
9.48978e-08
-1.57304e-08
1.32319e-07
-5.81445e-09
1.46812e-07
-1.12402e-09
1.37509e-07
1.93215e-10
1.03407e-07
4.34272e-08
-3.48206e-06
-8.30339e-07
-3.48785e-06
-9.45747e-07
-3.49274e-06
-1.06196e-06
-3.4963e-06
-1.17885e-06
-3.49796e-06
-1.29621e-06
-3.49702e-06
-1.41374e-06
-3.4926e-06
-1.53101e-06
-3.48367e-06
-1.64739e-06
-3.46901e-06
-1.76208e-06
-3.44726e-06
-1.87404e-06
-3.41687e-06
-1.98195e-06
-3.3762e-06
-2.08419e-06
-3.32351e-06
-2.17883e-06
-3.25711e-06
-2.26366e-06
-3.1754e-06
-2.33614e-06
-3.07699e-06
-2.39355e-06
-2.9609e-06
-2.43303e-06
-2.82664e-06
-2.45175e-06
-2.67437e-06
-2.44708e-06
-2.50504e-06
-2.4168e-06
-2.32048e-06
-2.35937e-06
-2.12335e-06
-2.27414e-06
-1.91716e-06
-2.16154e-06
-1.70607e-06
-2.02327e-06
-1.49466e-06
-1.86229e-06
-1.28762e-06
-1.68272e-06
-1.08946e-06
-1.48966e-06
-9.04127e-07
-1.28882e-06
-7.34812e-07
-1.08613e-06
-5.83743e-07
-8.8732e-07
-4.52155e-07
-6.97579e-07
-3.40338e-07
-5.21302e-07
-2.47766e-07
-3.61982e-07
-1.73271e-07
-2.22227e-07
-1.15232e-07
-1.03879e-07
-7.17466e-08
-8.20055e-09
-4.07626e-08
6.39139e-08
-2.01791e-08
1.11735e-07
-7.8967e-09
1.3453e-07
-1.83281e-09
1.31446e-07
9.36771e-11
1.0148e-07
4.35209e-08
-3.38177e-06
-8.21723e-07
-3.3905e-06
-9.37014e-07
-3.39912e-06
-1.05333e-06
-3.40732e-06
-1.17065e-06
-3.41464e-06
-1.28889e-06
-3.42051e-06
-1.40787e-06
-3.4242e-06
-1.52732e-06
-3.42479e-06
-1.6468e-06
-3.42116e-06
-1.76571e-06
-3.41201e-06
-1.88319e-06
-3.39582e-06
-1.99813e-06
-3.37089e-06
-2.10912e-06
-3.33536e-06
-2.21436e-06
-3.2873e-06
-2.31172e-06
-3.22474e-06
-2.3987e-06
-3.14587e-06
-2.47243e-06
-3.04908e-06
-2.52982e-06
-2.93321e-06
-2.56762e-06
-2.79769e-06
-2.5826e-06
-2.64269e-06
-2.5718e-06
-2.46931e-06
-2.53276e-06
-2.2796e-06
-2.46384e-06
-2.07667e-06
-2.36448e-06
-1.86448e-06
-2.23546e-06
-1.64775e-06
-2.07902e-06
-1.4316e-06
-1.89887e-06
-1.22121e-06
-1.70005e-06
-1.0214e-06
-1.48863e-06
-8.3631e-07
-1.27122e-06
-6.69115e-07
-1.05452e-06
-5.21874e-07
-8.44821e-07
-3.95529e-07
-6.47647e-07
-2.90007e-07
-4.67504e-07
-2.04397e-07
-3.07836e-07
-1.37168e-07
-1.71109e-07
-8.63703e-08
-5.89979e-08
-4.98225e-08
2.73662e-08
-2.52348e-08
8.71477e-08
-1.02889e-08
1.19584e-07
-2.66619e-09
1.23823e-07
-3.45283e-11
9.88484e-08
4.34863e-08
-3.26933e-06
-8.11821e-07
-3.27986e-06
-9.26485e-07
-3.29089e-06
-1.0423e-06
-3.30222e-06
-1.15933e-06
-3.31353e-06
-1.27758e-06
-3.3244e-06
-1.397e-06
-3.33425e-06
-1.51747e-06
-3.34233e-06
-1.63873e-06
-3.34767e-06
-1.76037e-06
-3.3491e-06
-1.88176e-06
-3.3452e-06
-2.00203e-06
-3.33432e-06
-2.11999e-06
-3.31459e-06
-2.23409e-06
-3.28394e-06
-2.34237e-06
-3.2402e-06
-2.44244e-06
-3.18117e-06
-2.53146e-06
-3.10476e-06
-2.60623e-06
-3.00917e-06
-2.66321e-06
-2.89307e-06
-2.6987e-06
-2.75581e-06
-2.70906e-06
-2.59762e-06
-2.69094e-06
-2.41978e-06
-2.64168e-06
-2.22469e-06
-2.55957e-06
-2.0159e-06
-2.44425e-06
-1.79796e-06
-2.29696e-06
-1.57618e-06
-2.12065e-06
-1.35625e-06
-1.91998e-06
-1.1438e-06
-1.70108e-06
-9.43954e-07
-1.47107e-06
-7.60917e-07
-1.23755e-06
-5.97742e-07
-1.008e-06
-4.56205e-07
-7.89184e-07
-3.36859e-07
-5.8685e-07
-2.39193e-07
-4.05502e-07
-1.61868e-07
-2.48434e-07
-1.02961e-07
-1.17905e-07
-6.01906e-08
-1.54043e-08
-3.10879e-08
5.8045e-08
-1.31084e-08
1.01604e-07
-3.68139e-09
1.14396e-07
-2.05921e-10
9.53729e-08
4.32804e-08
-3.14992e-06
-8.01441e-07
-3.16126e-06
-9.15143e-07
-3.17353e-06
-1.03004e-06
-3.18663e-06
-1.14623e-06
-3.20038e-06
-1.26383e-06
-3.2145e-06
-1.38288e-06
-3.22858e-06
-1.50339e-06
-3.24205e-06
-1.62526e-06
-3.25415e-06
-1.74827e-06
-3.26386e-06
-1.87204e-06
-3.26997e-06
-1.99593e-06
-3.27094e-06
-2.11902e-06
-3.26498e-06
-2.24005e-06
-3.25004e-06
-2.35731e-06
-3.22384e-06
-2.46864e-06
-3.18396e-06
-2.57135e-06
-3.12792e-06
-2.66227e-06
-3.0534e-06
-2.73773e-06
-2.95838e-06
-2.79373e-06
-2.84137e-06
-2.82606e-06
-2.70171e-06
-2.83061e-06
-2.5397e-06
-2.80368e-06
-2.35689e-06
-2.74238e-06
-2.1561e-06
-2.64505e-06
-1.94142e-06
-2.51163e-06
-1.71807e-06
-2.344e-06
-1.492e-06
-2.14605e-06
-1.26948e-06
-1.9236e-06
-1.05655e-06
-1.68399e-06
-8.58522e-07
-1.43558e-06
-6.79559e-07
-1.18696e-06
-5.22456e-07
-9.46288e-07
-3.88576e-07
-7.2073e-07
-2.77982e-07
-5.16096e-07
-1.89661e-07
-3.36755e-07
-1.21808e-07
-1.85758e-07
-7.20965e-08
-6.51162e-08
-3.79017e-08
2.38502e-08
-1.6456e-08
8.01587e-08
-4.92786e-09
1.02868e-07
-4.35819e-10
9.08809e-08
4.28446e-08
-3.02787e-06
-7.91201e-07
-3.03924e-06
-9.03769e-07
-3.05179e-06
-1.01749e-06
-3.06551e-06
-1.13251e-06
-3.08035e-06
-1.24899e-06
-3.09617e-06
-1.36706e-06
-3.11271e-06
-1.48684e-06
-3.12959e-06
-1.60837e-06
-3.14626e-06
-1.73161e-06
-3.16193e-06
-1.85637e-06
-3.17558e-06
-1.98228e-06
-3.1859e-06
-2.1087e-06
-3.19127e-06
-2.23468e-06
-3.18975e-06
-2.35884e-06
-3.17908e-06
-2.47931e-06
-3.15675e-06
-2.59367e-06
-3.12009e-06
-2.69893e-06
-3.06636e-06
-2.79146e-06
-2.99297e-06
-2.86712e-06
-2.89768e-06
-2.92134e-06
-2.77891e-06
-2.94938e-06
-2.63598e-06
-2.94662e-06
-2.46938e-06
-2.90898e-06
-2.281e-06
-2.83343e-06
-2.07418e-06
-2.71845e-06
-1.85368e-06
-2.5645e-06
-1.62542e-06
-2.37431e-06
-1.39606e-06
-2.15296e-06
-1.17242e-06
-1.90764e-06
-9.60862e-07
-1.64714e-06
-7.66765e-07
-1.38106e-06
-5.94087e-07
-1.11897e-06
-4.45204e-07
-8.69613e-07
-3.20939e-07
-6.40361e-07
-2.2077e-07
-4.36924e-07
-1.43128e-07
-2.634e-07
-8.57199e-08
-1.22524e-07
-4.58071e-08
-1.60626e-08
-2.04128e-08
5.47644e-08
-6.44479e-09
8.88995e-08
-7.34537e-10
8.51706e-08
4.21101e-08
-2.90652e-06
-7.81529e-07
-2.91736e-06
-8.92925e-07
-2.92947e-06
-1.00537e-06
-2.94293e-06
-1.11905e-06
-2.95778e-06
-1.23414e-06
-2.97399e-06
-1.35085e-06
-2.99148e-06
-1.46936e-06
-3.01003e-06
-1.58982e-06
-3.02928e-06
-1.71235e-06
-3.0487e-06
-1.83695e-06
-3.06749e-06
-1.96348e-06
-3.0846e-06
-2.09159e-06
-3.09865e-06
-2.22063e-06
-3.1079e-06
-2.34959e-06
-3.11025e-06
-2.47696e-06
-3.10324e-06
-2.60068e-06
-3.08412e-06
-2.71805e-06
-3.04992e-06
-2.82566e-06
-2.99764e-06
-2.9194e-06
-2.92443e-06
-2.99456e-06
-2.82787e-06
-3.04594e-06
-2.70629e-06
-3.0682e-06
-2.55908e-06
-3.05619e-06
-2.38701e-06
-3.0055e-06
-2.19242e-06
-2.91304e-06
-1.9793e-06
-2.77762e-06
-1.75317e-06
-2.60043e-06
-1.52076e-06
-2.38537e-06
-1.28942e-06
-2.13898e-06
-1.06645e-06
-1.8701e-06
-8.58434e-07
-1.58907e-06
-6.70617e-07
-1.30678e-06
-5.06568e-07
-1.03366e-06
-3.68077e-07
-7.78852e-07
-2.55301e-07
-5.497e-07
-1.67057e-07
-3.51643e-07
-1.01188e-07
-1.88394e-07
-5.49005e-08
-6.23501e-08
-2.50398e-08
2.49037e-08
-8.26145e-09
7.21212e-08
-1.10984e-09
7.8019e-08
4.10002e-08
-2.78822e-06
-7.72671e-07
-2.79818e-06
-8.82966e-07
-2.80937e-06
-9.94177e-07
-2.82194e-06
-1.10648e-06
-2.836e-06
-1.22009e-06
-2.85162e-06
-1.33522e-06
-2.86885e-06
-1.45213e-06
-2.88763e-06
-1.57105e-06
-2.90779e-06
-1.69219e-06
-2.929e-06
-1.81574e-06
-2.95074e-06
-1.94174e-06
-2.97222e-06
-2.07011e-06
-2.99233e-06
-2.20052e-06
-3.00961e-06
-2.3323e-06
-3.02221e-06
-2.46436e-06
-3.02783e-06
-2.59506e-06
-3.02381e-06
-2.72207e-06
-3.00712e-06
-2.84235e-06
-2.97451e-06
-2.95201e-06
-2.92268e-06
-3.04639e-06
-2.84854e-06
-3.12008e-06
-2.74952e-06
-3.16722e-06
-2.62392e-06
-3.18179e-06
-2.47131e-06
-3.15811e-06
-2.29283e-06
-3.09152e-06
-2.09142e-06
-2.97903e-06
-1.87187e-06
-2.81999e-06
-1.64056e-06
-2.61667e-06
-1.40508e-06
-2.37447e-06
-1.17342e-06
-2.10175e-06
-9.53294e-07
-1.8092e-06
-7.51272e-07
-1.5088e-06
-5.7227e-07
-1.21267e-06
-4.19248e-07
-9.31873e-07
-2.9325e-07
-6.75699e-07
-1.93657e-07
-4.51237e-07