/*--------------------------------*- C++ -*----------------------------------*\
  =========                 |
  \\      /  F ield         | OpenFOAM: The Open Source CFD Toolbox
   \\    /   O peration     | Website:  https://openfoam.org
    \\  /    A nd           | Version:  9
     \\/     M anipulation  |
\*---------------------------------------------------------------------------*/
FoamFile
{
    format      ascii;
    class       surfaceScalarField;
    location    "2.75";
    object      phi;
}
// * * * * * * * * * * * * * * * * * * * * * * * * * * * * * * * * * * * * * //

dimensions      [0 3 -1 0 0 0 0];

internalField   nonuniform List<scalar> 
2402
(
-2.60854e-06
-2.58116e-07
-2.61422e-06
-3.64829e-07
-2.62041e-06
-4.71861e-07
-2.6272e-06
-5.79284e-07
-6.87179e-07
-2.5018e-06
-2.52863e-07
-2.50736e-06
-3.59266e-07
-2.51329e-06
-4.65933e-07
-2.51965e-06
-5.72919e-07
-2.52655e-06
-6.80286e-07
-7.88111e-07
-2.8112e-06
-2.59425e-06
-2.83226e-06
-2.73543e-06
-2.84683e-06
-2.8763e-06
-2.85176e-06
-3.01403e-06
-2.84344e-06
-3.14476e-06
-2.81789e-06
-3.26344e-06
-2.77106e-06
-3.36391e-06
-2.69912e-06
-3.439e-06
-2.59893e-06
-3.48088e-06
-2.46855e-06
-3.4816e-06
-2.30771e-06
-3.43391e-06
-2.11827e-06
-3.33221e-06
-1.90446e-06
-3.17363e-06
-1.67283e-06
-2.95894e-06
-1.43182e-06
-2.69323e-06
-1.19093e-06
-2.38597e-06
-9.59695e-07
-2.05032e-06
-7.46561e-07
-1.70178e-06
-5.58009e-07
-1.35646e-06
-3.98066e-07
-1.02931e-06
-2.68274e-07
-7.32838e-07
-1.68018e-07
-4.76546e-07
-9.5034e-08
-2.67016e-07
-4.59477e-08
-1.0852e-07
-1.67219e-08
-3.85245e-09
-2.95235e-09
4.48451e-08
3.53328e-08
-2.39931e-06
-2.47475e-07
-2.40488e-06
-3.53703e-07
-2.41066e-06
-4.60153e-07
-2.41671e-06
-5.66863e-07
-2.42312e-06
-6.73876e-07
-2.42998e-06
-7.81249e-07
-2.43742e-06
-8.89053e-07
-2.44558e-06
-9.97384e-07
-2.45463e-06
-1.10637e-06
-2.46478e-06
-1.21616e-06
-2.47623e-06
-1.32697e-06
-2.48922e-06
-1.43904e-06
-2.50401e-06
-1.55269e-06
-2.5208e-06
-1.66828e-06
-2.5398e-06
-1.78621e-06
-2.56113e-06
-1.90694e-06
-2.5848e-06
-2.03093e-06
-2.61063e-06
-2.1586e-06
-2.63822e-06
-2.29027e-06
-2.66682e-06
-2.42606e-06
-2.69528e-06
-2.56579e-06
-2.72193e-06
-2.70878e-06
-2.74455e-06
-2.85368e-06
-2.7603e-06
-2.99829e-06
-2.76573e-06
-3.13933e-06
-2.75688e-06
-3.2723e-06
-2.72944e-06
-3.39135e-06
-2.67907e-06
-3.48937e-06
-2.60179e-06
-3.55816e-06
-2.49448e-06
-3.5889e-06
-2.35549e-06
-3.5729e-06
-2.18517e-06
-3.50253e-06
-1.98632e-06
-3.37248e-06
-1.76434e-06
-3.18092e-06
-1.52705e-06
-2.93051e-06
-1.28405e-06
-2.62897e-06
-1.04563e-06
-2.28874e-06
-8.2155e-07
-1.92586e-06
-6.19898e-07
-1.55811e-06
-4.46273e-07
-1.20293e-06
-3.03526e-07
-8.75585e-07
-1.91952e-07
-5.8812e-07
-1.09795e-07
-3.49173e-07
-5.38537e-08
-1.64461e-07
-2.00267e-08
-3.76795e-08
-3.70943e-09
2.85279e-08
3.16234e-08
-2.30051e-06
-2.41866e-07
-2.30618e-06
-3.48037e-07
-2.31193e-06
-4.54403e-07
-2.31781e-06
-5.60982e-07
-2.32388e-06
-6.67802e-07
-2.33023e-06
-7.74899e-07
-2.33696e-06
-8.82321e-07
-2.34421e-06
-9.9014e-07
-2.35212e-06
-1.09845e-06
-2.3609e-06
-1.20738e-06
-2.37075e-06
-1.31712e-06
-2.38192e-06
-1.42787e-06
-2.39468e-06
-1.53993e-06
-2.4093e-06
-1.65366e-06
-2.42606e-06
-1.76946e-06
-2.44519e-06
-1.88782e-06
-2.46685e-06
-2.00927e-06
-2.49109e-06
-2.13436e-06
-2.51776e-06
-2.2636e-06
-2.54643e-06
-2.39739e-06
-2.57631e-06
-2.53591e-06
-2.60616e-06
-2.67893e-06
-2.63416e-06
-2.82568e-06
-2.65786e-06
-2.97459e-06
-2.67412e-06
-3.12307e-06
-2.67916e-06
-3.26726e-06
-2.66864e-06
-3.40186e-06
-2.63793e-06
-3.52008e-06
-2.58242e-06
-3.61367e-06
-2.49804e-06
-3.67328e-06
-2.38185e-06
-3.68909e-06
-2.23269e-06
-3.65169e-06
-2.05177e-06
-3.5534e-06
-1.84308e-06
-3.38961e-06
-1.61341e-06
-3.16018e-06
-1.37198e-06
-2.8704e-06
-1.12946e-06
-2.53126e-06
-8.96683e-07
-2.15863e-06
-6.83287e-07
-1.77151e-06
-4.96556e-07
-1.38966e-06
-3.40855e-07
-1.03129e-06
-2.17619e-07
-7.11355e-07
-1.25801e-07
-4.40992e-07
-6.2514e-08
-2.27748e-07
-2.36853e-08
-7.65082e-08
-4.55968e-09
9.40226e-09
2.70637e-08
-2.20471e-06
-2.35967e-07
-2.21056e-06
-3.42183e-07
-2.21639e-06
-4.48574e-07
-2.22223e-06
-5.55146e-07
-2.22812e-06
-6.61912e-07
-2.23413e-06
-7.68888e-07
-2.24035e-06
-8.76103e-07
-2.24688e-06
-9.83602e-07
-2.25388e-06
-1.09146e-06
-2.2615e-06
-1.19976e-06
-2.26995e-06
-1.30867e-06
-2.27946e-06
-1.41836e-06
-2.29031e-06
-1.52908e-06
-2.3028e-06
-1.64117e-06
-2.31723e-06
-1.75502e-06
-2.33392e-06
-1.87113e-06
-2.35315e-06
-1.99004e-06
-2.37512e-06
-2.11239e-06
-2.3999e-06
-2.23882e-06
-2.42735e-06
-2.36994e-06
-2.45703e-06
-2.50623e-06
-2.48807e-06
-2.64789e-06
-2.5191e-06
-2.79465e-06
-2.5481e-06
-2.94559e-06
-2.57236e-06
-3.09881e-06
-2.5884e-06
-3.25121e-06
-2.59206e-06
-3.39821e-06
-2.5786e-06
-3.53353e-06
-2.54306e-06
-3.64921e-06
-2.48063e-06
-3.73572e-06
-2.38727e-06
-3.78245e-06
-2.2604e-06
-3.77856e-06
-2.09962e-06
-3.71418e-06
-1.90729e-06
-3.58195e-06
-1.68884e-06
-3.37862e-06
-1.45267e-06
-3.10657e-06
-1.20939e-06
-2.77455e-06
-9.70558e-07
-2.39746e-06
-7.47194e-07
-1.99487e-06
-5.48298e-07
-1.58856e-06
-3.79915e-07
-1.19967e-06
-2.44851e-07
-8.46419e-07
-1.42982e-07
-5.42861e-07
-7.19083e-08
-2.98822e-07
-2.76955e-08
-1.20721e-07
-5.50445e-09
-1.27888e-08
2.15593e-08
-2.11118e-06
-2.29732e-07
-2.11729e-06
-3.3607e-07
-2.12329e-06
-4.42573e-07
-2.1292e-06
-5.49237e-07
-2.13506e-06
-6.5606e-07
-2.1409e-06
-7.63043e-07
-2.1468e-06
-8.70199e-07
-2.15286e-06
-9.7755e-07
-2.15917e-06
-1.08514e-06
-2.1659e-06
-1.19304e-06
-2.17321e-06
-1.30136e-06
-2.18133e-06
-1.41024e-06
-2.1905e-06
-1.51991e-06
-2.20104e-06
-1.63064e-06
-2.21325e-06
-1.74281e-06
-2.22751e-06
-1.85687e-06
-2.24416e-06
-1.97339e-06
-2.26353e-06
-2.09302e-06
-2.28584e-06
-2.2165e-06
-2.3112e-06
-2.34459e-06
-2.33945e-06
-2.47798e-06
-2.37011e-06
-2.61723e-06
-2.40221e-06
-2.76254e-06
-2.43422e-06
-2.91358e-06
-2.46387e-06
-3.06916e-06
-2.48812e-06
-3.22696e-06
-2.50311e-06
-3.38322e-06
-2.50423e-06
-3.53241e-06
-2.48637e-06
-3.66707e-06
-2.44424e-06
-3.77785e-06
-2.37294e-06
-3.85375e-06
-2.26863e-06
-3.88287e-06
-2.12935e-06
-3.85346e-06
-1.95575e-06
-3.75555e-06
-1.75167e-06
-3.5827e-06
-1.52428e-06
-3.33396e-06
-1.28367e-06
-3.01517e-06
-1.04171e-06
-2.63942e-06
-8.10532e-07
-2.22605e-06
-6.00776e-07
-1.79832e-06
-4.20279e-07
-1.38017e-06
-2.73426e-07
-9.93272e-07
-1.61242e-07
-6.55045e-07
-8.20032e-08
-3.78061e-07
-3.20511e-08
-1.70673e-07
-6.54466e-09
-3.82953e-08
1.50146e-08
-2.01266e-06
-1.1679e-07
-2.01926e-06
-2.23132e-07
-2.02568e-06
-3.29648e-07
-2.03193e-06
-4.36325e-07
-2.03801e-06
-5.43153e-07
-2.04396e-06
-6.50117e-07
-2.04979e-06
-7.57209e-07
-2.05557e-06
-8.64422e-07
-2.06135e-06
-9.71764e-07
-2.06724e-06
-1.07926e-06
-2.07334e-06
-1.18694e-06
-2.07981e-06
-1.29489e-06
-2.08683e-06
-1.40322e-06
-2.09464e-06
-1.5121e-06
-2.10351e-06
-1.62177e-06
-2.11377e-06
-1.73255e-06
-2.12578e-06
-1.84486e-06
-2.13993e-06
-1.95924e-06
-2.15661e-06
-2.07634e-06
-2.1762e-06
-2.19692e-06
-2.19895e-06
-2.32183e-06
-2.22497e-06
-2.45196e-06
-2.25409e-06
-2.58811e-06
-2.28575e-06
-2.73089e-06
-2.31884e-06
-2.88048e-06
-2.35162e-06
-3.03638e-06
-2.3815e-06
-3.19708e-06
-2.40507e-06
-3.35966e-06
-2.41801e-06
-3.51947e-06
-2.41527e-06
-3.66982e-06
-2.39131e-06
-3.8018e-06
-2.34063e-06
-3.90443e-06
-2.25836e-06
-3.96514e-06
-2.14112e-06
-3.97071e-06
-1.98787e-06
-3.9088e-06
-1.8007e-06
-3.76988e-06
-1.58526e-06
-3.5494e-06
-1.35067e-06
-3.24976e-06
-1.10868e-06
-2.88141e-06
-8.72143e-07
-2.46259e-06
-6.53182e-07
-2.01728e-06
-4.61447e-07
-1.5719e-06
-3.0307e-07
-1.15165e-06
-1.8045e-07
-7.77665e-07
-9.27502e-08
-4.65761e-07
-3.67404e-08
-2.26683e-07
-7.68016e-09
-6.73555e-08
7.33444e-09
-1.92137e-06
-1.09607e-07
-1.92835e-06
-2.16154e-07
-1.93511e-06
-3.22882e-07
-1.94166e-06
-4.29775e-07
-1.948e-06
-5.36814e-07
-1.95414e-06
-6.43978e-07
-1.9601e-06
-7.51247e-07
-1.96592e-06
-8.58607e-07
-1.97163e-06
-9.66048e-07
-1.97732e-06
-1.07357e-06
-1.98306e-06
-1.1812e-06
-1.98897e-06
-1.28897e-06
-1.99522e-06
-1.39697e-06
-2.002e-06
-1.50532e-06
-2.00956e-06
-1.61421e-06
-2.01819e-06
-1.72392e-06
-2.02825e-06
-1.8348e-06
-2.04014e-06
-1.94735e-06
-2.05429e-06
-2.06219e-06
-2.07113e-06
-2.18007e-06
-2.09108e-06
-2.30189e-06
-2.11441e-06
-2.42862e-06
-2.14123e-06
-2.56129e-06
-2.17132e-06
-2.7008e-06
-2.20401e-06
-2.84779e-06
-2.23802e-06
-3.00238e-06
-2.2713e-06
-3.1638e-06
-2.30092e-06
-3.33004e-06
-2.32298e-06
-3.49741e-06
-2.33268e-06
-3.66011e-06
-2.32449e-06
-3.81e-06
-2.29251e-06
-3.93641e-06
-2.23111e-06
-4.02654e-06
-2.13569e-06
-4.06612e-06
-2.00364e-06
-4.04085e-06
-1.83525e-06
-3.93827e-06
-1.63444e-06
-3.7502e-06
-1.409e-06
-3.47519e-06
-1.17008e-06
-3.12034e-06
-9.30857e-07
-2.70181e-06
-7.04647e-07
-2.24349e-06
-5.02849e-07
-1.7737e-06
-3.33454e-07
-1.32104e-06
-2.00445e-07
-9.10674e-07
-1.04083e-07
-5.62123e-07
-4.17445e-08
-2.89021e-07
-8.9093e-09
-1.00191e-07
-1.57487e-09
-1.80725e-06
2.17001e-07
-1.81522e-06
1.10877e-07
-1.82301e-06
4.53253e-09
-1.83059e-06
-1.02029e-07
-1.83794e-06
-2.08797e-07
-1.84507e-06
-3.15755e-07
-1.85196e-06
-4.22883e-07
-1.85862e-06
-5.30158e-07
-1.86504e-06
-6.37555e-07
-1.87124e-06
-7.45048e-07
-1.87723e-06
-8.52613e-07
-1.88305e-06
-9.6023e-07
-1.88874e-06
-1.06789e-06
-1.89436e-06
-1.17558e-06
-1.9e-06
-1.28333e-06
-1.90578e-06
-1.39119e-06
-1.91187e-06
-1.49923e-06
-1.91847e-06
-1.60761e-06
-1.92585e-06
-1.71654e-06
-1.93433e-06
-1.82632e-06
-1.94429e-06
-1.93738e-06
-1.95619e-06
-2.0503e-06
-1.97048e-06
-2.16578e-06
-1.98765e-06
-2.28472e-06
-2.00813e-06
-2.40814e-06
-2.03224e-06
-2.53719e-06
-2.06003e-06
-2.673e-06
-2.09122e-06
-2.8166e-06
-2.12497e-06
-2.96862e-06
-2.15977e-06
-3.129e-06
-2.19321e-06
-3.2966e-06
-2.22191e-06
-3.46871e-06
-2.24144e-06
-3.64058e-06
-2.24646e-06
-3.80498e-06
-2.23095e-06
-3.95192e-06
-2.18875e-06
-4.06873e-06
-2.1143e-06
-4.14057e-06
-2.00358e-06
-4.15157e-06
-1.85514e-06
-4.0867e-06
-1.67107e-06
-3.93427e-06
-1.45754e-06
-3.68872e-06
-1.22468e-06
-3.3532e-06
-9.85538e-07
-2.94095e-06
-7.54271e-07
-2.47476e-06
-5.43864e-07
-1.98411e-06
-3.64205e-07
-1.5007e-06
-2.2103e-07
-1.05385e-06
-1.15917e-07
-6.67236e-07
-4.70367e-08
-3.57902e-07
-1.02285e-08
-1.36999e-07
-1.18034e-08
-1.71546e-06
2.25531e-07
-1.72382e-06
1.19231e-07
-1.73197e-06
1.26918e-08
-1.73992e-06
-9.40791e-08
-1.74765e-06
-2.01068e-07
-1.75515e-06
-3.08258e-07
-1.76241e-06
-4.15624e-07
-1.76942e-06
-5.23143e-07
-1.77619e-06
-6.30786e-07
-1.78272e-06
-7.38524e-07
-1.789e-06
-8.46327e-07
-1.79506e-06
-9.54168e-07
-1.80093e-06
-1.06202e-06
-1.80663e-06
-1.16988e-06
-1.81224e-06
-1.27772e-06
-1.81784e-06
-1.38559e-06
-1.82355e-06
-1.49352e-06
-1.82955e-06
-1.60161e-06
-1.83605e-06
-1.71003e-06
-1.84335e-06
-1.81902e-06
-1.85179e-06
-1.92894e-06
-1.86179e-06
-2.04029e-06
-1.87384e-06
-2.15373e-06
-1.88846e-06
-2.2701e-06
-1.90616e-06
-2.39044e-06
-1.9274e-06
-2.51594e-06
-1.9525e-06
-2.64791e-06
-1.98146e-06
-2.78764e-06
-2.01388e-06
-2.9362e-06
-2.04871e-06
-3.09417e-06
-2.0841e-06
-3.26121e-06
-2.11721e-06
-3.43559e-06
-2.14413e-06
-3.61367e-06
-2.15983e-06
-3.78928e-06
-2.1584e-06
-3.95335e-06
-2.1334e-06
-4.09373e-06
-2.07856e-06
-4.19541e-06
-1.98867e-06
-4.24146e-06
-1.86068e-06
-4.21469e-06
-1.69484e-06
-4.10012e-06
-1.49551e-06
-3.88806e-06
-1.27145e-06
-3.57726e-06
-1.03514e-06
-3.17725e-06
-8.01168e-07
-2.70873e-06
-5.83841e-07
-2.20143e-06
-3.94906e-07
-1.68964e-06
-2.41977e-07
-1.20678e-06
-1.28147e-07
-7.81066e-07
-5.25813e-08
-4.33467e-07
-1.1632e-08
-1.77948e-07
-2.34353e-08
-1.62362e-06
2.3439e-07
-1.6323e-06
1.27915e-07
-1.6408e-06
2.11877e-08
-1.64909e-06
-8.57838e-08
-1.65718e-06
-1.92984e-07
-1.66504e-06
-3.00393e-07
-1.67268e-06
-4.07987e-07
-1.68008e-06
-5.1574e-07
-1.68724e-06
-6.23625e-07
-1.69416e-06
-7.31609e-07
-1.70082e-06
-8.39662e-07
-1.70724e-06
-9.4775e-07
-1.71342e-06
-1.05584e-06
-1.71938e-06
-1.16391e-06
-1.72516e-06
-1.27195e-06
-1.73082e-06
-1.37993e-06
-1.73644e-06
-1.4879e-06
-1.74216e-06
-1.5959e-06
-1.74815e-06
-1.70404e-06
-1.75465e-06
-1.81252e-06
-1.76198e-06
-1.92162e-06
-1.77051e-06
-2.03176e-06
-1.7807e-06
-2.14353e-06
-1.79309e-06
-2.25771e-06
-1.80825e-06
-2.37529e-06
-1.82672e-06
-2.49747e-06
-1.84898e-06
-2.62564e-06
-1.87532e-06
-2.7613e-06
-1.90566e-06
-2.90586e-06
-1.93942e-06
-3.06042e-06
-1.97525e-06
-3.22537e-06
-2.0109e-06
-3.39994e-06
-2.043e-06
-3.58156e-06
-2.067e-06
-3.76527e-06
-2.07725e-06
-3.94311e-06
-2.06726e-06
-4.10372e-06
-2.0303e-06
-4.23237e-06
-1.96023e-06
-4.31154e-06
-1.85258e-06
-4.32233e-06
-1.70584e-06
-4.24686e-06
-1.52248e-06
-4.07142e-06
-1.30962e-06
-3.79013e-06
-1.07877e-06
-3.4081e-06
-8.44498e-07
-2.943e-06
-6.22125e-07
-2.4238e-06
-4.25117e-07
-1.88665e-06
-2.63031e-07
-1.36886e-06
-1.40652e-07
-9.03446e-07
-5.83341e-08
-5.15785e-07
-1.31115e-08
-2.23171e-07
-3.65469e-08
-1.5315e-06
2.43522e-07
-1.54047e-06
1.36885e-07
-1.54927e-06
2.99838e-08
-1.55788e-06
-7.71701e-08
-1.5663e-06
-1.8456e-07
-1.57453e-06
-2.92167e-07
-1.58255e-06
-3.99966e-07
-1.59036e-06
-5.07934e-07
-1.59794e-06
-6.16042e-07
-1.60529e-06
-7.24259e-07
-1.6124e-06
-8.32554e-07
-1.61926e-06
-9.40892e-07
-1.62586e-06
-1.04924e-06
-1.63222e-06
-1.15756e-06
-1.63834e-06
-1.26582e-06
-1.64426e-06
-1.37401e-06
-1.65003e-06
-1.48212e-06
-1.65575e-06
-1.59017e-06
-1.66155e-06
-1.69824e-06
-1.66763e-06
-1.80644e-06
-1.67424e-06
-1.91501e-06
-1.68171e-06
-2.02429e-06
-1.69048e-06
-2.13476e-06
-1.70106e-06
-2.24714e-06
-1.71401e-06
-2.36234e-06
-1.72995e-06
-2.48153e-06
-1.74947e-06
-2.60612e-06
-1.77304e-06
-2.73773e-06
-1.80089e-06
-2.87802e-06
-1.8328e-06
-3.02851e-06
-1.86794e-06
-3.19024e-06
-1.90459e-06
-3.36329e-06
-1.93999e-06
-3.54617e-06
-1.97012e-06
-3.73515e-06
-1.98972e-06
-3.9235e-06
-1.99249e-06
-4.10096e-06
-1.97145e-06
-4.2534e-06
-1.9198e-06
-4.36319e-06
-1.83189e-06
-4.41024e-06
-1.70455e-06
-4.37419e-06
-1.53839e-06
-4.23758e-06
-1.33871e-06
-3.98981e-06
-1.11571e-06
-3.63111e-06
-8.83514e-07
-3.17519e-06
-6.58082e-07
-2.64924e-06
-4.54388e-07
-2.09034e-06
-2.83921e-07
-1.53933e-06
-1.53293e-07
-1.03407e-06
-6.42428e-08
-6.04835e-07
-1.46567e-08
-2.72757e-07
-5.12036e-08
-1.43897e-06
2.52879e-07
-1.44818e-06
1.46098e-07
-1.45724e-06
3.90463e-08
-1.46615e-06
-6.82642e-08
-1.47489e-06
-1.75816e-07
-1.48347e-06
-2.83591e-07
-1.49187e-06
-3.91566e-07
-1.50009e-06
-4.99717e-07
-1.50811e-06
-6.08019e-07
-1.51593e-06
-7.16443e-07
-1.52352e-06
-8.24959e-07
-1.53088e-06
-9.33532e-07
-1.53799e-06
-1.04213e-06
-1.54485e-06
-1.1507e-06
-1.55144e-06
-1.25923e-06
-1.55779e-06
-1.36767e-06
-1.56392e-06
-1.476e-06
-1.56988e-06
-1.58421e-06
-1.57577e-06
-1.69234e-06
-1.58175e-06
-1.80047e-06
-1.58801e-06
-1.90875e-06
-1.59484e-06
-2.01746e-06
-1.60261e-06
-2.12699e-06
-1.6118e-06
-2.23795e-06
-1.62295e-06
-2.35118e-06
-1.63671e-06
-2.46777e-06
-1.65373e-06
-2.58911e-06
-1.67461e-06
-2.71685e-06
-1.6998e-06
-2.85283e-06
-1.72941e-06
-2.99889e-06
-1.76305e-06
-3.1566e-06
-1.79952e-06
-3.32681e-06
-1.83664e-06
-3.50905e-06
-1.87099e-06
-3.7008e-06
-1.89782e-06
-3.89667e-06
-1.91113e-06
-4.08764e-06
-1.90397e-06
-4.26057e-06
-1.86907e-06
-4.39809e-06
-1.79986e-06
-4.47946e-06
-1.69173e-06
-4.48232e-06
-1.54348e-06
-4.38583e-06
-1.35851e-06
-4.17477e-06
-1.14544e-06
-3.84417e-06
-9.17591e-07
-3.40305e-06
-6.9113e-07
-2.8757e-06
-4.82274e-07
-2.2992e-06
-3.04361e-07
-1.71724e-06
-1.65922e-07
-1.17251e-06
-7.0248e-08
-7.00509e-07
-1.62548e-08
-3.2675e-07
-6.74583e-08
-1.34592e-06
2.62419e-07
-1.35535e-06
1.5552e-07
-1.36464e-06
4.83451e-08
-1.37382e-06
-5.90906e-08
-1.38286e-06
-1.66771e-07
-1.39178e-06
-2.74678e-07
-1.40055e-06
-3.82791e-07
-1.40918e-06
-4.91089e-07
-1.41765e-06
-5.99548e-07
-1.42595e-06
-7.08144e-07
-1.43406e-06
-8.16847e-07
-1.44197e-06
-9.25627e-07
-1.44964e-06
-1.03445e-06
-1.45707e-06
-1.14327e-06
-1.46424e-06
-1.25206e-06
-1.47114e-06
-1.36077e-06
-1.47778e-06
-1.46936e-06
-1.48418e-06
-1.57781e-06
-1.49041e-06
-1.68612e-06
-1.49656e-06
-1.79432e-06
-1.5028e-06
-1.90252e-06
-1.50935e-06
-2.0109e-06
-1.51654e-06
-2.1198e-06
-1.52477e-06
-2.22972e-06
-1.53457e-06
-2.34138e-06
-1.54656e-06
-2.45578e-06
-1.56141e-06
-2.57426e-06
-1.57982e-06
-2.69844e-06
-1.6024e-06
-2.83025e-06
-1.62952e-06
-2.97176e-06
-1.66115e-06
-3.12497e-06
-1.69657e-06
-3.29139e-06
-1.73417e-06
-3.47146e-06
-1.77113e-06
-3.66384e-06
-1.80328e-06
-3.86451e-06
-1.82507e-06
-4.06586e-06
-1.82971e-06
-4.25592e-06
-1.80975e-06
-4.41806e-06
-1.75791e-06
-4.5313e-06
-1.66837e-06
-4.57185e-06
-1.53826e-06
-4.51594e-06
-1.36908e-06
-4.34395e-06
-1.16769e-06
-4.04556e-06
-9.46249e-07
-3.62449e-06
-7.20763e-07
-3.10118e-06
-5.08356e-07
-2.5116e-06
-3.24071e-07
-1.90153e-06
-1.78384e-07
-1.3182e-06
-7.62849e-08
-8.02608e-07
-1.78911e-08
-3.85144e-07
-8.53494e-08
-1.25231e-06
2.72105e-07
-1.26191e-06
1.65117e-07
-1.27142e-06
5.78537e-08
-1.28084e-06
-4.9671e-08
-1.29017e-06
-1.57441e-07
-1.2994e-06
-2.6544e-07
-1.30855e-06
-3.7365e-07
-1.31758e-06
-4.82052e-07
-1.3265e-06
-5.90626e-07
-1.3353e-06
-6.99351e-07
-1.34394e-06
-8.08202e-07
-1.35242e-06
-9.17151e-07
-1.3607e-06
-1.02617e-06
-1.36876e-06
-1.13521e-06
-1.37658e-06
-1.24424e-06
-1.38413e-06
-1.35322e-06
-1.3914e-06
-1.46209e-06
-1.3984e-06
-1.57081e-06
-1.40515e-06
-1.67937e-06
-1.41172e-06
-1.78775e-06
-1.41821e-06
-1.89602e-06
-1.42481e-06
-2.0043e-06
-1.43178e-06
-2.11284e-06
-1.43947e-06
-2.22203e-06
-1.44835e-06
-2.3325e-06
-1.459e-06
-2.44513e-06
-1.47209e-06
-2.56116e-06
-1.48836e-06
-2.68217e-06
-1.50853e-06
-2.81008e-06
-1.53316e-06
-2.94713e-06
-1.56252e-06
-3.09561e-06
-1.59632e-06
-3.25759e-06
-1.63346e-06
-3.43432e-06
-1.67173e-06
-3.62557e-06
-1.70756e-06
-3.82867e-06
-1.73594e-06
-4.03749e-06
-1.75041e-06
-4.24146e-06
-1.74351e-06
-4.42496e-06
-1.70752e-06
-4.56729e-06
-1.63563e-06
-4.64374e-06
-1.52348e-06
-4.62809e-06
-1.37073e-06
-4.49671e-06
-1.18238e-06
-4.23391e-06
-9.69169e-07
-3.8377e-06
-7.46568e-07
-3.32378e-06
-5.3226e-07
-2.72591e-06
-3.42776e-07
-2.09101e-06
-1.90519e-07
-1.47046e-06
-8.22849e-08
-9.10843e-07
-1.95495e-08
-4.4788e-07
-1.04899e-07
-1.15811e-06
2.81907e-07
-1.16786e-06
1.74864e-07
-1.17755e-06
6.75494e-08
-1.1872e-06
-4.00248e-08
-1.1968e-06
-1.47843e-07
-1.20634e-06
-2.55891e-07
-1.21584e-06
-3.64153e-07
-1.22528e-06
-4.72613e-07
-1.23465e-06
-5.81256e-07
-1.24394e-06
-6.90063e-07
-1.25313e-06
-7.99014e-07
-1.26219e-06
-9.08087e-07
-1.27111e-06
-1.01725e-06
-1.27984e-06
-1.12648e-06
-1.28835e-06
-1.23573e-06
-1.29663e-06
-1.34494e-06
-1.30463e-06
-1.45409e-06
-1.31234e-06
-1.5631e-06
-1.31976e-06
-1.67194e-06
-1.32693e-06
-1.78058e-06
-1.33392e-06
-1.88904e-06
-1.34085e-06
-1.99737e-06
-1.34793e-06
-2.10576e-06
-1.35545e-06
-2.2145e-06
-1.36383e-06
-2.32412e-06
-1.37358e-06
-2.43539e-06
-1.38534e-06
-2.5494e-06
-1.39986e-06
-2.66764e-06
-1.41792e-06
-2.79203e-06
-1.44022e-06
-2.92483e-06
-1.46726e-06
-3.06857e-06
-1.49911e-06
-3.22573e-06
-1.53514e-06
-3.39829e-06
-1.5737e-06
-3.58702e-06
-1.61185e-06
-3.79052e-06
-1.64515e-06
-4.00419e-06
-1.6676e-06
-4.219e-06
-1.67192e-06
-4.42063e-06
-1.65016e-06
-4.58905e-06
-1.59475e-06
-4.69915e-06
-1.50003e-06
-4.72281e-06
-1.36395e-06
-4.63278e-06
-1.18963e-06
-4.40823e-06
-9.86198e-07
-4.04113e-06
-7.68245e-07
-3.54174e-06
-5.53666e-07
-2.94049e-06
-3.60228e-07
-2.28445e-06
-2.02176e-07
-1.62851e-06
-8.81784e-08
-1.02484e-06
-2.12125e-08
-5.14845e-07
-1.26111e-07
-1.06331e-06
2.91798e-07
-1.07318e-06
1.84739e-07
-1.08304e-06
7.74128e-08
-1.0929e-06
-3.01683e-08
-1.10275e-06
-1.37991e-07
-1.1126e-06
-2.46042e-07
-1.12245e-06
-3.54308e-07
-1.13228e-06
-4.62778e-07
-1.1421e-06
-5.71439e-07
-1.15188e-06
-6.80278e-07
-1.16162e-06
-7.8928e-07
-1.17128e-06
-8.98427e-07
-1.18084e-06
-1.00769e-06
-1.19026e-06
-1.11706e-06
-1.19951e-06
-1.22647e-06
-1.20856e-06
-1.3359e-06
-1.21735e-06
-1.44529e-06
-1.22587e-06
-1.55458e-06
-1.23409e-06
-1.66372e-06
-1.24201e-06
-1.77266e-06
-1.24968e-06
-1.88137e-06
-1.25718e-06
-1.98988e-06
-1.26465e-06
-2.09828e-06
-1.27234e-06
-2.20682e-06
-1.28058e-06
-2.31588e-06
-1.28984e-06
-2.42613e-06
-1.30071e-06
-2.53853e-06
-1.31391e-06
-2.65445e-06
-1.33022e-06
-2.77571e-06
-1.35046e-06
-2.90459e-06
-1.3753e-06
-3.04373e-06
-1.40508e-06
-3.19595e-06
-1.43959e-06
-3.36379e-06
-1.47769e-06
-3.54891e-06
-1.51706e-06
-3.75115e-06
-1.55386e-06
-3.96738e-06
-1.58265e-06
-4.19022e-06
-1.59644e-06
-4.40684e-06
-1.58724e-06
-4.59825e-06
-1.54697e-06
-4.73941e-06
-1.4689e-06
-4.80088e-06
-1.34941e-06
-4.75228e-06
-1.18976e-06
-4.56788e-06
-9.97338e-07
-4.23355e-06
-7.85608e-07
-3.75347e-06
-5.72324e-07
-3.15378e-06
-3.76207e-07
-2.48057e-06
-2.13209e-07
-1.79151e-06
-9.38963e-08
-1.14415e-06
-2.28623e-08
-5.85879e-07
-1.48974e-07
-9.67913e-07
3.01755e-07
-9.77895e-07
1.94722e-07
-9.8791e-07
8.74272e-08
-9.97962e-07
-2.0116e-08
-1.00806e-06
-1.27896e-07
-1.0182e-06
-2.35902e-07
-1.02838e-06
-3.44124e-07
-1.0386e-06
-4.52554e-07
-1.04886e-06
-5.61182e-07
-1.05914e-06
-6.7e-07
-1.06942e-06
-7.78999e-07
-1.07968e-06
-8.88165e-07
-1.0899e-06
-9.97482e-07
-1.10003e-06
-1.10692e-06
-1.11004e-06
-1.21646e-06
-1.11988e-06
-1.32606e-06
-1.12952e-06
-1.43565e-06
-1.13891e-06
-1.5452e-06
-1.14801e-06
-1.65462e-06
-1.15681e-06
-1.76386e-06
-1.16531e-06
-1.87287e-06
-1.17356e-06
-1.98162e-06
-1.18167e-06
-2.09018e-06
-1.1898e-06
-2.19868e-06
-1.19825e-06
-2.30744e-06
-1.2074e-06
-2.41697e-06
-1.21779e-06
-2.52813e-06
-1.23009e-06
-2.64215e-06
-1.24508e-06
-2.76072e-06
-1.2636e-06
-2.88607e-06
-1.28646e-06
-3.02088e-06
-1.31422e-06
-3.16819e-06
-1.347e-06
-3.33101e-06
-1.38414e-06
-3.51177e-06
-1.42389e-06
-3.71141e-06
-1.46303e-06
-3.92825e-06
-1.49668e-06
-4.15656e-06
-1.51832e-06
-4.38521e-06
-1.52007e-06
-4.5965e-06
-1.49354e-06
-4.76595e-06
-1.43114e-06
-4.86328e-06
-1.32786e-06
-4.85556e-06
-1.18319e-06
-4.71254e-06
-1.00273e-06
-4.41401e-06
-7.98587e-07
-3.95761e-06
-5.88061e-07
-3.3643e-06
-3.90533e-07
-2.6781e-06
-2.23489e-07
-1.95855e-06
-9.93732e-08
-1.26827e-06
-2.44807e-08
-6.60772e-07
-1.73454e-07
-8.71942e-07
3.1176e-07
-8.82016e-07
2.04795e-07
-8.92167e-07
9.7578e-08
-9.02402e-07
-9.88045e-09
-9.12728e-07
-1.1757e-07
-9.23148e-07
-2.25482e-07
-9.33663e-07
-3.33609e-07
-9.44271e-07
-4.41946e-07
-9.54964e-07
-5.50489e-07
-9.65732e-07
-6.59233e-07
-9.76558e-07
-7.68173e-07
-9.87422e-07
-8.77302e-07
-9.98294e-07
-9.86609e-07
-1.00914e-06
-1.09608e-06
-1.01992e-06
-1.20568e-06
-1.0306e-06
-1.31538e-06
-1.04111e-06
-1.42514e-06
-1.05142e-06
-1.53489e-06
-1.06147e-06
-1.64457e-06
-1.07123e-06
-1.7541e-06
-1.08068e-06
-1.86341e-06
-1.08984e-06
-1.97246e-06
-1.09877e-06
-2.08125e-06
-1.10759e-06
-2.18986e-06
-1.11654e-06
-2.2985e-06
-1.12592e-06
-2.40759e-06
-1.13622e-06
-2.51784e-06
-1.14803e-06
-2.63034e-06
-1.16211e-06
-2.74664e-06
-1.17931e-06
-2.86887e-06
-1.20049e-06
-2.9997e-06
-1.22639e-06
-3.14228e-06
-1.25742e-06
-3.29999e-06
-1.29331e-06
-3.47588e-06
-1.33282e-06
-3.6719e-06
-1.37336e-06
-3.88771e-06
-1.41066e-06
-4.11926e-06
-1.43869e-06
-4.35717e-06
-1.44985e-06
-4.58534e-06
-1.43563e-06
-4.78017e-06
-1.38779e-06
-4.91112e-06
-1.30013e-06
-4.94323e-06
-1.17049e-06
-4.84218e-06
-1.00266e-06
-4.58185e-06
-8.07222e-07
-4.15305e-06
-6.0078e-07
-3.57074e-06
-4.0307e-07
-2.8758e-06
-2.32907e-07
-2.12871e-06
-1.04549e-07
-1.39663e-06
-2.60503e-08
-7.39271e-07
-1.99505e-07
-7.75411e-07
3.21795e-07
-7.8556e-07
2.14945e-07
-7.95834e-07
1.07852e-07
-8.06242e-07
5.2705e-10
-8.1679e-07
-1.07022e-07
-8.27482e-07
-2.14789e-07
-8.38322e-07
-3.2277e-07
-8.49306e-07
-4.30962e-07
-8.60431e-07
-5.39364e-07
-8.71686e-07
-6.47978e-07
-8.83056e-07
-7.56803e-07
-8.94521e-07
-8.65837e-07
-9.06054e-07
-9.75076e-07
-9.17623e-07
-1.08451e-06
-9.29187e-07
-1.19412e-06
-9.40702e-07
-1.30387e-06
-9.52114e-07
-1.41373e-06
-9.63372e-07
-1.52363e-06
-9.74419e-07
-1.63352e-06
-9.85207e-07
-1.74331e-06
-9.95702e-07
-1.85292e-06
-1.00589e-06
-1.96228e-06
-1.0158e-06
-2.07134e-06
-1.02552e-06
-2.18014e-06
-1.0352e-06
-2.28881e-06
-1.04512e-06
-2.39767e-06
-1.05567e-06
-2.50729e-06
-1.06738e-06
-2.61862e-06
-1.08097e-06
-2.73306e-06
-1.09724e-06
-2.8526e-06
-1.11711e-06
-2.97983e-06
-1.14142e-06
-3.11797e-06
-1.17078e-06
-3.27062e-06
-1.20529e-06
-3.44137e-06
-1.24417e-06
-3.63302e-06
-1.28539e-06
-3.84649e-06
-1.32531e-06
-4.07934e-06
-1.35847e-06
-4.32402e-06
-1.37763e-06
-4.56617e-06
-1.37433e-06
-4.78347e-06
-1.33988e-06
-4.94557e-06
-1.26708e-06
-5.01603e-06
-1.15227e-06
-4.95699e-06
-9.97467e-07
-4.73665e-06
-8.1165e-07
-4.33887e-06
-6.10462e-07
-3.77193e-06
-4.13731e-07
-3.07254e-06
-2.41375e-07
-2.30107e-06
-1.09372e-07
-1.52863e-06
-2.75547e-08
-8.21088e-07
-2.27059e-07
-6.78336e-07
3.31843e-07
-6.88547e-07
2.25156e-07
-6.98932e-07
1.18237e-07
-7.09501e-07
1.1096e-08
-7.20261e-07
-9.62617e-08
-7.31219e-07
-2.03832e-07
-7.42376e-07
-3.11613e-07
-7.53733e-07
-4.19605e-07
-7.65285e-07
-5.27813e-07
-7.77023e-07
-6.36239e-07
-7.88935e-07
-7.44891e-07
-8.01001e-07
-8.53771e-07
-8.13196e-07
-9.6288e-07
-8.25489e-07
-1.07222e-06
-8.37841e-07
-1.18176e-06
-8.50207e-07
-1.2915e-06
-8.62535e-07
-1.4014e-06
-8.74768e-07
-1.5114e-06
-8.86846e-07
-1.62144e-06
-8.98713e-07
-1.73144e-06
-9.10319e-07
-1.84131e-06
-9.21632e-07
-1.95096e-06
-9.32651e-07
-2.06032e-06
-9.43421e-07
-2.16937e-06
-9.54056e-07
-2.27818e-06
-9.64762e-07
-2.38696e-06
-9.75867e-07
-2.49619e-06
-9.87841e-07
-2.60665e-06
-1.00131e-06
-2.71959e-06
-1.01707e-06
-2.83684e-06
-1.03601e-06
-2.9609e-06
-1.05904e-06
-3.09494e-06
-1.08695e-06
-3.24272e-06
-1.12009e-06
-3.40822e-06
-1.15811e-06
-3.595e-06
-1.1995e-06
-3.8051e-06
-1.24123e-06
-4.03762e-06
-1.27842e-06
-4.28682e-06
-1.30431e-06
-4.54028e-06
-1.3106e-06
-4.77718e-06
-1.28836e-06
-4.96781e-06
-1.22956e-06
-5.07483e-06
-1.12921e-06
-5.05734e-06
-9.87611e-07
-4.87825e-06
-8.12091e-07
-4.51439e-06
-6.17161e-07
-3.96686e-06
-4.22475e-07
-3.26722e-06
-2.48831e-07
-2.47471e-06
-1.13798e-07
-1.66366e-06
-2.89794e-08
-9.05906e-07
-2.56039e-07
-5.80732e-07
3.41889e-07
-5.90991e-07
2.35415e-07
-6.01475e-07
1.28721e-07
-6.12195e-07
2.1816e-08
-6.23159e-07
-8.52973e-08
-6.34374e-07
-1.92617e-07
-6.45844e-07
-3.00143e-07
-6.57568e-07
-4.07881e-07
-6.69543e-07
-5.15837e-07
-6.81763e-07
-6.2402e-07
-6.94214e-07
-7.32439e-07
-7.06881e-07
-8.41104e-07
-7.19739e-07
-9.50022e-07
-7.32759e-07
-1.0592e-06
-7.45903e-07
-1.16862e-06
-7.59128e-07
-1.27828e-06
-7.72382e-07
-1.38814e-06
-7.85608e-07
-1.49817e-06
-7.98743e-07
-1.60831e-06
-8.11725e-07
-1.71846e-06
-8.24495e-07
-1.82854e-06
-8.37006e-07
-1.93845e-06
-8.49233e-07
-2.0481e-06
-8.6119e-07
-2.15741e-06
-8.72948e-07
-2.26642e-06
-8.84661e-07
-2.37525e-06
-8.96592e-07
-2.48426e-06
-9.09141e-07
-2.5941e-06
-9.22866e-07
-2.70586e-06
-9.38494e-07
-2.82121e-06
-9.56895e-07
-2.9425e-06
-9.79013e-07
-3.07282e-06
-1.00573e-06
-3.216e-06
-1.03763e-06
-3.37632e-06
-1.07471e-06
-3.55792e-06
-1.11592e-06
-3.76388e-06
-1.15883e-06
-3.99471e-06
-1.19915e-06
-4.2465e-06
-1.23066e-06
-4.50877e-06
-1.24532e-06
-4.76251e-06
-1.23411e-06
-4.97902e-06
-1.18839e-06
-5.12056e-06
-1.10197e-06
-5.14375e-06
-9.73576e-07
-5.00664e-06
-8.08835e-07
-4.67913e-06
-6.20992e-07
-4.15471e-06
-4.29311e-07
-3.4589e-06
-2.5524e-07
-2.64878e-06
-1.17795e-07
-1.80111e-06
-3.03118e-08
-9.9339e-07
-2.86351e-07
-4.82613e-07
3.51917e-07
-4.92905e-07
2.45707e-07
-5.03476e-07
1.39292e-07
-5.14337e-07
3.26764e-08
-5.25496e-07
-7.4138e-08
-5.36961e-07
-1.81152e-07
-5.48736e-07
-2.88368e-07
-5.60823e-07
-3.95795e-07
-5.73219e-07
-5.03442e-07
-5.85917e-07
-6.11321e-07
-5.98908e-07
-7.19449e-07
-6.12174e-07
-8.27837e-07
-6.25696e-07
-9.365e-07
-6.39445e-07
-1.04545e-06
-6.53385e-07
-1.15468e-06
-6.67475e-07
-1.26419e-06
-6.81664e-07
-1.37396e-06
-6.95896e-07
-1.48394e-06
-7.10108e-07
-1.59409e-06
-7.24235e-07
-1.70433e-06
-7.3821e-07
-1.81457e-06
-7.51975e-07
-1.92469e-06
-7.65489e-07
-2.03458e-06
-7.7874e-07
-2.14416e-06
-7.91765e-07
-2.25339e-06
-8.04668e-07
-2.36235e-06
-8.17656e-07
-2.47127e-06
-8.31059e-07
-2.58069e-06
-8.45364e-07
-2.69156e-06
-8.6123e-07
-2.80535e-06
-8.7948e-07
-2.92425e-06
-9.01054e-07
-3.05125e-06
-9.26898e-07
-3.19016e-06
-9.57767e-07
-3.34545e-06
-9.93933e-07
-3.52176e-06
-1.03479e-06
-3.72302e-06
-1.07842e-06
-3.95108e-06
-1.12115e-06
-4.20377e-06
-1.1573e-06
-4.47262e-06
-1.17923e-06
-4.74058e-06
-1.17794e-06
-4.98031e-06
-1.14434e-06
-5.15416e-06
-1.07124e-06
-5.21685e-06
-9.5588e-07
-5.12201e-06
-8.02217e-07
-4.83279e-06
-6.22129e-07
-4.33479e-06
-4.34291e-07
-3.64674e-06
-2.60594e-07
-2.82248e-06
-1.21343e-07
-1.94036e-06
-3.15419e-08
-1.08319e-06
-3.17893e-07
-3.83987e-07
3.61911e-07
-3.94299e-07
2.56019e-07
-4.04944e-07
1.49937e-07
-4.15934e-07
4.36663e-08
-4.27279e-07
-6.27932e-08
-4.38986e-07
-1.69444e-07
-4.51061e-07
-2.76293e-07
-4.63505e-07
-3.8335e-07
-4.76318e-07
-4.90629e-07
-4.89493e-07
-5.98146e-07
-5.03021e-07
-7.0592e-07
-5.16889e-07
-8.1397e-07
-5.31075e-07
-9.22314e-07
-5.45555e-07
-1.03097e-06
-5.60295e-07
-1.13994e-06
-5.75255e-07
-1.24923e-06
-5.90388e-07
-1.35882e-06
-6.05637e-07
-1.46869e-06
-6.20942e-07
-1.57879e-06
-6.36235e-07
-1.68904e-06
-6.51447e-07
-1.79936e-06
-6.66513e-07
-1.90962e-06
-6.81378e-07
-2.01972e-06
-6.9601e-07
-2.12953e-06
-7.10417e-07
-2.23899e-06
-7.24665e-07
-2.3481e-06
-7.38906e-07
-2.45703e-06
-7.53408e-07
-2.56619e-06
-7.68588e-07
-2.67638e-06
-7.85031e-07
-2.7889e-06
-8.03499e-07
-2.90578e-06
-8.24904e-07
-3.02984e-06
-8.5022e-07
-3.16484e-06
-8.8032e-07
-3.31535e-06
-9.15706e-07
-3.48637e-06
-9.56139e-07
-3.68259e-06
-1.00018e-06
-3.90704e-06
-1.04475e-06
-4.1592e-06
-1.08474e-06
-4.43264e-06
-1.11295e-06
-4.71237e-06
-1.12054e-06
-4.97272e-06
-1.09812e-06
-5.17658e-06
-1.03767e-06
-5.2773e-06
-9.3505e-07
-5.22463e-06
-7.92609e-07
-4.97523e-06
-6.20784e-07
-4.50662e-06
-4.37505e-07
-3.83002e-06
-2.6491e-07
-2.99508e-06
-1.24432e-07
-2.08084e-06
-3.26627e-08
-1.17496e-06
-3.50555e-07
-2.84862e-07
3.71853e-07
-2.95178e-07
2.66335e-07
-3.05883e-07
1.60642e-07
-3.1699e-07
5.47734e-08
-3.2851e-07
-5.12731e-08
-3.40451e-07
-1.57503e-07
-3.52819e-07
-2.63926e-07
-3.65615e-07
-3.70554e-07
-3.78841e-07
-4.77404e-07
-3.9249e-07
-5.84497e-07
-4.06556e-07
-6.91855e-07
-4.21024e-07
-7.99501e-07
-4.35877e-07
-9.07461e-07
-4.51091e-07
-1.01575e-06
-4.66635e-07
-1.1244e-06