/*--------------------------------*- C++ -*----------------------------------*\
  =========                 |
  \\      /  F ield         | OpenFOAM: The Open Source CFD Toolbox
   \\    /   O peration     | Website:  https://openfoam.org
    \\  /    A nd           | Version:  9
     \\/     M anipulation  |
\*---------------------------------------------------------------------------*/
FoamFile
{
    format      ascii;
    class       volScalarField;
    location    "1";
    object      p;
}
// * * * * * * * * * * * * * * * * * * * * * * * * * * * * * * * * * * * * * //

dimensions      [0 2 -2 0 0 0 0];

internalField   nonuniform List<scalar> 
1250
(
-0.0229095
-0.0241336
-0.0255077
-0.027039
-0.0287322
-0.030588
-0.0326028
-0.0347686
-0.0370731
-0.0395002
-0.0420303
-0.0446411
-0.0473091
-0.0500099
-0.0527193
-0.055414
-0.0580724
-0.0606745
-0.0153803
-0.015343
-0.0153235
-0.0153143
-0.0153126
-0.015319
-0.0153342
-0.0153598
-0.0153976
-0.0154499
-0.0155195
-0.0156091
-0.0157218
-0.0158607
-0.0160292
-0.0162311
-0.0164704
-0.0167518
-0.0170808
-0.0174636
-0.0179075
-0.0184207
-0.0190125
-0.0196933
-0.0204742
-0.0213668
-0.0223829
-0.0235331
-0.0248263
-0.0262707
-0.0278718
-0.0296311
-0.0315466
-0.0336118
-0.0358165
-0.0381461
-0.0405831
-0.0431068
-0.0456949
-0.0483238
-0.0509699
-0.0536101
-0.0562221
-0.0587856
-0.0155485
-0.0155138
-0.0154947
-0.0154838
-0.0154779
-0.0154772
-0.0154823
-0.0154946
-0.0155161
-0.0155494
-0.0155973
-0.0156631
-0.01575
-0.0158614
-0.0160009
-0.0161723
-0.0163797
-0.0166276
-0.0169213
-0.0172667
-0.0176706
-0.0181407
-0.0186859
-0.0193158
-0.0200408
-0.0208722
-0.0218208
-0.0228963
-0.024109
-0.025467
-0.0269759
-0.0286384
-0.0304534
-0.0324164
-0.0345186
-0.0367476
-0.0390873
-0.041519
-0.0440216
-0.0465727
-0.0491493
-0.0517284
-0.0542879
-0.0568068
-0.0157068
-0.0156756
-0.0156573
-0.0156449
-0.0156347
-0.0156265
-0.0156207
-0.0156187
-0.0156225
-0.015635
-0.0156594
-0.0156993
-0.0157584
-0.0158402
-0.0159487
-0.0160877
-0.0162613
-0.0164741
-0.016731
-0.0170378
-0.0174008
-0.0178272
-0.0183254
-0.0189042
-0.0195735
-0.0203437
-0.0212249
-0.0222275
-0.0233611
-0.0246339
-0.0260518
-0.0276182
-0.0293332
-0.0311936
-0.0331922
-0.0353184
-0.037558
-0.0398939
-0.0423064
-0.0447745
-0.0472758
-0.049788
-0.0522889
-0.0547573
-0.0158563
-0.0158296
-0.0158128
-0.015799
-0.0157844
-0.0157682
-0.0157506
-0.0157329
-0.0157175
-0.0157075
-0.0157065
-0.0157186
-0.0157477
-0.0157979
-0.0158732
-0.0159779
-0.0161161
-0.0162922
-0.0165111
-0.0167782
-0.0170996
-0.017482
-0.017933
-0.0184612
-0.0190756
-0.0197859
-0.0206019
-0.0215337
-0.0225903
-0.0237799
-0.0251087
-0.0265806
-0.0281968
-0.0299552
-0.0318502
-0.0338727
-0.0360103
-0.0382475
-0.0405663
-0.0429468
-0.0453679
-0.0478077
-0.0502444
-0.0526567
-0.0159986
-0.0159774
-0.0159626
-0.0159477
-0.0159285
-0.0159037
-0.0158734
-0.0158389
-0.0158026
-0.0157683
-0.0157399
-0.015722
-0.015719
-0.0157356
-0.015776
-0.0158446
-0.0159458
-0.0160839
-0.0162638
-0.0164906
-0.01677
-0.0171083
-0.0175127
-0.017991
-0.0185518
-0.0192041
-0.0199571
-0.0208203
-0.0218026
-0.0229117
-0.0241542
-0.0255344
-0.0270541
-0.0287123
-0.0305047
-0.0324238
-0.0344588
-0.0365958
-0.0388184
-0.0411081
-0.0434448
-0.0458077
-0.0481752
-0.0505264
-0.016135
-0.0161207
-0.0161086
-0.0160927
-0.0160687
-0.0160348
-0.0159906
-0.0159377
-0.0158789
-0.0158182
-0.0157603
-0.0157103
-0.0156733
-0.0156542
-0.0156578
-0.0156887
-0.0157515
-0.0158506
-0.0159907
-0.0161767
-0.016414
-0.0167087
-0.0170672
-0.0174969
-0.0180057
-0.018602
-0.0192946
-0.0200922
-0.0210032
-0.0220354
-0.0231952
-0.0244872
-0.0259138
-0.0274748
-0.0291671
-0.0309845
-0.0329176
-0.0349543
-0.0370796
-0.0392765
-0.0415261
-0.0438084
-0.0461028
-0.0483885
-0.0162675
-0.0162614
-0.0162528
-0.0162361
-0.016207
-0.016163
-0.0161037
-0.0160307
-0.0159474
-0.0158582
-0.0157686
-0.0156843
-0.0156109
-0.0155542
-0.0155192
-0.015511
-0.0155341
-0.0155933
-0.015693
-0.015838
-0.0160335
-0.0162851
-0.0165988
-0.0169814
-0.0174402
-0.0179831
-0.0186181
-0.0193535
-0.0201972
-0.0211566
-0.022238
-0.0234462
-0.024784
-0.0262519
-0.0278476
-0.0295663
-0.0313998
-0.0333375
-0.035366
-0.0374695
-0.0396305
-0.0418301
-0.0440485
-0.0462653
-0.0163979
-0.016402
-0.0163975
-0.0163803
-0.0163455
-0.0162904
-0.0162144
-0.0161194
-0.0160092
-0.0158891
-0.0157653
-0.0156443
-0.0155325
-0.0154361
-0.0153609
-0.015312
-0.0152945
-0.015313
-0.015372
-0.0154761
-0.0156303
-0.0158397
-0.0161099
-0.0164473
-0.0168585
-0.0173507
-0.0179315
-0.0186084
-0.0193891
-0.0202803
-0.0212883
-0.0224179
-0.023672
-0.0250518
-0.0265557
-0.0281798
-0.0299173
-0.0317588
-0.0336923
-0.0357033
-0.0377758
-0.0398919
-0.0420326
-0.0441784
-0.0165289
-0.0165451
-0.0165457
-0.0165278
-0.0164868
-0.0164192
-0.0163246
-0.0162051
-0.0160656
-0.0159119
-0.0157513
-0.0155911
-0.0154386
-0.0153006
-0.0151834
-0.0150927
-0.0150337
-0.015011
-0.0150291
-0.0150927
-0.0152062
-0.0153746
-0.015603
-0.0158973
-0.0162634
-0.0167081
-0.0172383
-0.017861
-0.0185832
-0.0194114
-0.0203514
-0.021408
-0.0225843
-0.0238817
-0.0252995
-0.0268343
-0.0284805
-0.0302298
-0.0320715
-0.0339926
-0.0359781
-0.0380112
-0.0400742
-0.0421481
-0.0166634
-0.016694
-0.0167006
-0.0166821
-0.0166338
-0.0165519
-0.0164362
-0.0162897
-0.0161177
-0.0159273
-0.015727
-0.015525
-0.0153295
-0.015148
-0.0149874
-0.0148538
-0.0147524
-0.0146883
-0.0146658
-0.0146894
-0.0147633
-0.0148921
-0.0150806
-0.015334
-0.015658
-0.0160585
-0.0165419
-0.0171147
-0.0177833
-0.0185538
-0.0194316
-0.0204214
-0.0215262
-0.0227478
-0.0240857
-0.0255374
-0.0270981
-0.0287605
-0.0305151
-0.03235
-0.0342513
-0.0362037
-0.0381902
-0.0401928
-0.0168047
-0.0168527
-0.0168665
-0.016847
-0.0167901
-0.0166917
-0.0165519
-0.0163747
-0.0161668
-0.0159365
-0.0156933
-0.0154466
-0.0152057
-0.0149788
-0.0147733
-0.0145958
-0.0144518
-0.0143462
-0.0142835
-0.0142679
-0.0143034
-0.0143943
-0.014545
-0.0147602
-0.015045
-0.0154048
-0.0158455
-0.0163729
-0.016993
-0.0177112
-0.0185329
-0.0194622
-0.0205023
-0.0216549
-0.0229199
-0.0242954
-0.0257772
-0.0273589
-0.029032
-0.0307857
-0.0326073
-0.0344824
-0.0363952
-0.0383284
-0.0169573
-0.0170264
-0.0170486
-0.0170275
-0.01696
-0.016842
-0.0166744
-0.0164624
-0.0162143
-0.0159401
-0.0156504
-0.0153562
-0.0150674
-0.0147933
-0.0145417
-0.0143196
-0.0141326
-0.0139859
-0.0138837
-0.01383
-0.0138287
-0.0138836
-0.0139988
-0.0141784
-0.0144272
-0.01475
-0.0151521
-0.0156387
-0.0162153
-0.016887
-0.0176585
-0.0185339
-0.0195161
-0.0206069
-0.0218064
-0.023113
-0.0245232
-0.0260312
-0.0276294
-0.029308
-0.0310552
-0.0328578
-0.0347007
-0.0365678
-0.0171267
-0.0172215
-0.0172533
-0.0172296
-0.0171488
-0.0170071
-0.0168069
-0.0165551
-0.0162619
-0.0159392
-0.0155992
-0.0152542
-0.0149151
-0.014592
-0.0142932
-0.014026
-0.0137962
-0.0136088
-0.013468
-0.0133777
-0.0133413
-0.0133624
-0.0134445
-0.0135915
-0.0138075
-0.014097
-0.0144645
-0.014915
-0.0154532
-0.0160839
-0.0168114
-0.0176393
-0.0185706
-0.0196068
-0.0207483
-0.0219937
-0.0233398
-0.0247816
-0.0263122
-0.0279225
-0.0296017
-0.0313375
-0.0331157
-0.034921
-0.01732
-0.0174464
-0.0174892
-0.0174611
-0.0173629
-0.0171922
-0.0169532
-0.0166554
-0.0163113
-0.0159349
-0.0155403
-0.015141
-0.0147492
-0.0143754
-0.0140286
-0.013716
-0.0134437
-0.0132165
-0.0130384
-0.0129131
-0.0128436
-0.0128331
-0.0128849
-0.0130022
-0.0131888
-0.0134486
-0.0137857
-0.0142045
-0.0147093
-0.0153044
-0.0159937
-0.0167807
-0.0176678
-0.0186567
-0.0197477
-0.0209395
-0.0222295
-0.0236129
-0.0250835
-0.0266329
-0.0282512
-0.0299266
-0.0316461
-0.033395
-0.0175467
-0.0177123
-0.0177672
-0.0177317
-0.0176106
-0.0174036
-0.0171179
-0.0167664
-0.0163644
-0.0159283
-0.0154743
-0.0150172
-0.0145701
-0.0141442
-0.0137486
-0.0133908
-0.0130766
-0.0128108
-0.012597
-0.0124385
-0.0123382
-0.0122986
-0.0123227
-0.0124134
-0.0125739
-0.0128076
-0.0131183
-0.0135098
-0.013986
-0.0145508
-0.0152077
-0.0159598
-0.0168094
-0.0177579
-0.0188057
-0.0199517
-0.0211933
-0.0225262
-0.0239447
-0.0254409
-0.0270056
-0.0286277
-0.030295
-0.0319936
-0.0178198
-0.0180344
-0.0181023
-0.0180545
-0.0179023
-0.0176491
-0.0173066
-0.0168917
-0.0164235
-0.0159209
-0.0154022
-0.0148834
-0.0143786
-0.0138992
-0.0134545
-0.0130519
-0.0126969
-0.0123939
-0.0121462
-0.0119567
-0.0118279
-0.0117619
-0.0117612
-0.0118282
-0.0119659
-0.0121771
-0.0124652
-0.0128336
-0.0132858
-0.0138252
-0.014455
-0.0151781
-0.0159964
-0.0169113
-0.017923
-0.0190305
-0.0202313
-0.0215216
-0.0228957
-0.0243465
-0.0258651
-0.0274414
-0.0290634
-0.0307181
-0.0181571
-0.0184338
-0.0185146
-0.0184464
-0.0182512
-0.0179384
-0.0175257
-0.0170356
-0.0164911
-0.0159143
-0.015325
-0.0147407
-0.0141757
-0.0136418
-0.013148
-0.0127012
-0.0123067
-0.0119683
-0.0116889
-0.0114707
-0.0113159
-0.0112262
-0.0112035
-0.01125
-0.0113679
-0.0115601
-0.0118292
-0.0121784
-0.0126108
-0.0131295
-0.0137374
-0.0144368
-0.0152297
-0.0161173
-0.0170995
-0.0181755
-0.0193429
-0.0205979
-0.0219353
-0.0233483
-0.0248285
-0.0263662
-0.0279501
-0.0295676
-0.0185848
-0.0189408
-0.019032
-0.0189301
-0.0186742
-0.0182833
-0.0177832
-0.0172031
-0.0165705
-0.0159104
-0.0152442
-0.0145902
-0.0139629
-0.0133736
-0.0128309
-0.0123411
-0.0119087
-0.011537
-0.0112282
-0.010984
-0.0108058
-0.0106951
-0.0106533
-0.0106821
-0.0107835
-0.0109598
-0.0112134
-0.0115471
-0.0119637
-0.0124659
-0.0130563
-0.0137371
-0.0145101
-0.015376
-0.0163351
-0.0173861
-0.0185268
-0.0197537
-0.0210616
-0.0224441
-0.0238931
-0.0253993
-0.026952
-0.0285391
-0.0191417
-0.0195991
-0.0196936
-0.019536
-0.0191932
-0.0186983
-0.0180884
-0.0173999
-0.0166652
-0.0159115
-0.0151617
-0.0144339
-0.0137421
-0.0130969
-0.0125059
-0.0119746
-0.0115063
-0.0111036
-0.0107679
-0.0105002
-0.0103015
-0.0101726
-0.0101144
-0.0101284
-0.0102162
-0.0103796
-0.0106209
-0.0109424
-0.0113467
-0.0118364
-0.0124136
-0.0130804
-0.0138382
-0.0146878
-0.0156292
-0.0166612
-0.0177816
-0.0189868
-0.0202719
-0.0216306
-0.0230552
-0.0245367
-0.0260648
-0.0276277
-0.0198884
-0.020475
-0.0205552
-0.0203048
-0.0198355
-0.0192011
-0.0184519
-0.0176324
-0.0167789
-0.0159204
-0.0150795
-0.0142737
-0.0135155
-0.0128143
-0.012176
-0.0116048
-0.011103
-0.0106718
-0.0103119
-0.0100236
-0.00980702
-0.00966262
-0.00959094
-0.00959289
-0.00966975
-0.00982314
-0.010055
-0.0103675
-0.0107628
-0.0112433
-0.0118111
-0.0124679
-0.0132149
-0.0140529
-0.0149817
-0.016
-0.0171055
-0.0182948
-0.019563
-0.0209041
-0.0223104
-0.0237732
-0.0252824
-0.0268269
-0.0209244
-0.0216703
-0.0216968
-0.0212906
-0.0206349
-0.0198118
-0.0188854
-0.0179071
-0.0169156
-0.0159395
-0.0149998
-0.0141117
-0.0132855
-0.0125283
-0.011844
-0.0112348
-0.0107018
-0.0102448
-0.00986351
-0.00955732
-0.00932578
-0.00916868
-0.00908615
-0.00907874
-0.0091474
-0.00929349
-0.00951871
-0.00982498
-0.0102144
-0.0106889
-0.0112506
-0.0119009
-0.0126411
-0.0134715
-0.0143919
-0.0154011
-0.0164965
-0.0176749
-0.0189313
-0.0202597
-0.0216528
-0.023102
-0.0245974
-0.026128
-0.0224224
-0.0233469
-0.0232334
-0.0225631
-0.0216312
-0.0205516
-0.0193994
-0.0182289
-0.0170771
-0.0159693
-0.0149224
-0.0139477
-0.013052
-0.0122389
-0.0115099
-0.010865
-0.0103032
-0.00982324
-0.00942339
-0.00910222
-0.00885855
-0.00869159
-0.00860101
-0.008587
-0.00865022
-0.00879177
-0.00901312
-0.00931601
-0.00970232
-0.0101739
-0.0107326
-0.0113797
-0.0121163
-0.0129427
-0.0138585
-0.0148622
-0.0159515
-0.0171228
-0.0183714
-0.0196913
-0.0210752
-0.0225147
-0.024
-0.0255204
-0.0247014
-0.0257684
-0.0253257
-0.0242055
-0.0228635
-0.021436
-0.0199967
-0.0185939
-0.0172564
-0.0160013
-0.0148383
-0.0137726
-0.0128056
-0.0119371
-0.011165
-0.0104866
-0.009899
-0.00939904
-0.00898387
-0.00865103
-0.00839854
-0.00822502
-0.00812967
-0.00811231
-0.00817329
-0.00831348
-0.00853413
-0.00883679
-0.00922315
-0.00969494
-0.0102537
-0.0109008
-0.011637
-0.0124625
-0.0133767
-0.0143782
-0.0154645
-0.016632
-0.0178758
-0.0191902
-0.0205677
-0.0220001
-0.023478
-0.0249904
-0.0283961
-0.0293727
-0.0281766
-0.0262915
-0.0243465
-0.0224507
-0.0206483
-0.0189656
-0.0174135
-0.0159945
-0.0147069
-0.0135467
-0.0125085
-0.0115865
-0.0107747
-0.0100671
-0.00945835
-0.00894341
-0.008518
-0.00817858
-0.00792233
-0.00774723
-0.00765199
-0.00763604
-0.00769942
-0.00784274
-0.00806703
-0.00837364
-0.00876409
-0.00923994
-0.00980259
-0.0104532
-0.0111923
-0.0120202
-0.012936
-0.0139382
-0.0150242
-0.0161904
-0.0174319
-0.0187429
-0.0201162
-0.0215434
-0.0230153
-0.0245212
-0.0349272
-0.0348832
-0.0319709
-0.0288163
-0.0260064
-0.023489
-0.0212311
-0.0192151
-0.0174207
-0.0158267
-0.0144136
-0.0131642
-0.0120638
-0.0110992
-0.0102593
-0.00953435
-0.00891604
-0.00839734
-0.00797243
-0.00763659
-0.0073862
-0.00721858
-0.00713198
-0.00712544
-0.00719874
-0.00735223
-0.00758675
-0.00790347
-0.00830373
-0.00878895
-0.00936037
-0.010019
-0.0107653
-0.0115993
-0.0125201
-0.0135261
-0.0146147
-0.0157822
-0.0170237
-0.0183334
-0.0197041
-0.0211276
-0.022595
-0.0240954
-0.0477882
-0.0433419
-0.0367799
-0.0316034
-0.0275476
-0.0242078
-0.0214002
-0.0190194
-0.0169879
-0.0152438
-0.0137393
-0.0124379
-0.0113117
-0.0103392
-0.00950311
-0.00878965
-0.00818776
-0.00768855
-0.00728489
-0.00697122
-0.00674331
-0.00659808
-0.00653351
-0.00654845
-0.00664252
-0.00681598
-0.00706955
-0.00740433
-0.00782158
-0.0083226
-0.00890858
-0.00958041
-0.0103385
-0.0111828
-0.0121124
-0.0131257
-0.0142198
-0.0153912
-0.0166352
-0.0179458
-0.019316
-0.0207378
-0.0222022
-0.0236989
-0.0749126
-0.0545084
-0.0409806
-0.0327184
-0.0270777
-0.0229436
-0.0197849
-0.0172907
-0.0152599
-0.0135692
-0.0121427
-0.0109302
-0.00989518
-0.0090113
-0.00825901
-0.00762364
-0.00709392
-0.00666107
-0.00631833
-0.00606054
-0.00588392
-0.00578581
-0.00576458
-0.00581941
-0.00595023
-0.00615752
-0.00644224
-0.00680562
-0.00724905
-0.00777396
-0.0083816
-0.00907293
-0.00984846
-0.0107081
-0.0116511
-0.0126757
-0.0137795
-0.0149588
-0.016209
-0.0175243
-0.018898
-0.020322
-0.0217877
-0.0232849
-0.162031
-0.0605185
-0.0297886
-0.0220729
-0.0179189
-0.0147997
-0.0127013
-0.0112738
-0.0101644
-0.00921567
-0.0083829
-0.00765074
-0.00700823
-0.00644737
-0.00596322
-0.0055526
-0.0052131
-0.00494275
-0.00474
-0.00460374
-0.00453336
-0.0045287
-0.00459011
-0.00471837
-0.00491465
-0.0051805
-0.00551768
-0.00592815
-0.00641387
-0.00697674
-0.00761844
-0.0083403
-0.00914315
-0.0100272
-0.010992
-0.0120361
-0.0131572
-0.014352
-0.0156161
-0.016944
-0.0183291
-0.0197638
-0.0212394
-0.0227462
)
;

boundaryField
{
    movingWall
    {
        type            zeroGradient;
    }
    fixedWalls
    {
        type            zeroGradient;
    }
    frontAndBack
    {
        type            empty;
    }
    procBoundary2to3
    {
        type            processor;
        value           nonuniform List<scalar> 
45
(
-0.0233981
-0.0246955
-0.0261495
-0.0277668
-0.029551
-0.0315015
-0.0336132
-0.0358764
-0.038277
-0.0407968
-0.0434144
-0.0461064
-0.0488478
-0.0516136
-0.0543794
-0.0571222
-0.0598207
-0.0624558
-0.0152011
-0.0151621
-0.0151426
-0.0151354
-0.0151379
-0.0151509
-0.0151756
-0.0152135
-0.0152663
-0.0153362
-0.0154257
-0.0155373
-0.0156739
-0.0158383
-0.0160339
-0.0162643
-0.0165337
-0.016847
-0.0172097
-0.0176287
-0.0181115
-0.0186669
-0.0193048
-0.0200362
-0.0208727
-0.0218265
-0.0218265
)
;
    }
    procBoundary2to5
    {
        type            processor;
        value           nonuniform List<scalar> 
29
(
-0.0632025
-0.0612818
-0.0592659
-0.0571735
-0.0550246
-0.052841
-0.0506454
-0.0484609
-0.0463102
-0.0442146
-0.0421938
-0.0402652
-0.0384429
-0.0367382
-0.0351589
-0.0337097
-0.0323925
-0.0312065
-0.0301487
-0.029214
-0.0283952
-0.0276829
-0.027065
-0.0265267
-0.0260503
-0.0256181
-0.0252167
-0.0248025
-0.0242733
)
;
    }
}


// ************************************************************************* //
