/*--------------------------------*- C++ -*----------------------------------*\
  =========                 |
  \\      /  F ield         | OpenFOAM: The Open Source CFD Toolbox
   \\    /   O peration     | Website:  https://openfoam.org
    \\  /    A nd           | Version:  9
     \\/     M anipulation  |
\*---------------------------------------------------------------------------*/
FoamFile
{
    format      ascii;
    class       surfaceScalarField;
    location    "1";
    object      phi;
}
// * * * * * * * * * * * * * * * * * * * * * * * * * * * * * * * * * * * * * //

dimensions      [0 3 -1 0 0 0 0];

internalField   nonuniform List<scalar> 
2427
(
5.5646e-07
2.06328e-06
6.14863e-07
2.12198e-06
6.76032e-07
2.17766e-06
7.39237e-07
2.22855e-06
8.03655e-07
2.27289e-06
8.68399e-07
2.30906e-06
9.32561e-07
2.33561e-06
9.95258e-07
2.35138e-06
1.05568e-06
2.35556e-06
1.1131e-06
2.34766e-06
1.16696e-06
2.3276e-06
1.21683e-06
2.29561e-06
1.26244e-06
2.25225e-06
1.3037e-06
2.19829e-06
1.34062e-06
2.1347e-06
1.37337e-06
2.06252e-06
1.40218e-06
1.98284e-06
1.89672e-06
1.94256e-09
1.06499e-07
6.79215e-09
3.02642e-07
1.37996e-08
4.81416e-07
2.23702e-08
6.42528e-07
3.20319e-08
7.85998e-07
4.2424e-08
9.12206e-07
5.32922e-08
1.02192e-06
6.44853e-08
1.11626e-06
7.59489e-08
1.19665e-06
8.77176e-08
1.26474e-06
9.99044e-08
1.32234e-06
1.1269e-07
1.37132e-06
1.26311e-07
1.41354e-06
1.4105e-07
1.45082e-06
1.57229e-07
1.48486e-06
1.75196e-07
1.51724e-06
1.95323e-07
1.54935e-06
2.17992e-07
1.58242e-06
2.43588e-07
1.61746e-06
2.72485e-07
1.65525e-06
3.05029e-07
1.69631e-06
3.41516e-07
1.74092e-06
3.82178e-07
1.78904e-06
4.2715e-07
1.84036e-06
4.76456e-07
1.89424e-06
5.29977e-07
1.94978e-06
5.87476e-07
2.00578e-06
6.48539e-07
2.06091e-06
7.12613e-07
2.11358e-06
7.79006e-07
2.16215e-06
8.46923e-07
2.20498e-06
9.15495e-07
2.24049e-06
9.83816e-07
2.26729e-06
1.05099e-06
2.28421e-06
1.11617e-06
2.29037e-06
1.17861e-06
2.28523e-06
1.23766e-06
2.26855e-06
1.29283e-06
2.24044e-06
1.34379e-06
2.2013e-06
1.39034e-06
2.15175e-06
1.43243e-06
2.0926e-06
1.47015e-06
2.0248e-06
1.50367e-06
1.94932e-06
1.86715e-06
1.79742e-09
1.04701e-07
6.31683e-09
2.98123e-07
1.29147e-08
4.74818e-07
2.10907e-08
6.34352e-07
3.04489e-08
7.76639e-07
4.06852e-08
9.0197e-07
5.1583e-08
1.01102e-06
6.30112e-08
1.10483e-06
7.49215e-08
1.18474e-06
8.73436e-08
1.25232e-06
1.00378e-07
1.30931e-06
1.14187e-07
1.35751e-06
1.28987e-07
1.39874e-06
1.4504e-07
1.43477e-06
1.62643e-07
1.46726e-06
1.82125e-07
1.49775e-06
2.03838e-07
1.52764e-06
2.28148e-07
1.55811e-06
2.55423e-07
1.59019e-06
2.86028e-07
1.62464e-06
3.20301e-07
1.66204e-06
3.58543e-07
1.70268e-06
4.00989e-07
1.7466e-06
4.47796e-07
1.79355e-06
4.99012e-07
1.84303e-06
5.54564e-07
1.89423e-06
6.14207e-07
1.94614e-06
6.77598e-07
1.99752e-06
7.44226e-07
2.04696e-06
8.13445e-07
2.09293e-06
8.84498e-07
2.13392e-06
9.56542e-07
2.16844e-06
1.02869e-06
2.19514e-06
1.10004e-06
2.21286e-06
1.16973e-06
2.22068e-06
1.23696e-06
2.21799e-06
1.30106e-06
2.20445e-06
1.36146e-06
2.18004e-06
1.41774e-06
2.14502e-06
1.46963e-06
2.09985e-06
1.51701e-06
2.04522e-06
1.55987e-06
1.98194e-06
1.59833e-06
1.91087e-06
1.83293e-06
1.6099e-09
1.03091e-07
5.68869e-09
2.94044e-07
1.1716e-08
4.6879e-07
1.93023e-08
6.26766e-07
2.81431e-08
7.67799e-07
3.80036e-08
8.92109e-07
4.87148e-08
1.00031e-06
6.01731e-08
1.09337e-06
7.23413e-08
1.17257e-06
8.52469e-08
1.23942e-06
9.89782e-08
1.29558e-06
1.13679e-07
1.34281e-06
1.29543e-07
1.38288e-06
1.46806e-07
1.41751e-06
1.65741e-07
1.44832e-06
1.86651e-07
1.47684e-06
2.09863e-07
1.50443e-06
2.35721e-07
1.53226e-06
2.64576e-07
1.56133e-06
2.96776e-07
1.59244e-06
3.3265e-07
1.62617e-06
3.72494e-07
1.66284e-06
4.16548e-07
1.70254e-06
4.64978e-07
1.74512e-06
5.17853e-07
1.79015e-06
5.7512e-07
1.83696e-06
6.36602e-07
1.88466e-06
7.01986e-07
1.93214e-06
7.7081e-07
1.97813e-06
8.42478e-07
2.02127e-06
9.16277e-07
2.06012e-06
9.91403e-07
2.09332e-06
1.06699e-06
2.11955e-06
1.14215e-06
2.1377e-06
1.21602e-06
2.14682e-06
1.28778e-06
2.14623e-06
1.35669e-06
2.13554e-06
1.42214e-06
2.11459e-06
1.48365e-06
2.08351e-06
1.54086e-06
2.04264e-06
1.59356e-06
1.99252e-06
1.64167e-06
1.93383e-06
1.6852e-06
1.86733e-06
1.79384e-06
1.37531e-09
1.01716e-07
4.89104e-09
2.90528e-07
1.01701e-08
4.63511e-07
1.69531e-08
6.19983e-07
2.50439e-08
7.59708e-07
3.4291e-08
8.82862e-07
4.45837e-08
9.90017e-07
5.58541e-08
1.0821e-06
6.80809e-08
1.16034e-06
8.12921e-08
1.2262e-06
9.55644e-08
1.28131e-06
1.11022e-07
1.32735e-06
1.27833e-07
1.36607e-06
1.46205e-07
1.39913e-06
1.66381e-07
1.42815e-06
1.88634e-07
1.45459e-06
2.13264e-07
1.4798e-06
2.40587e-07
1.50493e-06
2.70931e-07
1.53099e-06
3.04624e-07
1.55875e-06
3.4198e-07
1.58881e-06
3.83287e-07
1.62153e-06
4.28785e-07
1.65705e-06
4.78647e-07
1.69526e-06
5.32959e-07
1.73584e-06
5.91699e-07
1.77822e-06
6.54731e-07
1.82163e-06
7.21783e-07
1.86509e-06
7.92446e-07
1.90747e-06
8.66177e-07
1.94753e-06
9.42316e-07
1.98398e-06
1.0201e-06
2.01553e-06
1.09871e-06
2.04094e-06
1.17728e-06
2.05913e-06
1.25493e-06
2.06916e-06
1.33085e-06
2.07032e-06
1.40426e-06
2.06212e-06
1.47451e-06
2.04434e-06
1.54104e-06
2.01698e-06
1.60343e-06
1.98025e-06
1.66139e-06
1.93456e-06
1.71475e-06
1.88047e-06
1.76344e-06
1.81864e-06
1.74977e-06
1.08837e-09
1.00628e-07
3.90489e-09
2.87712e-07
8.23955e-09
4.59177e-07
1.39855e-08
6.14237e-07
2.10743e-08
7.52619e-07
2.94534e-08
8.74483e-07
3.9082e-08
9.80388e-07
4.99361e-08
1.07125e-06
6.20153e-08
1.14826e-06
7.53503e-08
1.21287e-06
9.00067e-08
1.26665e-06
1.06087e-07
1.31127e-06
1.23732e-07
1.34842e-06
1.43117e-07
1.37975e-06
1.64451e-07
1.40681e-06
1.87974e-07
1.43107e-06
2.13951e-07
1.45382e-06
2.42668e-07
1.47622e-06
2.74425e-07
1.49923e-06
3.09525e-07
1.52365e-06
3.48264e-07
1.55007e-06
3.90917e-07
1.57888e-06
4.37718e-07
1.61024e-06
4.88845e-07
1.64413e-06
5.44398e-07
1.68029e-06
6.04382e-07
1.71824e-06
6.68693e-07
1.75731e-06
7.37105e-07
1.79667e-06
8.09261e-07
1.83531e-06
8.84675e-07
1.87212e-06
9.62742e-07
1.90592e-06
1.04276e-06
1.93551e-06
1.12393e-06
1.95977e-06
1.20544e-06
1.97762e-06
1.28644e-06
1.98817e-06
1.36608e-06
1.99067e-06
1.4436e-06
1.9846e-06
1.51829e-06
1.96965e-06
1.58955e-06
1.94572e-06
1.65689e-06
1.91291e-06
1.71994e-06
1.87152e-06
1.77845e-06
1.82197e-06
1.83228e-06
1.76481e-06
1.70067e-06
7.41845e-10
9.9886e-08
2.70538e-09
2.85748e-07
5.87624e-09
4.56006e-07
1.03273e-08
6.09786e-07
1.614e-08
7.46806e-07
2.3378e-08
8.67245e-07
3.20833e-08
9.71683e-07
4.22836e-08
1.06105e-06
5.40043e-08
1.13654e-06
6.72805e-08
1.19959e-06
8.21664e-08
1.25176e-06
9.87415e-08
1.2947e-06
1.17115e-07
1.33005e-06
1.37425e-07
1.35944e-06
1.59845e-07
1.38439e-06
1.84575e-07
1.40634e-06
2.11842e-07
1.42655e-06
2.41897e-07
1.44616e-06
2.75007e-07
1.46612e-06
3.11447e-07
1.48721e-06
3.5149e-07
1.51003e-06
3.95392e-07
1.53497e-06
4.4338e-07
1.56226e-06
4.95631e-07
1.59188e-06
5.52254e-07
1.62366e-06
6.13275e-07
1.65721e-06
6.78623e-07
1.69197e-06
7.48111e-07
1.72718e-06
8.21435e-07
1.76199e-06
8.98164e-07
1.79539e-06
9.77753e-07
1.82633e-06
1.05955e-06
1.85371e-06
1.14283e-06
1.87649e-06
1.2268e-06
1.89365e-06
1.31064e-06
1.90433e-06
1.39353e-06
1.90778e-06
1.47469e-06
1.90344e-06
1.55339e-06
1.89095e-06
1.62899e-06
1.87012e-06
1.70094e-06
1.84096e-06
1.76881e-06
1.80365e-06
1.83226e-06
1.75851e-06
1.89108e-06
1.70599e-06
1.64661e-06
3.28222e-10
9.95577e-08
1.25927e-09
2.84817e-07
3.01831e-09
4.54247e-07
5.8874e-09
6.06917e-07
1.01238e-08
7.4257e-07
1.59278e-08
8.61441e-07
2.34365e-08
9.64174e-07
3.27383e-08
1.05174e-06
4.38876e-08
1.12539e-06
5.69252e-08
1.18656e-06
7.18922e-08
1.2368e-06
8.8842e-08
1.27775e-06
1.07848e-07
1.31104e-06
1.29011e-07
1.33828e-06
1.52458e-07
1.36095e-06
1.78346e-07
1.38045e-06
2.06862e-07
1.39804e-06
2.38216e-07
1.41481e-06
2.72638e-07
1.4317e-06
3.10371e-07
1.44948e-06
3.51659e-07
1.46874e-06
3.96738e-07
1.48989e-06
4.45821e-07
1.51317e-06
4.9908e-07
1.53863e-06
5.5663e-07
1.56612e-06
6.18513e-07
1.59533e-06
6.84683e-07
1.6258e-06
7.54994e-07
1.65687e-06
8.29187e-07
1.6878e-06
9.06887e-07
1.71769e-06
9.8761e-07
1.7456e-06
1.07077e-06
1.77056e-06
1.15568e-06
1.79157e-06
1.24161e-06
1.80772e-06
1.32778e-06
1.81816e-06
1.4134e-06
1.82217e-06
1.49767e-06
1.81917e-06
1.57988e-06
1.80874e-06
1.65934e-06
1.79066e-06
1.73548e-06
1.76483e-06
1.80778e-06
1.73134e-06
1.87586e-06
1.69043e-06
1.93943e-06
1.64243e-06
1.58776e-06
-1.74502e-10
9.97322e-08
-4.771e-10
2.8512e-07
-4.16361e-10
4.54186e-07
5.47447e-10
6.05953e-07
2.8799e-09
7.40238e-07
6.93506e-09
8.57386e-07
1.29595e-08
9.5815e-07
2.11139e-08
1.04359e-06
3.14807e-08
1.11503e-06
4.41069e-08
1.17393e-06
5.9018e-08
1.22189e-06
7.62369e-08
1.26053e-06
9.57975e-08
1.29148e-06
1.17754e-07
1.31632e-06
1.42186e-07
1.33651e-06
1.69204e-07
1.35343e-06
1.98946e-07
1.36829e-06
2.31579e-07
1.38217e-06
2.67291e-07
1.39599e-06
3.06289e-07
1.41048e-06
3.48787e-07
1.42624e-06
3.94994e-07
1.44369e-06
4.45107e-07
1.46306e-06
4.99286e-07
1.48445e-06
5.5765e-07
1.50775e-06
6.2025e-07
1.53273e-06
6.87064e-07
1.55898e-06
7.57978e-07
1.58596e-06
8.32775e-07
1.613e-06
9.11135e-07
1.63933e-06
9.92631e-07
1.66411e-06
1.07673e-06
1.68645e-06
1.16283e-06
1.70548e-06
1.25023e-06
1.72032e-06
1.33821e-06
1.73019e-06
1.42599e-06
1.73438e-06
1.51283e-06
1.73233e-06
1.59799e-06
1.72359e-06
1.68078e-06
1.70786e-06
1.76058e-06
1.68502e-06
1.83686e-06
1.65507e-06
1.90916e-06
1.61814e-06
1.97711e-06
1.57447e-06
1.52443e-06
-7.68934e-10
1.00501e-07
-2.55252e-09
2.86903e-07
-4.51989e-09
4.56153e-07
-5.83024e-09
6.07263e-07
-5.77245e-09
7.4018e-07
-3.80529e-09
8.55419e-07
4.44253e-10
9.539e-07
7.19167e-09
1.03684e-06
1.65695e-08
1.10565e-06
2.86252e-08
1.16187e-06
4.33605e-08
1.20715e-06
6.07629e-08
1.24313e-06
8.082e-08
1.27143e-06
1.03534e-07
1.2936e-06
1.28933e-07
1.31112e-06
1.57071e-07
1.32529e-06
1.88038e-07
1.33733e-06
2.21949e-07
1.34826e-06
2.58951e-07
1.35899e-06
2.99209e-07
1.37022e-06
3.42903e-07
1.38255e-06
3.90214e-07
1.39638e-06
4.41316e-07
1.41196e-06
4.96358e-07
1.4294e-06
5.55453e-07
1.44866e-06
6.18661e-07
1.46952e-06
6.85975e-07
1.49167e-06
7.57309e-07
1.51463e-06
8.32487e-07
1.53782e-06
9.11234e-07
1.56058e-06
9.93179e-07
1.58216e-06
1.07785e-06
1.60178e-06
1.1647e-06
1.61863e-06
1.2531e-06
1.63192e-06
1.34237e-06
1.64092e-06
1.43178e-06
1.64497e-06
1.5206e-06
1.6435e-06
1.60813e-06
1.63606e-06
1.69366e-06
1.62233e-06
1.77657e-06
1.60212e-06
1.85627e-06
1.57536e-06
1.93228e-06
1.54213e-06
2.00417e-06
1.50258e-06
1.45699e-06
-1.4878e-09
1.01989e-07
-5.04813e-09
2.90464e-07
-9.43601e-09
4.60541e-07
-1.34425e-08
6.1127e-07
-1.60651e-08
7.42802e-07
-1.6554e-08
8.55908e-07
-1.44017e-08
9.51748e-07
-9.29662e-09
1.03174e-06
-1.09168e-09
1.09744e-06
1.02523e-08
1.15053e-06
2.47158e-08
1.19269e-06
4.22443e-08
1.2256e-06
6.2768e-08
1.2509e-06
8.62319e-08
1.27014e-06
1.12603e-07
1.28474e-06
1.41879e-07
1.29602e-06
1.74091e-07
1.30512e-06
2.09304e-07
1.31305e-06
2.47617e-07
1.32067e-06
2.89152e-07
1.32869e-06
3.34051e-07
1.33765e-06
3.82465e-07
1.34796e-06
4.34543e-07
1.35988e-06
4.90418e-07
1.37353e-06
5.50194e-07
1.38888e-06
6.13933e-07
1.40578e-06
6.81641e-07
1.42396e-06
7.53255e-07
1.44301e-06
8.2863e-07
1.46245e-06
9.07536e-07
1.48168e-06
9.89652e-07
1.50005e-06
1.07457e-06
1.51686e-06
1.16179e-06
1.53141e-06
1.25074e-06
1.54296e-06
1.34081e-06
1.55086e-06
1.43131e-06
1.55447e-06
1.52156e-06
1.55325e-06
1.61086e-06
1.54676e-06
1.69853e-06
1.53466e-06
1.78393e-06
1.51672e-06
1.86647e-06
1.49282e-06
1.94562e-06
1.46298e-06
2.02092e-06
1.42729e-06
1.38594e-06
-2.3593e-09
1.04348e-07
-8.05807e-09
2.96163e-07
-1.53338e-08
4.67817e-07
-2.25261e-08
6.18462e-07
-2.82859e-08
7.48562e-07
-3.16218e-08
8.59244e-07
-3.18745e-08
9.52001e-07
-2.86598e-08
1.02852e-06
-2.18034e-08
1.09059e-06
-1.12737e-08
1.14e-06
2.86514e-09
1.17855e-06
2.04927e-08
1.20797e-06
4.1488e-08
1.22991e-06
6.57267e-08
1.2459e-06
9.31085e-08
1.25736e-06
1.23567e-07
1.26556e-06
1.57072e-07
1.27161e-06
1.93636e-07
1.27649e-06
2.33304e-07
1.281e-06
2.76155e-07
1.28584e-06
3.22292e-07
1.29151e-06
3.71831e-07
1.29842e-06
4.24896e-07
1.30682e-06
4.816e-07
1.31683e-06
5.42036e-07
1.32844e-06
6.06265e-07
1.34155e-06
6.74299e-07
1.35593e-06
7.46091e-07
1.37122e-06
8.21527e-07
1.38701e-06
9.00412e-07
1.40279e-06
9.82473e-07
1.41799e-06
1.06735e-06
1.43199e-06
1.15461e-06
1.44415e-06
1.24373e-06
1.45384e-06
1.33415e-06
1.46044e-06
1.42526e-06
1.46337e-06
1.51639e-06
1.46212e-06
1.60688e-06
1.45626e-06
1.69609e-06
1.44545e-06
1.78338e-06
1.42943e-06
1.86814e-06
1.40806e-06
1.94982e-06
1.3813e-06
2.02793e-06
1.34918e-06
1.31183e-06
-3.42471e-09
1.07773e-07
-1.17114e-08
3.04449e-07
-2.24401e-08
4.78546e-07
-3.33907e-08
6.29413e-07
-4.27999e-08
7.57971e-07
-4.94013e-08
8.65845e-07
-5.23761e-08
9.54975e-07
-5.1268e-08
1.02741e-06
-4.58915e-08
1.08521e-06
-3.62475e-08
1.13036e-06
-2.24557e-08
1.16476e-06
-4.69545e-09
1.19021e-06
1.68229e-08
1.20839e-06
4.19025e-08
1.22082e-06
7.03698e-08
1.2289e-06
1.02088e-07
1.23384e-06
1.36965e-07
1.23673e-06
1.74953e-07
1.2385e-06
2.16045e-07
1.23991e-06
2.60274e-07
1.24161e-06
3.07702e-07
1.24409e-06
3.58412e-07
1.24771e-06
4.12498e-07
1.25273e-06
4.70053e-07
1.25927e-06
5.31157e-07
1.26734e-06
5.95865e-07
1.27685e-06
6.64192e-07
1.2876e-06
7.36104e-07
1.29931e-06
8.11509e-07
1.31161e-06
8.90245e-07
1.32406e-06
9.72077e-07
1.33616e-06
1.0567e-06
1.34737e-06
1.14371e-06
1.35713e-06
1.23268e-06
1.36487e-06
1.32307e-06
1.37004e-06
1.41433e-06
1.37211e-06
1.50585e-06
1.3706e-06
1.59701e-06
1.3651e-06
1.68719e-06
1.35528e-06
1.77575e-06
1.34087e-06
1.86211e-06
1.3217e-06
1.94572e-06
1.2977e-06
2.02604e-06
1.26885e-06
1.23524e-06
-4.7412e-09
1.12514e-07
-1.6183e-08
3.15891e-07
-3.10555e-08
4.93418e-07
-4.64378e-08
6.44795e-07
-6.00705e-08
7.71604e-07
-7.03781e-08
8.76153e-07
-7.63799e-08
9.60977e-07
-7.75616e-08
1.0286e-06
-7.37488e-08
1.0814e-06
-6.49965e-08
1.1216e-06
-5.15008e-08
1.15126e-06
-3.35321e-08
1.17224e-06
-1.13857e-08
1.18624e-06
1.46503e-08
1.19479e-06
4.43206e-08
1.19923e-06
7.74147e-08
1.20075e-06
1.13772e-07
1.20038e-06
1.53284e-07
1.19899e-06
1.95893e-07
1.1973e-06
2.41584e-07
1.19592e-06
2.90377e-07
1.19529e-06
3.42323e-07
1.19577e-06
3.97487e-07
1.19757e-06
4.55939e-07
1.20082e-06
5.17745e-07
1.20553e-06
5.82951e-07
1.21164e-06
6.51572e-07
1.21898e-06
7.23584e-07
1.2273e-06
7.98912e-07
1.23628e-06
8.77419e-07
1.24555e-06
9.58906e-07
1.25467e-06
1.0431e-06
1.26317e-06
1.12967e-06
1.27056e-06
1.21822e-06
1.27633e-06
1.30827e-06
1.27999e-06
1.39931e-06
1.28106e-06
1.4908e-06
1.27911e-06
1.58214e-06
1.27376e-06
1.67276e-06
1.26466e-06
1.76205e-06
1.25158e-06
1.84943e-06
1.23432e-06
1.93435e-06
1.21278e-06
2.01628e-06
1.18692e-06
1.15677e-06
-6.38894e-09
1.18903e-07
-2.17118e-08
3.31214e-07
-4.15816e-08
5.13288e-07
-6.21904e-08
6.65404e-07
-8.06863e-08
7.901e-07
-9.51543e-08
8.9062e-07
-1.04459e-07
9.70282e-07
-1.08058e-07
1.03219e-06
-1.0582e-07
1.07916e-06
-9.7889e-08
1.11367e-06
-8.45658e-08
1.13794e-06
-6.62315e-08
1.15391e-06
-4.32892e-08
1.1633e-06
-1.61251e-08
1.16762e-06
1.49151e-08
1.16819e-06
4.95406e-08
1.16612e-06
8.75216e-08
1.1624e-06
1.28689e-07
1.15782e-06
1.72932e-07
1.15306e-06
2.20189e-07
1.14866e-06
2.70442e-07
1.14504e-06
3.23709e-07
1.1425e-06
3.80025e-07
1.14125e-06
4.39442e-07
1.1414e-06
5.02006e-07
1.14297e-06
5.67756e-07
1.14589e-06
6.36705e-07
1.15003e-06
7.08834e-07
1.15517e-06
7.84079e-07
1.16103e-06
8.62327e-07
1.1673e-06
9.43406e-07
1.17359e-06
1.02708e-06
1.17949e-06
1.11307e-06
1.18458e-06
1.20099e-06
1.1884e-06
1.29046e-06
1.19053e-06
1.38099e-06
1.19053e-06
1.47209e-06
1.18801e-06
1.56323e-06
1.18262e-06
1.65383e-06
1.17406e-06
1.74335e-06
1.16206e-06
1.83123e-06
1.14645e-06
1.91691e-06
1.12709e-06
1.99989e-06
1.10394e-06
1.07699e-06
-8.48249e-09
1.27386e-07
-2.86298e-08
3.51361e-07
-5.456e-08
5.39218e-07
-8.13344e-08
6.92178e-07
-1.05398e-07
8.14163e-07
-1.24474e-07
9.09697e-07
-1.37303e-07
9.83111e-07
-1.43359e-07
1.03825e-06
-1.42608e-07
1.07841e-06
-1.35324e-07
1.10639e-06
-1.21951e-07
1.12456e-06
-1.03006e-07
1.13496e-06
-7.90206e-08
1.13931e-06
-5.04911e-08
1.13909e-06
-1.786e-08
1.13555e-06
1.84986e-08
1.12976e-06
5.8284e-08
1.12261e-06
1.01267e-07
1.11484e-06
1.47286e-07
1.10704e-06
1.96237e-07
1.09971e-06
2.48065e-07
1.09321e-06
3.02754e-07
1.08781e-06
3.60318e-07
1.08369e-06
4.20785e-07
1.08093e-06
4.84188e-07
1.07957e-06
5.50554e-07
1.07953e-06
6.19894e-07
1.08069e-06
6.9219e-07
1.08287e-06
7.6739e-07
1.08583e-06
8.45395e-07
1.08929e-06
9.26059e-07
1.09293e-06
1.00918e-06
1.09637e-06
1.0945e-06
1.09926e-06
1.1817e-06
1.1012e-06
1.27042e-06
1.10181e-06
1.36023e-06
1.10071e-06
1.45069e-06
1.09756e-06
1.54129e-06
1.09202e-06
1.63153e-06
1.08382e-06
1.72087e-06
1.07271e-06
1.80879e-06
1.05853e-06
1.89476e-06
1.04112e-06
1.97827e-06
1.02043e-06
9.96427e-07
-1.11896e-08
1.38575e-07
-3.74058e-08
3.77577e-07
-7.07305e-08
5.72543e-07
-1.04775e-07
7.26223e-07
-1.35162e-07
8.4455e-07
-1.59256e-07
9.33791e-07
-1.75731e-07
9.99586e-07
-1.84155e-07
1.04667e-06
-1.84662e-07
1.07892e-06
-1.77717e-07
1.09944e-06
-1.63947e-07
1.1108e-06
-1.44041e-07
1.11506e-06
-1.18672e-07
1.11395e-06
-8.84613e-08
1.10888e-06
-5.39542e-08
1.10105e-06
-1.56087e-08
1.09142e-06
2.6205e-08
1.0808e-06
7.12009e-08
1.06984e-06
1.19169e-07
1.05907e-06
1.69967e-07
1.04891e-06
2.23508e-07
1.03967e-06
2.79748e-07
1.03157e-06
3.38677e-07
1.02476e-06
4.00305e-07
1.01931e-06
4.64652e-07
1.01522e-06
5.31736e-07
1.01244e-06
6.01562e-07
1.01086e-06
6.74116e-07
1.01032e-06
7.49349e-07
1.0106e-06
8.27179e-07
1.01146e-06
9.07476e-07
1.01263e-06
9.90064e-07
1.01378e-06
1.07472e-06
1.01461e-06
1.16115e-06
1.01476e-06
1.24905e-06
1.01392e-06
1.33803e-06
1.01174e-06
1.42767e-06
1.00791e-06
1.51754e-06
1.00215e-06
1.60715e-06
9.94206e-07
1.69601e-06
9.8385e-07
1.78363e-06
9.70909e-07
1.8695e-06
9.55252e-07
1.95314e-06
9.36795e-07
9.155e-07
-1.47631e-08
1.53338e-07
-4.87147e-08
4.11529e-07
-9.11149e-08
6.14943e-07
-1.33713e-07
7.68821e-07
-1.71196e-07
8.82033e-07
-2.00619e-07
9.63215e-07
-2.20699e-07
1.01967e-06
-2.31213e-07
1.05719e-06
-2.32559e-07
1.08026e-06
-2.25465e-07
1.09235e-06
-2.10796e-07
1.09613e-06
-1.89439e-07
1.0937e-06
-1.62233e-07
1.08674e-06
-1.2993e-07
1.07658e-06
-9.31805e-08
1.0643e-06
-5.25252e-08
1.05076e-06
-8.39936e-09
1.03667e-06
3.88589e-08
1.02258e-06
8.89987e-08
1.00893e-06
1.41843e-07
9.96068e-07
1.97278e-07
9.84235e-07
2.55237e-07
9.73611e-07
3.15692e-07
9.64304e-07
3.78636e-07
9.56362e-07
4.44079e-07
9.49777e-07
5.12029e-07
9.44492e-07
5.82489e-07
9.40402e-07
6.55442e-07
9.37364e-07
7.30848e-07
9.35196e-07
8.08631e-07
9.33682e-07
8.88679e-07
9.3258e-07
9.70837e-07
9.31626e-07
1.0549e-06
9.30542e-07
1.14063e-06
9.29036e-07
1.22773e-06
9.2682e-07
1.31586e-06
9.23607e-07
1.40465e-06
9.19124e-07
1.49368e-06
9.13116e-07
1.58254e-06
9.05353e-07
1.67075e-06
8.95636e-07
1.75786e-06
8.83801e-07
1.84339e-06
8.69719e-07
1.92688e-06
8.53303e-07
8.34505e-07
-1.95962e-08
1.72935e-07
-6.35491e-08
4.55482e-07
-1.17141e-07
6.68535e-07
-1.69743e-07
8.21423e-07
-2.15036e-07
9.27326e-07
-2.499e-07
9.98079e-07
-2.73279e-07
1.04305e-06
-2.85324e-07
1.06923e-06
-2.86824e-07
1.08176e-06
-2.78856e-07
1.08438e-06
-2.62575e-07
1.07985e-06
-2.39099e-07
1.07022e-06
-2.09444e-07
1.05708e-06
-1.745e-07
1.04164e-06
-1.35018e-07
1.02482e-06
-9.16173e-08
1.00736e-06
-4.47899e-08
9.89843e-07
5.08213e-09
9.72709e-07
5.77135e-08
9.56302e-07
1.12901e-07
9.4088e-07
1.70509e-07
9.26627e-07
2.30453e-07
9.13666e-07
2.92691e-07
9.02067e-07
3.57203e-07
8.91849e-07
4.2399e-07
8.82991e-07
4.93053e-07
8.75429e-07
5.6439e-07
8.69065e-07
6.37986e-07
8.63768e-07
7.13803e-07
8.59379e-07
7.91774e-07
8.55711e-07
8.71799e-07
8.52554e-07
9.53741e-07
8.49684e-07
1.03742e-06
8.46861e-07
1.12262e-06
8.43838e-07
1.20907e-06
8.40366e-07
1.29648e-06
8.36198e-07
1.38451e-06
8.31097e-07
1.47279e-06
8.24841e-07
1.56091e-06
8.17226e-07
1.64847e-06
8.08075e-07
1.73504e-06
7.97235e-07
1.82017e-06
7.84587e-07
1.90344e-06
7.7004e-07
7.53542e-07
-2.63232e-08
1.99258e-07
-8.33999e-08
5.12559e-07
-1.50823e-07
7.35958e-07
-2.14973e-07
8.85574e-07
-2.68579e-07
9.80931e-07
-3.08623e-07
1.03812e-06
-3.34566e-07
1.06899e-06
-3.47161e-07
1.08183e-06
-3.47742e-07
1.08234e-06
-3.37827e-07
1.07447e-06
-3.18914e-07
1.06093e-06
-2.92371e-07
1.04368e-06
-2.59402e-07
1.02412e-06
-2.21029e-07
1.00326e-06
-1.78096e-07
9.81884e-07
-1.31289e-07
9.60554e-07
-8.1149e-08
9.39703e-07
-2.80912e-08
9.19651e-07
2.75735e-08
9.00638e-07
8.56222e-08
8.82831e-07
1.45903e-07
8.66346e-07
2.08318e-07
8.51251e-07
2.72813e-07
8.37572e-07
3.39361e-07
8.25301e-07
4.07952e-07
8.144e-07
4.78583e-07
8.04798e-07
5.51248e-07
7.964e-07
6.2593e-07
7.89086e-07
7.02595e-07
7.82715e-07
7.81181e-07
7.77124e-07
8.61601e-07
7.72134e-07
9.43732e-07
7.67553e-07
1.02742e-06
7.63178e-07
1.11246e-06
7.58798e-07
1.19862e-06
7.54201e-07
1.28564e-06
7.49178e-07
1.37321e-06
7.43525e-07
1.461e-06
7.37049e-07
1.54866e-06
7.29573e-07
1.63579e-06
7.20938e-07
1.72202e-06
7.11007e-07
1.80694e-06
6.99668e-07
1.89014e-06
6.86836e-07
6.72452e-07
-3.6006e-08
2.35264e-07
-1.10555e-07
5.87108e-07
-1.95007e-07
8.2041e-07
-2.72141e-07
9.62707e-07
-3.34042e-07
1.04283e-06
-3.78318e-07
1.0824e-06
-4.05379e-07
1.09605e-06
-4.16869e-07
1.09332e-06
-4.14837e-07
1.08031e-06
-4.01334e-07
1.06096e-06
-3.78236e-07
1.03783e-06
-3.47178e-07
1.01262e-06
-3.09541e-07
9.86479e-07
-2.66469e-07
9.60189e-07
-2.18888e-07
9.34303e-07
-1.67536e-07
9.09203e-07
-1.12992e-07
8.85159e-07
-5.56973e-08
8.62356e-07
4.01977e-09
8.40921e-07
6.59209e-08
8.2093e-07
1.29841e-07
8.02426e-07
1.95673e-07
7.85419e-07
2.6335e-07
7.69894e-07
3.32837e-07
7.55815e-07
4.04116e-07
7.43121e-07
4.77176e-07
7.31737e-07
5.52009e-07
7.21567e-07
6.28597e-07
7.12499e-07
7.06905e-07
7.04406e-07
7.86881e-07
6.97148e-07
8.68446e-07
6.9057e-07
9.51491e-07
6.84508e-07
1.03588e-06
6.7879e-07
1.12144e-06
6.7324e-07
1.20796e-06
6.67678e-07
1.29521e-06
6.61927e-07
1.38292e-06
6.55812e-07
1.4708e-06
6.49169e-07
1.55853e-06
6.41844e-07
1.64577e-06
6.33698e-07
1.73217e-06
6.24608e-07
1.81737e-06
6.14472e-07
1.901e-06
6.03207e-07
5.90755e-07
-5.04915e-08
2.85755e-07
-1.48587e-07
6.85203e-07
-2.53687e-07
9.2551e-07
-3.44607e-07
1.05363e-06
-4.13652e-07
1.11188e-06
-4.5993e-07
1.12868e-06
-4.85401e-07
1.12152e-06
-4.92941e-07
1.10086e-06
-4.8548e-07
1.07285e-06
-4.65675e-07
1.04116e-06
-4.35803e-07
1.00796e-06
-3.97757e-07
9.74578e-07
-3.53089e-07
9.4181e-07
-3.03047e-07
9.10147e-07
-2.48626e-07
8.79882e-07
-1.90609e-07
8.51186e-07
-1.29602e-07
8.24152e-07
-6.60684e-08
7.98822e-07
-3.53355e-10
7.75205e-07
6.7291e-08
7.53286e-07
1.36687e-07
7.3303e-07
2.07714e-07
7.14392e-07
2.80295e-07
6.97314e-07
3.54383e-07
6.81727e-07
4.29951e-07
6.67553e-07
5.06984e-07
6.54704e-07
5.85466e-07
6.43084e-07
6.6538e-07
6.32586e-07
7.46694e-07
6.23092e-07
8.29362e-07
6.1448e-07
9.13317e-07
6.06614e-07
9.98468e-07
5.99357e-07
1.0847e-06
5.92561e-07
1.17186e-06
5.86078e-07
1.25978e-06
5.79757e-07
1.34826e-06
5.73449e-07
1.43706e-06
5.67006e-07
1.52595e-06
5.60288e-07
1.61463e-06
5.53163e-07
1.70282e-06
5.45509e-07
1.79021e-06
5.37219e-07
1.87648e-06
5.28199e-07
1.96131e-06
5.18372e-07
5.07679e-07
-7.31013e-08
3.58857e-07
-2.03122e-07
8.15224e-07
-3.32235e-07
1.05462e-06
-4.35885e-07
1.15728e-06
-5.0848e-07
1.18447e-06
-5.52012e-07
1.17221e-06
-5.70746e-07
1.14025e-06
-5.69146e-07
1.09926e-06
-5.51183e-07
1.05489e-06
-5.20169e-07
1.01014e-06
-4.78794e-07
9.66586e-07
-4.2921e-07
9.24993e-07
-3.73125e-07
8.85725e-07
-3.11887e-07
8.4891e-07
-2.46555e-07
8.1455e-07
-1.7795e-07
7.82582e-07
-1.06709e-07
7.5291e-07
-3.33132e-08
7.25427e-07
4.18735e-08
7.00019e-07
1.18585e-07
6.76575e-07
1.96629e-07
6.54986e-07
2.75873e-07
6.35147e-07
3.5623e-07
6.16957e-07
4.37644e-07
6.00313e-07
5.20081e-07
5.85115e-07
6.03522e-07
5.71264e-07
6.87951e-07
5.58655e-07
7.73353e-07
5.47184e-07
8.59706e-07
5.36739e-07
9.46976e-07
5.27209e-07
1.03511e-06
5.18476e-07
1.12405e-06
5.10419e-07
1.2137e-06
5.02913e-07
1.30395e-06
4.95833e-07
1.39465e-06
4.89051e-07
1.48566e-06
4.82443e-07
1.57678e-06
4.75883e-07
1.66781e-06
4.69254e-07
1.75853e-06
4.62443e-07
1.8487e-06
4.55346e-07
1.93805e-06
4.47867e-07
2.02633e-06
4.39923e-07
2.11325e-06
4.31446e-07
4.22378e-07
-1.09982e-07
4.68838e-07
-2.82937e-07
9.88179e-07
-4.36961e-07
1.20865e-06
-5.47432e-07
1.26775e-06
-6.14585e-07
1.25162e-06
-6.4529e-07
1.20291e-06
-6.47005e-07
1.14197e-06
-6.26171e-07
1.07842e-06
-5.87961e-07
1.01668e-06
-5.36419e-07
9.58603e-07
-4.74676e-07
9.04842e-07
-4.05149e-07
8.55466e-07
-3.29706e-07
8.10282e-07
-2.49787e-07
7.68991e-07
-1.66502e-07
7.31265e-07
-8.07028e-08
6.96782e-07
6.9617e-09
6.65246e-07
9.60021e-08
6.36386e-07
1.86054e-07
6.09967e-07
2.76851e-07
5.85777e-07
3.68206e-07
5.63631e-07
4.59989e-07
5.43364e-07
5.5212e-07
5.24826e-07
6.44549e-07
5.07883e-07
7.37254e-07
4.92411e-07
8.30226e-07
4.78292e-07
9.23467e-07
4.65414e-07
1.01698e-06
4.5367e-07
1.11077e-06
4.42952e-07
1.20482e-06
4.33154e-07
1.29913e-06
4.2417e-07
1.39365e-06
4.15894e-07
1.48835e-06
4.08218e-07
1.58315e-06
4.01036e-07
1.67796e-06
3.9424e-07
1.77267e-06
3.87726e-07
1.86717e-06
3.81389e-07
1.96129e-06
3.75132e-07
2.05487e-06
3.68858e-07
2.14774e-06
3.62481e-07
2.23969e-06
3.5592e-07
2.33051e-06
3.49102e-07
2.41999e-06
3.41965e-07
3.3446e-07
-1.72852e-07
6.41691e-07
-4.00871e-07
1.2162e-06
-5.71246e-07
1.37902e-06
-6.70062e-07
1.36656e-06
-7.10178e-07
1.29174e-06
-7.06082e-07
1.19882e-06
-6.69549e-07
1.10544e-06
-6.09492e-07
1.01837e-06
-5.32511e-07
9.39698e-07
-4.43452e-07
8.69543e-07
-3.45867e-07
8.07257e-07
-2.42374e-07
7.51973e-07
-1.3491e-07
7.02818e-07
-2.49102e-08
6.58991e-07
8.65631e-08
6.19792e-07
1.98727e-07
5.84619e-07
3.11009e-07
5.52963e-07
4.23e-07
5.24395e-07
5.34414e-07
4.98554e-07
6.45058e-07
4.75133e-07
7.54815e-07
4.53875e-07
8.63622e-07
4.34557e-07
9.71457e-07
4.16991e-07
1.07833e-06
4.01008e-07
1.18428e-06
3.86464e-07
1.28935e-06
3.73226e-07
1.39359e-06
3.61174e-07
1.49706e-06
3.50197e-07
1.59982e-06
3.40191e-07
1.70192e-06
3.31056e-07
1.80339e-06
3.22695e-07
1.90427e-06
3.15016e-07
2.00457e-06
3.07924e-07
2.10427e-06
3.01331e-07
2.20336e-06
2.95148e-07
2.3018e-06
2.89289e-07
2.39952e-06
2.8367e-07
2.49644e-06
2.7821e-07
2.59246e-06
2.72834e-07
2.68748e-06
2.6747e-07
2.78134e-06
2.62052e-07
2.87392e-06
2.56522e-07
2.96506e-06
2.50827e-07
2.44929e-07
-2.84848e-07
9.26538e-07
-5.69201e-07
1.50055e-06
-7.15e-07
1.52482e-06
-7.50113e-07
1.40168e-06
-7.11895e-07
1.25352e-06
-6.26172e-07
1.1131e-06
-5.10089e-07
9.89353e-07
-3.75132e-07
8.83409e-07
-2.28995e-07
7.9356e-07
-7.67747e-08
7.17323e-07
7.81521e-08
6.52331e-07
2.33538e-07
5.96588e-07
3.87883e-07
5.48472e-07
5.402e-07
5.06674e-07
6.89853e-07
4.70139e-07
8.3645e-07
4.38021e-07
9.79776e-07
4.09637e-07
1.11974e-06
3.84436e-07
1.25632e-06
3.61968e-07
1.38959e-06
3.41867e-07
1.51963e-06
3.2383e-07
1.64659e-06
3.07604e-07
1.7706e-06
2.92979e-07
1.89183e-06
2.79776e-07
2.01045e-06
2.67842e-07
2.12663e-06
2.57044e-07
2.24054e-06
2.47264e-07
2.35234e-06
2.38397e-07
2.46219e-06
2.30348e-07
2.57021e-06
2.23028e-07
2.67655e-06
2.16355e-07
2.78132e-06
2.10252e-07
2.8846e-06
2.04644e-07
2.98647e-06
1.9946e-07
3.08699e-06
1.94631e-07
3.18618e-06
1.90092e-07
3.28407e-06
1.8578e-07
3.38065e-06
1.81635e-07
3.47588e-06
1.776e-07
3.56973e-06
1.73624e-07
3.66212e-06
1.69657e-07
3.75299e-06
1.65658e-07
3.84223e-06
1.61586e-07
1.57415e-07
-4.9029e-07
1.41683e-06
-7.44175e-07
1.75444e-06
-7.17517e-07
1.49816e-06
-5.55384e-07
1.23955e-06
-3.3359e-07
1.03173e-06
-8.67324e-08
8.66238e-07
1.67962e-07
7.34659e-07
4.20881e-07
6.30491e-07
6.6687e-07
5.47571e-07
9.03476e-07
4.80717e-07
1.12972e-06
4.26084e-07
1.3454e-06
3.80906e-07
1.55073e-06
3.43145e-07
1.74613e-06
3.11271e-07
1.93215e-06
2.84119e-07
2.10938e-06
2.60798e-07
2.2784e-06
2.40616e-07
2.4398e-06
2.23037e-07
2.59413e-06
2.07635e-07
2.74193e-06
1.94071e-07
2.88368e-06
1.82073e-07
3.01987e-06
1.71421e-07
3.15091e-06
1.61933e-07
3.27723e-06
1.5346e-07
3.39919e-06
1.45877e-07
3.51716e-06
1.39077e-07
3.63146e-06
1.32968e-07
3.74238e-06
1.27472e-07
3.85021e-06
1.22517e-07
3.9552e-06
1.1804e-07
4.05757e-06
1.13983e-07
4.15753e-06
1.10294e-07
4.25525e-06
1.06923e-07
4.35089e-06
1.03822e-07
4.44457e-06
1.0095e-07
4.5364e-06
9.82635e-08
4.62645e-06
9.57245e-08
4.71479e-06
9.32964e-08
4.80145e-06
9.09452e-08
4.88643e-06
8.86398e-08
4.96974e-06
8.63517e-08
5.05134e-06
8.40564e-08
5.1312e-06
8.17295e-08
7.9358e-08
-6.77141e-07
2.09397e-06
-3.78655e-07
1.45595e-06
1.98102e-07
9.21406e-07
7.52248e-07
6.85399e-07
1.25172e-06
5.32259e-07
1.70085e-06
4.17101e-07
2.10346e-06
3.32055e-07
2.46382e-06
2.70126e-07
2.78718e-06
2.24212e-07
3.07867e-06
1.89227e-07
3.34277e-06
1.61982e-07
3.58326e-06
1.40415e-07
3.80331e-06
1.23096e-07
4.00559e-06
1.08996e-07
4.19234e-06
9.73708e-08
4.36546e-06
8.7678e-08
4.52656e-06
7.95147e-08
4.67702e-06
7.25782e-08
4.81801e-06
6.66373e-08
4.95057e-06
6.15138e-08
5.07558e-06
5.70684e-08
5.19381e-06
5.31912e-08
5.30595e-06
4.97946e-08
5.4126e-06
4.68077e-08
5.5143e-06
4.41725e-08
5.61154e-06
4.1841e-08
5.70473e-06
3.97728e-08
5.79427e-06
3.79334e-08
5.8805e-06
3.62931e-08
5.96371e-06
3.48256e-08
6.04419e-06
3.35075e-08
6.12216e-06
3.23175e-08
6.19785e-06
3.12364e-08
6.27142e-06
3.02464e-08
6.34304e-06
2.9331e-08
6.41283e-06
2.84749e-08
6.48089e-06
2.7664e-08
6.5473e-06
2.68853e-08
6.61212e-06
2.61269e-08
6.67538e-06
2.53783e-08
6.73711e-06
2.46295e-08
6.79729e-06
2.38735e-08
6.85592e-06
2.31013e-08
2.23096e-08
2.09397e-06
3.54992e-06
4.47133e-06
5.15672e-06
5.68898e-06
6.10608e-06
6.43814e-06
6.70826e-06
6.93248e-06
7.1217e-06
7.28369e-06
7.4241e-06
7.5472e-06
7.65619e-06
7.75356e-06
7.84124e-06
7.92076e-06
7.99333e-06
8.05997e-06
8.12149e-06
8.17855e-06
8.23175e-06
8.28154e-06
8.32835e-06
8.37252e-06
8.41436e-06
8.45413e-06
8.49207e-06
8.52836e-06
8.56319e-06
8.59669e-06
8.62901e-06
8.66025e-06
8.69049e-06
8.71983e-06
8.7483e-06
8.77596e-06
8.80285e-06
8.82898e-06
8.85435e-06
8.87898e-06
8.90286e-06
8.92596e-06
)
;

boundaryField
{
    movingWall
    {
        type            calculated;
        value           uniform 0;
    }
    fixedWalls
    {
        type            calculated;