/*--------------------------------*- C++ -*----------------------------------*\
  =========                 |
  \\      /  F ield         | OpenFOAM: The Open Source CFD Toolbox
   \\    /   O peration     | Website:  https://openfoam.org
    \\  /    A nd           | Version:  9
     \\/     M anipulation  |
\*---------------------------------------------------------------------------*/
FoamFile
{
    format      ascii;
    class       volVectorField;
    location    "1";
    object      U;
}
// * * * * * * * * * * * * * * * * * * * * * * * * * * * * * * * * * * * * * //

dimensions      [0 1 -1 0 0 0 0];

internalField   nonuniform List<vector> 
1250
(
(0.0528098 0.209151 0)
(0.0584936 0.21519 0)
(0.0644882 0.220904 0)
(0.0707242 0.226103 0)
(0.0771244 0.230607 0)
(0.0836025 0.234248 0)
(0.0900677 0.236883 0)
(0.0964295 0.238395 0)
(0.102602 0.238706 0)
(0.108509 0.237773 0)
(0.114084 0.235593 0)
(0.119278 0.232197 0)
(0.124057 0.227648 0)
(0.128401 0.222033 0)
(0.132309 0.215454 0)
(0.135788 0.208021 0)
(0.138861 0.199849 0)
(0.141553 0.191047 0)
(6.00833e-05 0.0107443 0)
(0.000369488 0.0305004 0)
(0.000980158 0.0484842 0)
(0.00177618 0.0646743 0)
(0.0026985 0.0790783 0)
(0.00370903 0.0917394 0)
(0.00477746 0.102739 0)
(0.00588337 0.112194 0)
(0.00701661 0.120252 0)
(0.00817645 0.127081 0)
(0.00937059 0.132867 0)
(0.010614 0.137799 0)
(0.0119279 0.142066 0)
(0.0133385 0.145853 0)
(0.0148762 0.149332 0)
(0.0165747 0.152661 0)
(0.0184703 0.155982 0)
(0.0206009 0.159418 0)
(0.0230052 0.163069 0)
(0.0257214 0.167014 0)
(0.0287859 0.171304 0)
(0.0322314 0.175963 0)
(0.0360847 0.180985 0)
(0.0403647 0.186334 0)
(0.0450799 0.191941 0)
(0.0502261 0.197709 0)
(0.0557825 0.203508 0)
(0.0617239 0.209207 0)
(0.0679947 0.214632 0)
(0.0745347 0.219612 0)
(0.081269 0.22398 0)
(0.0881133 0.227573 0)
(0.0949781 0.23025 0)
(0.101772 0.231894 0)
(0.108408 0.23242 0)
(0.114805 0.231776 0)
(0.120892 0.229945 0)
(0.126612 0.226945 0)
(0.131925 0.222822 0)
(0.136803 0.217647 0)
(0.141235 0.211508 0)
(0.145223 0.204505 0)
(0.148781 0.196741 0)
(0.15193 0.188319 0)
(5.52077e-05 0.0105564 0)
(0.00034187 0.0300294 0)
(0.000912785 0.0478003 0)
(0.00166621 0.0638326 0)
(0.00255205 0.0781224 0)
(0.00353858 0.0907029 0)
(0.00460011 0.101646 0)
(0.00571902 0.111058 0)
(0.00688641 0.119078 0)
(0.00810153 0.125868 0)
(0.00937111 0.131602 0)
(0.0107086 0.136466 0)
(0.0121331 0.140642 0)
(0.0136688 0.144311 0)
(0.0153438 0.14764 0)
(0.0171898 0.150786 0)
(0.0192409 0.153888 0)
(0.0215332 0.157066 0)
(0.0241037 0.160423 0)
(0.0269894 0.164036 0)
(0.0302258 0.167959 0)
(0.0338453 0.172222 0)
(0.0378752 0.176824 0)
(0.0423357 0.181739 0)
(0.0472373 0.186908 0)
(0.0525788 0.192248 0)
(0.0583461 0.19765 0)
(0.0645081 0.20298 0)
(0.071022 0.208092 0)
(0.0778303 0.212826 0)
(0.0848622 0.217025 0)
(0.0920366 0.220535 0)
(0.0992662 0.22322 0)
(0.106461 0.224961 0)
(0.113531 0.22567 0)
(0.120394 0.225287 0)
(0.126975 0.223783 0)
(0.133211 0.221163 0)
(0.139053 0.217458 0)
(0.144466 0.212725 0)
(0.149432 0.207036 0)
(0.153943 0.200478 0)
(0.158006 0.193146 0)
(0.161635 0.185135 0)
(4.90913e-05 0.010385 0)
(0.00030606 0.0295968 0)
(0.000823166 0.047165 0)
(0.00151572 0.0630396 0)
(0.00234431 0.0772072 0)
(0.00328487 0.0896927 0)
(0.00431747 0.10056 0)
(0.00542818 0.109909 0)
(0.00660995 0.11787 0)
(0.00786237 0.124598 0)
(0.00919137 0.130261 0)
(0.0106088 0.135038 0)
(0.0121316 0.139107 0)
(0.0137817 0.142644 0)
(0.0155844 0.145812 0)
(0.0175689 0.148766 0)
(0.0197669 0.151641 0)
(0.022212 0.154558 0)
(0.0249392 0.157616 0)
(0.0279839 0.160895 0)
(0.0313803 0.164451 0)
(0.0351599 0.168317 0)
(0.0393501 0.172498 0)
(0.0439717 0.176975 0)
(0.0490368 0.181701 0)
(0.0545466 0.186603 0)
(0.0604902 0.191586 0)
(0.0668425 0.196533 0)
(0.073565 0.201309 0)
(0.0806047 0.205771 0)
(0.0878954 0.209771 0)
(0.0953606 0.213166 0)
(0.102916 0.215822 0)
(0.110474 0.217625 0)
(0.117944 0.218483 0)
(0.125243 0.218329 0)
(0.132292 0.217126 0)
(0.139022 0.214865 0)
(0.14538 0.211566 0)
(0.151322 0.207268 0)
(0.156821 0.202032 0)
(0.161863 0.195932 0)
(0.166444 0.189051 0)
(0.170572 0.181475 0)
(4.15946e-05 0.0102346 0)
(0.000261145 0.0292139 0)
(0.000708892 0.0465951 0)
(0.00132047 0.0623156 0)
(0.00206913 0.0763546 0)
(0.00293992 0.0887311 0)
(0.00391989 0.0995037 0)
(0.00499977 0.108767 0)
(0.00617496 0.116645 0)
(0.00744578 0.123287 0)
(0.00881753 0.128856 0)
(0.0103004 0.133526 0)
(0.0119091 0.13747 0)
(0.0136626 0.140859 0)
(0.0155835 0.143854 0)
(0.0176979 0.146605 0)
(0.0200345 0.149246 0)
(0.0226243 0.151896 0)
(0.0254998 0.154653 0)
(0.0286939 0.157597 0)
(0.0322392 0.160786 0)
(0.0361662 0.164255 0)
(0.0405017 0.168016 0)
(0.0452667 0.172055 0)
(0.0504748 0.176335 0)
(0.0561293 0.180795 0)
(0.0622229 0.185352 0)
(0.068735 0.189902 0)
(0.0756318 0.194325 0)
(0.0828654 0.198491 0)
(0.0903752 0.202263 0)
(0.0980897 0.205508 0)
(0.105929 0.208101 0)
(0.113807 0.209927 0)
(0.121637 0.210895 0)
(0.129334 0.210935 0)
(0.136816 0.21 0)
(0.144013 0.208073 0)
(0.150864 0.205158 0)
(0.157318 0.201283 0)
(0.163341 0.196497 0)
(0.16891 0.190859 0)
(0.174013 0.184441 0)
(0.17865 0.17732 0)
(3.25605e-05 0.0101102 0)
(0.000206087 0.0288939 0)
(0.000567222 0.0461094 0)
(0.00107571 0.0616832 0)
(0.00171972 0.0755891 0)
(0.00249511 0.0878433 0)
(0.00339722 0.0985014 0)
(0.00442241 0.107655 0)
(0.0055692 0.115425 0)
(0.00683901 0.121955 0)
(0.00823659 0.127406 0)
(0.0097704 0.131946 0)
(0.0114527 0.135744 0)
(0.0132993 0.138969 0)
(0.0153296 0.141776 0)
(0.0175661 0.144314 0)
(0.0200343 0.146714 0)
(0.0227618 0.149092 0)
(0.0257782 0.151546 0)
(0.0291138 0.154155 0)
(0.032799 0.156979 0)
(0.0368626 0.160054 0)
(0.0413305 0.163397 0)
(0.0462237 0.167001 0)
(0.0515566 0.170837 0)
(0.0573347 0.174853 0)
(0.0635534 0.178978 0)
(0.0701964 0.183121 0)
(0.0772346 0.187175 0)
(0.0846258 0.191024 0)
(0.0923149 0.194542 0)
(0.100236 0.197607 0)
(0.108314 0.200099 0)
(0.116468 0.201911 0)
(0.124612 0.202951 0)
(0.132662 0.203145 0)
(0.140537 0.202442 0)
(0.148163 0.200815 0)
(0.155473 0.198259 0)
(0.162413 0.194789 0)
(0.16894 0.190441 0)
(0.175022 0.185262 0)
(0.180641 0.179313 0)
(0.185789 0.172662 0)
(2.17552e-05 0.0100172 0)
(0.000139486 0.028651 0)
(0.000394604 0.0457285 0)
(0.000775421 0.0611667 0)
(0.00128772 0.0749371 0)
(0.00193999 0.0870555 0)
(0.00273738 0.0975781 0)
(0.00368289 0.106596 0)
(0.0047788 0.114229 0)
(0.00602789 0.12062 0)
(0.00743447 0.125925 0)
(0.00900515 0.13031 0)
(0.0107493 0.133941 0)
(0.0126795 0.136982 0)
(0.0148113 0.139587 0)
(0.0171633 0.1419 0)
(0.0197572 0.144051 0)
(0.0226169 0.146152 0)
(0.0257686 0.148302 0)
(0.0292395 0.150577 0)
(0.0330573 0.153038 0)
(0.0372488 0.155724 0)
(0.0418386 0.158655 0)
(0.0468472 0.161829 0)
(0.0522894 0.165224 0)
(0.0581722 0.168798 0)
(0.0644938 0.172489 0)
(0.0712414 0.176219 0)
(0.0783906 0.179893 0)
(0.0859045 0.183407 0)
(0.0937342 0.186649 0)
(0.10182 0.189505 0)
(0.110091 0.191864 0)
(0.118472 0.193625 0)
(0.126881 0.194696 0)
(0.135236 0.195004 0)
(0.143456 0.194495 0)
(0.151465 0.193133 0)
(0.159193 0.190905 0)
(0.166582 0.187815 0)
(0.173582 0.183886 0)
(0.180154 0.179157 0)
(0.186272 0.173676 0)
(0.191919 0.1675 0)
(8.90725e-06 0.00996196 0)
(5.95162e-05 0.0285017 0)
(0.00018641 0.0454756 0)
(0.000411926 0.0607933 0)
(0.000762582 0.074427 0)
(0.00126171 0.086396 0)
(0.00192582 0.0967606 0)
(0.00276561 0.105615 0)
(0.00378771 0.113081 0)
(0.00499646 0.1193 0)
(0.00639567 0.124429 0)
(0.00798989 0.128631 0)
(0.00978538 0.13207 0)
(0.0117908 0.134906 0)
(0.0140175 0.137292 0)
(0.0164798 0.139368 0)
(0.0191951 0.141261 0)
(0.0221831 0.143081 0)
(0.0254661 0.144924 0)
(0.0290679 0.146867 0)
(0.0330131 0.14897 0)
(0.0373262 0.151273 0)
(0.0420298 0.153799 0)
(0.0471435 0.156551 0)
(0.0526822 0.159512 0)
(0.0586539 0.162649 0)
(0.0650589 0.165909 0)
(0.0718877 0.169223 0)
(0.0791203 0.17251 0)
(0.086725 0.175677 0)
(0.0946586 0.178624 0)
(0.102867 0.181246 0)
(0.111287 0.183442 0)
(0.119847 0.185116 0)
(0.12847 0.186182 0)
(0.137077 0.186565 0)
(0.145589 0.186209 0)
(0.153929 0.185073 0)
(0.162027 0.183138 0)
(0.16982 0.180398 0)
(0.177252 0.176866 0)
(0.18428 0.17257 0)
(0.190868 0.167548 0)
(0.196993 0.161848 0)
(-6.22378e-06 0.00995225 0)
(-3.61629e-05 0.028465 0)
(-6.34519e-05 0.0453773 0)
(-2.45927e-05 0.0605934 0)
(0.000131112 0.0740901 0)
(0.000444387 0.085895 0)
(0.000944835 0.0960767 0)
(0.00165199 0.104736 0)
(0.00257726 0.111999 0)
(0.00372651 0.118012 0)
(0.00510294 0.122932 0)
(0.00670867 0.12692 0)
(0.00854635 0.13014 0)
(0.0106203 0.132749 0)
(0.0129371 0.134898 0)
(0.0155063 0.136723 0)
(0.0183403 0.138348 0)
(0.0214546 0.139882 0)
(0.0248669 0.141417 0)
(0.0285973 0.14303 0)
(0.032667 0.14478 0)
(0.0370974 0.146708 0)
(0.0419092 0.148838 0)
(0.0471205 0.151177 0)
(0.0527457 0.153714 0)
(0.0587936 0.156421 0)
(0.065266 0.159255 0)
(0.0721562 0.162157 0)
(0.0794481 0.165054 0)
(0.0871147 0.167867 0)
(0.0951185 0.170504 0)
(0.103412 0.172873 0)
(0.111937 0.17488 0)
(0.120628 0.176437 0)
(0.129414 0.17746 0)
(0.138219 0.17788 0)
(0.146968 0.177638 0)
(0.155584 0.17669 0)
(0.163996 0.17501 0)
(0.172139 0.172586 0)
(0.179955 0.169423 0)
(0.187393 0.165538 0)
(0.194413 0.160961 0)
(0.200985 0.15573 0)
(-2.45589e-05 0.00999696 0)
(-0.000151045 0.0285631 0)
(-0.00036279 0.0454641 0)
(-0.00054687 0.0606013 0)
(-0.000623396 0.0739612 0)
(-0.000531574 0.0855853 0)
(-0.000227113 0.0955555 0)
(0.000319759 0.103984 0)
(0.00112554 0.111007 0)
(0.00219717 0.116775 0)
(0.00353699 0.121447 0)
(0.00514411 0.125187 0)
(0.00701696 0.128158 0)
(0.00915483 0.130515 0)
(0.0115591 0.132406 0)
(0.0142339 0.133965 0)
(0.0171863 0.135312 0)
(0.0204268 0.136555 0)
(0.0239686 0.137782 0)
(0.0278273 0.139068 0)
(0.0320205 0.140471 0)
(0.0365665 0.142032 0)
(0.0414833 0.143777 0)
(0.0467875 0.145715 0)
(0.0524923 0.14784 0)
(0.0586069 0.150129 0)
(0.0651341 0.152545 0)
(0.0720696 0.15504 0)
(0.0794005 0.15755 0)
(0.0871042 0.160005 0)
(0.0951485 0.162324 0)
(0.103491 0.164424 0)
(0.112081 0.166222 0)
(0.120859 0.167634 0)
(0.129758 0.168585 0)
(0.138708 0.169006 0)
(0.147637 0.168839 0)
(0.156471 0.16804 0)
(0.165139 0.166577 0)
(0.173575 0.164434 0)
(0.181718 0.161608 0)
(0.189514 0.158108 0)
(0.196918 0.153955 0)
(0.203892 0.149178 0)
(-4.6788e-05 0.0101068 0)
(-0.000289335 0.0288227 0)
(-0.000721718 0.0457718 0)
(-0.00117103 0.0608563 0)
(-0.00152224 0.0740791 0)
(-0.00169108 0.0855022 0)
(-0.00161608 0.0952278 0)
(-0.00125735 0.103386 0)
(-0.000593428 0.110124 0)
(0.00038431 0.115601 0)
(0.00167612 0.119985 0)
(0.00327718 0.123439 0)
(0.00518101 0.126128 0)
(0.00738108 0.128206 0)
(0.00987284 0.129818 0)
(0.0126544 0.131095 0)
(0.0157273 0.132154 0)
(0.0190964 0.133099 0)
(0.0227699 0.134017 0)
(0.0267589 0.134979 0)
(0.0310771 0.136042 0)
(0.0357391 0.137246 0)
(0.0407604 0.138618 0)
(0.0461552 0.140169 0)
(0.0519358 0.141895 0)
(0.0581108 0.14378 0)
(0.0646839 0.145792 0)
(0.0716524 0.147889 0)
(0.0790062 0.150019 0)
(0.0867266 0.152117 0)
(0.0947862 0.154114 0)
(0.103148 0.155937 0)
(0.111767 0.157509 0)
(0.12059 0.158756 0)
(0.129556 0.159606 0)
(0.1386 0.159996 0)
(0.147653 0.15987 0)
(0.156647 0.159183 0)
(0.16551 0.1579 0)
(0.174179 0.156002 0)
(0.182589 0.153479 0)
(0.190685 0.150334 0)
(0.198417 0.14658 0)
(0.205744 0.142239 0)
(-7.39166e-05 0.0102954 0)
(-0.000456734 0.0292764 0)
(-0.0011537 0.0463429 0)
(-0.00191806 0.0614037 0)
(-0.00259227 0.0744867 0)
(-0.00306467 0.0856837 0)
(-0.00325477 0.0951251 0)
(-0.00311185 0.102964 0)
(-0.00260965 0.109367 0)
(-0.0017394 0.114505 0)
(-0.000504062 0.118553 0)
(0.00108709 0.121681 0)
(0.0030214 0.124053 0)
(0.00528542 0.125822 0)
(0.00786797 0.127132 0)
(0.0107607 0.12811 0)
(0.0139587 0.12887 0)
(0.0174612 0.129512 0)
(0.0212711 0.130119 0)
(0.0253948 0.130761 0)
(0.0298415 0.131491 0)
(0.0346224 0.132349 0)
(0.0397498 0.133362 0)
(0.0452358 0.13454 0)
(0.051091 0.135884 0)
(0.0573234 0.137381 0)
(0.0639369 0.139004 0)
(0.0709301 0.140717 0)
(0.0782951 0.142475 0)
(0.0860166 0.144223 0)
(0.0940713 0.1459 0)
(0.102427 0.14744 0)
(0.111045 0.148777 0)
(0.119877 0.149842 0)
(0.128868 0.150571 0)
(0.137958 0.150903 0)
(0.147085 0.150787 0)
(0.156182 0.150178 0)
(0.165182 0.14904 0)
(0.174021 0.147351 0)
(0.182636 0.145097 0)
(0.190971 0.142275 0)
(0.198972 0.138893 0)
(0.206594 0.134965 0)
(-0.000107413 0.0105798 0)
(-0.00066103 0.0299642 0)
(-0.00167661 0.0472286 0)
(-0.00281534 0.0622963 0)
(-0.0038679 0.0752323 0)
(-0.00469084 0.0861703 0)
(-0.00518285 0.095279 0)
(-0.00528221 0.102743 0)
(-0.004959 0.108752 0)
(-0.00420589 0.113496 0)
(-0.00303037 0.117157 0)
(-0.00144836 0.119913 0)
(0.000520152 0.121929 0)
(0.00285417 0.123359 0)
(0.00553477 0.124342 0)
(0.00854637 0.125003 0)
(0.0118775 0.125453 0)
(0.015521 0.125787 0)
(0.0194745 0.126084 0)
(0.0237392 0.126409 0)
(0.0283203 0.126814 0)
(0.033225 0.127338 0)
(0.0384626 0.128005 0)
(0.0440427 0.128828 0)
(0.0499741 0.129808 0)
(0.0562639 0.130934 0)
(0.0629158 0.132185 0)
(0.0699292 0.133531 0)
(0.077298 0.134931 0)
(0.0850097 0.136339 0)
(0.0930444 0.137701 0)
(0.101375 0.13896 0)
(0.109966 0.140057 0)
(0.118777 0.140929 0)
(0.127757 0.14152 0)
(0.136853 0.141774 0)
(0.146006 0.141642 0)
(0.155155 0.141081 0)
(0.164236 0.140056 0)
(0.173187 0.138543 0)
(0.181947 0.136524 0)
(0.190458 0.133994 0)
(0.198665 0.130953 0)
(0.206523 0.127413 0)
(-0.000149368 0.0109819 0)
(-0.000912901 0.0309362 0)
(-0.00231439 0.048491 0)
(-0.00389877 0.0635959 0)
(-0.00539332 0.0763701 0)
(-0.00661787 0.0870051 0)
(-0.00744891 0.0957209 0)
(-0.00781451 0.102743 0)
(-0.00768314 0.108292 0)
(-0.00705122 0.112577 0)
(-0.0059331 0.115795 0)
(-0.0043533 0.11813 0)
(-0.00234095 0.119749 0)
(7.41628e-05 0.120806 0)
(0.00286461 0.121438 0)
(0.00600685 0.121766 0)
(0.00948224 0.121895 0)
(0.0132774 0.121915 0)
(0.0173841 0.121901 0)
(0.0217989 0.121915 0)
(0.0265222 0.122006 0)
(0.0315578 0.122207 0)
(0.0369116 0.122544 0)
(0.0425909 0.123029 0)
(0.0486025 0.123664 0)
(0.0549524 0.124439 0)
(0.0616438 0.125338 0)
(0.0686767 0.126334 0)
(0.0760461 0.127394 0)
(0.0837417 0.128475 0)
(0.0917468 0.129533 0)
(0.100038 0.130516 0)
(0.108585 0.131372 0)
(0.11735 0.132048 0)
(0.126291 0.13249 0)
(0.135358 0.13265 0)
(0.144498 0.132481 0)
(0.153653 0.131943 0)
(0.162765 0.131003 0)
(0.171774 0.129635 0)
(0.18062 0.127821 0)
(0.189248 0.125552 0)
(0.197602 0.122824 0)
(0.205635 0.119643 0)
(-0.0002028 0.0115304 0)
(-0.0012272 0.032256 0)
(-0.00309945 0.0502065 0)
(-0.00521578 0.0653755 0)
(-0.00722542 0.0779609 0)
(-0.00890642 0.0882333 0)
(-0.0101125 0.0964803 0)
(-0.0107638 0.10298 0)
(-0.0108304 0.10799 0)
(-0.010316 0.111745 0)
(-0.00924504 0.114458 0)
(-0.00765303 0.116319 0)
(-0.00558019 0.1175 0)
(-0.00306666 0.118152 0)
(-0.000149367 0.118408 0)
(0.0031397 0.118385 0)
(0.00677443 0.118182 0)
(0.0107349 0.117885 0)
(0.0150073 0.117562 0)
(0.019583 0.117271 0)
(0.0244585 0.117056 0)
(0.0296339 0.116949 0)
(0.035112 0.116973 0)
(0.0408976 0.117138 0)
(0.0469956 0.117447 0)
(0.0534108 0.117893 0)
(0.0601458 0.118461 0)
(0.0672007 0.119128 0)
(0.0745714 0.119865 0)
(0.0822494 0.120637 0)
(0.0902204 0.121403 0)
(0.0984642 0.12212 0)
(0.106955 0.122742 0)
(0.115659 0.12322 0)
(0.124539 0.123509 0)
(0.13355 0.123564 0)
(0.142643 0.123343 0)
(0.151768 0.122809 0)
(0.160867 0.121931 0)
(0.169887 0.120682 0)
(0.178769 0.119045 0)
(0.18746 0.117007 0)
(0.195904 0.114563 0)
(0.204055 0.111715 0)
(-0.000272182 0.0122631 0)
(-0.00162497 0.0340057 0)
(-0.00407629 0.0524696 0)
(-0.00682954 0.0677214 0)
(-0.00943779 0.0800721 0)
(-0.0116326 0.0899005 0)
(-0.0132463 0.097583 0)
(-0.0141952 0.103463 0)
(-0.0144562 0.107845 0)
(-0.0140453 0.110991 0)
(-0.0130009 0.11313 0)
(-0.0113729 0.114463 0)
(-0.00921459 0.115161 0)
(-0.00657815 0.115374 0)
(-0.00351092 0.115231 0)
(-5.38526e-05 0.114841 0)
(0.00375931 0.114299 0)
(0.00790215 0.113682 0)
(0.0123552 0.113053 0)
(0.0171055 0.112464 0)
(0.0221452 0.111955 0)
(0.0274711 0.111554 0)
(0.0330834 0.111281 0)
(0.0389842 0.111146 0)
(0.045177 0.111151 0)
(0.0516651 0.111289 0)
(0.0584505 0.111548 0)
(0.0655331 0.111909 0)
(0.0729097 0.112344 0)
(0.0805727 0.112825 0)
(0.0885102 0.113317 0)
(0.0967047 0.11378 0)
(0.105133 0.114175 0)
(0.113767 0.114461 0)
(0.122572 0.114597 0)
(0.131508 0.114542 0)
(0.140533 0.11426 0)
(0.149597 0.113715 0)
(0.158651 0.11288 0)
(0.167643 0.111729 0)
(0.176518 0.110244 0)
(0.185224 0.108412 0)
(0.19371 0.106226 0)
(0.201926 0.103685 0)
(-0.000364349 0.013232 0)
(-0.00213667 0.0362929 0)
(-0.00530681 0.0553991 0)
(-0.00882493 0.0707355 0)
(-0.0121259 0.0827772 0)
(-0.0148919 0.0920509 0)
(-0.0169382 0.0990474 0)
(-0.0181845 0.104192 0)
(-0.0186227 0.10784 0)
(-0.0182873 0.110289 0)
(-0.0172359 0.111784 0)
(-0.0155363 0.112531 0)
(-0.0132576 0.112703 0)
(-0.0104653 0.112446 0)
(-0.00721797 0.111882 0)
(-0.00356592 0.111114 0)
(0.000449515 0.110226 0)
(0.00479566 0.109288 0)
(0.00944793 0.108359 0)
(0.0143889 0.107481 0)
(0.0196074 0.106691 0)
(0.0250971 0.106012 0)
(0.0308556 0.10546 0)
(0.0368831 0.105045 0)
(0.0431815 0.104766 0)
(0.0497529 0.10462 0)
(0.0565985 0.104593 0)
(0.0637183 0.104669 0)
(0.0711091 0.104825 0)
(0.0787647 0.105036 0)
(0.0866745 0.10527 0)
(0.0948234 0.105496 0)
(0.103191 0.105678 0)
(0.111752 0.105779 0)
(0.120477 0.105765 0)
(0.12933 0.1056 0)
(0.138271 0.105251 0)
(0.147257 0.104687 0)
(0.156242 0.103882 0)
(0.165177 0.102812 0)
(0.174013 0.101459 0)
(0.182699 0.0998111 0)
(0.191185 0.0978587 0)
(0.199426 0.0955994 0)
(-0.000490139 0.014509 0)
(-0.00280747 0.0392601 0)
(-0.00687851 0.0591442 0)
(-0.011317 0.0745374 0)
(-0.0154139 0.086154 0)
(-0.0188031 0.0947222 0)
(-0.0212928 0.10088 0)
(-0.0228183 0.105149 0)
(-0.0233968 0.107947 0)
(-0.0230901 0.109602 0)
(-0.0219813 0.110377 0)
(-0.02016 0.110482 0)
(-0.0177134 0.110088 0)
(-0.0147218 0.109332 0)
(-0.0112556 0.10833 0)
(-0.00737412 0.107173 0)
(-0.00312616 0.105937 0)
(0.00144985 0.104683 0)
(0.00632474 0.10346 0)
(0.0114774 0.102305 0)
(0.0168935 0.101248 0)
(0.0225644 0.100307 0)
(0.0284856 0.099496 0)
(0.0346556 0.0988209 0)
(0.0410749 0.0982817 0)
(0.0477445 0.0978727 0)
(0.0546652 0.0975832 0)
(0.0618365 0.0973981 0)
(0.0692558 0.0972978 0)
(0.0769173 0.0972595 0)
(0.0848119 0.0972572 0)
(0.0929263 0.0972623 0)
(0.101243 0.0972449 0)
(0.109738 0.0971738 0)
(0.118387 0.0970177 0)
(0.127156 0.0967461 0)
(0.136011 0.0963296 0)
(0.144912 0.0957413 0)
(0.153817 0.0949568 0)
(0.162681 0.0939551 0)
(0.171458 0.0927191 0)
(0.180101 0.0912358 0)
(0.188562 0.0894965 0)
(0.196799 0.0874968 0)
(-0.000667457 0.0161974 0)
(-0.00370618 0.0431004 0)
(-0.0089171 0.0638932 0)
(-0.0144626 0.0792647 0)
(-0.0194624 0.0902796 0)
(-0.0235123 0.0979389 0)
(-0.0264317 0.103065 0)
(-0.0281898 0.106296 0)
(-0.028844 0.10811 0)
(-0.0284939 0.108871 0)
(-0.0272548 0.108851 0)
(-0.0252421 0.10826 0)
(-0.0225635 0.107263 0)
(-0.0193146 0.105986 0)
(-0.0155775 0.104533 0)
(-0.0114206 0.102983 0)
(-0.00689897 0.101401 0)
(-0.00205622 0.0998374 0)
(0.00307471 0.0983314 0)
(0.00846973 0.096913 0)
(0.0141122 0.0956042 0)
(0.0199914 0.0944202 0)
(0.0261014 0.0933697 0)
(0.0324392 0.0924562 0)
(0.0390042 0.0916783 0)
(0.0457968 0.09103 0)
(0.0528171 0.0905013 0)
(0.0600644 0.0900785 0)
(0.0675363 0.0897445 0)
(0.0752275 0.0894795 0)
(0.08313 0.0892609 0)
(0.091232 0.0890645 0)
(0.0995175 0.0888644 0)
(0.107967 0.0886338 0)
(0.116556 0.0883459 0)
(0.125256 0.0879743 0)
(0.134036 0.0874933 0)
(0.14286 0.0868793 0)
(0.151689 0.0861106 0)
(0.160483 0.0851683 0)
(0.1692 0.0840365 0)
(0.177795 0.0827029 0)
(0.186225 0.0811585 0)
(0.194448 0.0793981 0)
(-0.000927204 0.0184498 0)
(-0.00494081 0.0480781 0)
(-0.0116058 0.0698833 0)
(-0.0184762 0.0850706 0)
(-0.024477 0.0952198 0)
(-0.0291928 0.101699 0)
(-0.0324862 0.105557 0)
(-0.0343869 0.107559 0)
(-0.0350113 0.108247 0)
(-0.0345089 0.108009 0)
(-0.033034 0.107121 0)
(-0.0307312 0.105787 0)
(-0.0277299 0.104157 0)
(-0.0241411 0.102344 0)
(-0.020058 0.100434 0)
(-0.0155568 0.0984932 0)
(-0.0106982 0.0965719 0)
(-0.00552974 0.0947091 0)
(-8.72444e-05 0.092934 0)
(0.00560297 0.0912679 0)
(0.0115225 0.0897261 0)
(0.0176593 0.0883181 0)
(0.0240059 0.0870487 0)
(0.0305587 0.0859185 0)
(0.0373159 0.0849245 0)
(0.0442773 0.0840602 0)
(0.0514424 0.0833158 0)
(0.0588104 0.082679 0)
(0.0663788 0.0821347 0)
(0.074143 0.0816655 0)
(0.0820957 0.0812523 0)
(0.0902264 0.0808741 0)
(0.0985211 0.080509 0)
(0.106962 0.0801342 0)
(0.115528 0.0797268 0)
(0.124193 0.079264 0)
(0.13293 0.0787239 0)
(0.141706 0.0780859 0)
(0.150487 0.0773308 0)
(0.159235 0.0764419 0)
(0.167912 0.0754048 0)
(0.176479 0.0742078 0)
(0.184894 0.0728421 0)
(0.19312 0.0713021 0)
(-0.0013251 0.0215003 0)
(-0.00668583 0.0545602 0)
(-0.0152153 0.0774079 0)
(-0.0236491 0.0921115 0)
(-0.0307118 0.101009 0)
(-0.0360342 0.105951 0)
(-0.0395738 0.108255 0)
(-0.0414567 0.108815 0)
(-0.041881 0.108226 0)
(-0.0410582 0.106888 0)
(-0.0391871 0.105068 0)
(-0.0364442 0.102951 0)
(-0.0329801 0.100669 0)
(-0.0289205 0.0983112 0)
(-0.0243683 0.095946 0)
(-0.0194063 0.0936213 0)
(-0.0140995 0.0913725 0)
(-0.0084983 0.0892252 0)
(-0.00264084 0.0871977 0)
(0.00344502 0.0853025 0)
(0.00973954 0.0835474 0)
(0.0162294 0.0819363 0)
(0.0229063 0.0804699 0)
(0.0297653 0.0791459 0)
(0.0368041 0.0779594 0)
(0.0440214 0.0769032 0)
(0.0514165 0.0759678 0)
(0.0589882 0.0751416 0)
(0.066734 0.0744114 0)
(0.0746497 0.0737619 0)
(0.0827288 0.0731768 0)
(0.090962 0.0726382 0)
(0.0993371 0.0721275 0)
(0.107838 0.0716256 0)
(0.116447 0.0711129 0)
(0.125142 0.0705701 0)
(0.133896 0.0699785 0)
(0.142683 0.0693204 0)
(0.15147 0.068579 0)
(0.160227 0.0677397 0)
(0.168917 0.0667895 0)
(0.177505 0.0657176 0)
(0.185954 0.0645156 0)
(0.194231 0.0631776 0)
(-0.0019657 0.0257227 0)
(-0.00923121 0.0630618 0)
(-0.0201472 0.0868169 0)
(-0.0303659 0.100517 0)
(-0.0384537 0.107607 0)
(-0.0441967 0.110555 0)
(-0.0477252 0.110968 0)
(-0.0493071 0.109855 0)
(-0.0492454 0.107838 0)
(-0.0478244 0.105306 0)
(-0.0452919 0.102499 0)
(-0.0418557 0.0995729 0)
(-0.0376873 0.096627 0)
(-0.0329254 0.0937267 0)
(-0.0276813 0.0909148 0)
(-0.0220429 0.0882196 0)
(-0.0160789 0.0856597 0)
(-0.0098421 0.0832466 0)
(-0.00337232 0.0809871 0)
(0.00330103 0.0788843 0)
(0.0101569 0.0769387 0)
(0.0171806 0.0751485 0)
(0.0243628 0.0735101 0)
(0.0316973 0.0720182 0)
(0.0391809 0.0706661 0)
(0.0468115 0.0694455 0)
(0.0545877 0.0683469 0)
(0.0625081 0.0673595 0)
(0.0705704 0.0664711 0)
(0.0787708 0.0656686 0)
(0.0871036 0.0649378 0)
(0.0955612 0.0642636 0)
(0.104133 0.0636302 0)
(0.112806 0.0630214 0)
(0.121564 0.062421 0)
(0.130389 0.0618125 0)
(0.139258 0.06118 0)
(0.148149 0.0605085 0)
(0.157033 0.0597835 0)
(0.165883 0.0589923 0)
(0.174669 0.0581231 0)
(0.18336 0.0571663 0)
(0.191922 0.0561139 0)
(0.200327 0.0549599 0)
(-0.00305161 0.0317403 0)
(-0.0130697 0.0743045 0)
(-0.0269923 0.098485 0)
(-0.0390954 0.110312 0)
(-0.0479401 0.114817 0)
(-0.0536623 0.1152 0)
(-0.0566725 0.11334 0)
(-0.0574306 0.110312 0)
(-0.0563672 0.106723 0)
(-0.0538481 0.102915 0)
(-0.0501719 0.0990817 0)
(-0.0455785 0.0953309 0)
(-0.0402589 0.0917234 0)
(-0.0343642 0.0882914 0)
(-0.0280133 0.0850505 0)
(-0.0212989 0.0820067 0)
(-0.014293 0.0791601 0)
(-0.00705074 0.0765078 0)
(0.00038623 0.0740444 0)
(0.00798694 0.0717637 0)
(0.0157289 0.0696588 0)
(0.0235964 0.0677219 0)
(0.0315785 0.0659452 0)
(0.0396684 0.0643203 0)
(0.0478618 0.0628382 0)
(0.0561563 0.0614897 0)
(0.0645502 0.0602648 0)
(0.0730423 0.0591529 0)
(0.0816307 0.0581429 0)
(0.0903127 0.057223 0)
(0.0990844 0.0563808 0)
(0.10794 0.0556034 0)
(0.116871 0.0548774 0)
(0.125868 0.0541891 0)
(0.134919 0.0535248 0)
(0.144008 0.0528709 0)
(0.153119 0.0522138 0)
(0.162231 0.0515407 0)
(0.171324 0.0508394 0)
(0.180374 0.0500987 0)
(0.189355 0.0493084 0)
(0.198243 0.0484596 0)
(0.207009 0.0475452 0)
(0.215628 0.0465592 0)
(-0.00498441 0.0406448 0)
(-0.01905 0.0892784 0)
(-0.0365784 0.112691 0)
(-0.0502614 0.121235 0)
(-0.0590556 0.122095 0)
(-0.0637696 0.119224 0)
(-0.0652282 0.114675 0)
(-0.0641367 0.109494 0)
(-0.0610762 0.104205 0)
(-0.0565039 0.0990624 0)
(-0.0507739 0.0941847 0)
(-0.0441593 0.0896182 0)
(-0.0368712 0.085374 0)
(-0.0290724 0.0814452 0)
(-0.0208884 0.0778163 0)
(-0.0124159 0.0744688 0)
(-0.00372859 0.0713834 0)
(0.00511734 0.0685415 0)
(0.01408 0.0659256 0)
(0.0231283 0.0635197 0)
(0.0322401 0.0613091 0)
(0.0414 0.0592803 0)
(0.0505976 0.0574208 0)
(0.0598268 0.0557189 0)
(0.0690841 0.0541633 0)
(0.0783682 0.0527432 0)
(0.0876789 0.0514479 0)
(0.0970166 0.0502667 0)
(0.106382 0.049189 0)
(0.115774 0.0482038 0)
(0.125192 0.0473001 0)
(0.134635 0.0464666 0)
(0.144097 0.0456918 0)
(0.153573 0.0449641 0)
(0.163055 0.044272 0)
(0.172533 0.0436039 0)
(0.181997 0.0429487 0)
(0.191431 0.0422954 0)
(0.20082 0.0416337 0)
(0.210146 0.0409539 0)
(0.219391 0.0402475 0)
(0.228534 0.0395064 0)
(0.237554 0.0387242 0)
(0.246431 0.0378954 0)
(-0.00857572 0.0544666 0)
(-0.0286323 0.109242 0)
(-0.0498629 0.129268 0)
(-0.0636249 0.132309 0)
(-0.0702515 0.128138 0)
(-0.071729 0.121226 0)
(-0.0694545 0.113566 0)
(-0.0644418 0.10603 0)
(-0.0574536 0.0989718 0)
(-0.049051 0.0925056 0)
(-0.0396445 0.086641 0)
(-0.0295356 0.0813432 0)
(-0.0189467 0.0765618 0)
(-0.00804292 0.0722434 0)
(0.0030535 0.0683373 0)
(0.0142522 0.0647977 0)
(0.0254869 0.0615843 0)
(0.0367095 0.0586622 0)
(0.047886 0.0560013 0)
(0.0589932 0.0535755 0)
(0.0700159 0.0513626 0)
(0.0809455 0.0493429 0)
(0.0917781 0.0474994 0)
(0.102513 0.0458169 0)
(0.113154 0.0442816 0)
(0.123703 0.0428811 0)
(0.134167 0.0416037 0)
(0.144552 0.0404384 0)
(0.154862 0.0393746 0)
(0.165104 0.038402 0)
(0.175281 0.0375105 0)
(0.185398 0.03669 0)
(0.195456 0.0359306 0)
(0.205456 0.0352225 0)
(0.215396 0.034556 0)
(0.225273 0.0339214 0)
(0.235082 0.0333095 0)
(0.244816 0.0327112 0)
(0.254465 0.0321181 0)
(0.264019 0.0315221 0)
(0.273466 0.030916 0)
(0.282792 0.030293 0)
(0.29198 0.0296474 0)
(0.301019 0.0289748 0)
(-0.0154715 0.0770499 0)
(-0.0441565 0.135267 0)
(-0.0667729 0.146626 0)
(-0.0755109 0.140784 0)
(-0.0745763 0.129844 0)
(-0.067844 0.118113 0)
(-0.0574124 0.107094 0)
(-0.0446309 0.0972434 0)
(-0.0304221 0.0886091 0)
(-0.0154013 0.0810888 0)
(2.49442e-05 0.074539 0)
(0.0155869 0.068819 0)
(0.0311044 0.0638036 0)
(0.0464581 0.0593861 0)
(0.0615698 0.0554774 0)
(0.0763903 0.0520035 0)
(0.0908909 0.0489035 0)
(0.105057 0.0461269 0)
(0.118884 0.043632 0)
(0.132375 0.041384 0)
(0.145539 0.039354 0)
(0.158386 0.0375175 0)
(0.17093 0.0358537 0)
(0.183189 0.0343449 0)
(0.195177 0.0329754 0)
(0.206914 0.0317317 0)
(0.218414 0.0306015 0)
(0.229696 0.0295737 0)
(0.240774 0.0286381 0)
(0.251664 0.0277851 0)
(0.26238 0.0270057 0)
(0.272932 0.026291 0)
(0.283332 0.0256327 0)
(0.293587 0.0250227 0)
(0.303705 0.024453 0)
(0.313689 0.023916 0)
(0.323543 0.0234042 0)
(0.333266 0.0229108 0)
(0.342856 0.0224289 0)
(0.352311 0.0219523 0)
(0.361624 0.0214753 0)
(0.370789 0.0209927 0)
(0.379795 0.0204998 0)
(0.388637 0.0199934 0)
(-0.028635 0.115163 0)
(-0.0672007 0.164545 0)
(-0.0777614 0.156374 0)
(-0.0660685 0.13723 0)
(-0.0455031 0.118598 0)
(-0.021441 0.102516 0)
(0.00396725 0.0891316 0)
(0.0295295 0.0781276 0)
(0.0545695 0.069068 0)
(0.0787445 0.0615538 0)
(0.101905 0.0552674 0)
(0.124004 0.049964 0)
(0.145049 0.0454532 0)
(0.165076 0.0415863 0)
(0.184134 0.0382467 0)
(0.202283 0.035343 0)
(0.219582 0.0328026 0)
(0.236089 0.0305679 0)
(0.251863 0.0285925 0)
(0.266958 0.0268389 0)
(0.281424 0.0252763 0)
(0.29531 0.0238798 0)
(0.308662 0.0226284 0)
(0.32152 0.0215046 0)
(0.333926 0.0204936 0)
(0.345914 0.0195827 0)
(0.357519 0.0187609 0)
(0.368773 0.0180185 0)
(0.379705 0.0173468 0)
(0.390339 0.0167378 0)
(0.400702 0.0161844 0)
(0.410813 0.0156798 0)
(0.420693 0.0152176 0)
(0.430357 0.0147919 0)
(0.439819 0.0143969 0)
(0.449092 0.0140272 0)
(0.458184 0.0136778 0)
(0.467102 0.0133437 0)
(0.47585 0.0130203 0)
(0.484431 0.0127036 0)
(0.492845 0.0123896 0)
(0.501091 0.0120749 0)
(0.509163 0.0117563 0)
(0.517062 0.0114318 0)
(-0.050177 0.199822 0)
(-0.0666091 0.177601 0)
(-0.0109209 0.128442 0)
(0.0480313 0.100259 0)
(0.101084 0.0806286 0)
(0.148604 0.0654239 0)
(0.19118 0.0537528 0)
(0.22926 0.0449005 0)
(0.26335 0.0381058 0)
(0.293992 0.0327769 0)
(0.321679 0.0285183 0)
(0.34683 0.0250661 0)
(0.36979 0.0222333 0)
(0.390848 0.0198826 0)
(0.410251 0.0179115 0)
(0.428202 0.0162435 0)
(0.444878 0.0148201 0)
(0.460425 0.0135965 0)
(0.474972 0.0125377 0)
(0.488626 0.0116162 0)
(0.501485 0.01081 0)
(0.513629 0.0101017 0)
(0.525132 0.00947694 0)
(0.536057 0.00892416 0)
(0.546463 0.0084337 0)
(0.556399 0.00799747 0)
(0.56591 0.00760862 0)
(0.575038 0.00726127 0)
(0.583818 0.00695026 0)
(0.592283 0.00667105 0)
(0.600461 0.00641956 0)
(0.608377 0.00619206 0)
(0.616055 0.00598516 0)
(0.623514 0.0057957 0)
(0.630769 0.00562075 0)
(0.637836 0.00545757 0)
(0.644726 0.00530363 0)
(0.651447 0.00515656 0)
(0.658007 0.00501419 0)
(0.664409 0.00487456 0)
(0.670657 0.00473586 0)
(0.676753 0.00459664 0)
(0.682692 0.00445533 0)
(0.688478 0.00431117 0)
(0.229446 0.139886 0)
(0.277743 0.112899 0)
(0.393103 0.0758552 0)
(0.48316 0.053142 0)
(0.545683 0.0387241 0)
(0.5921 0.028644 0)
(0.628768 0.021434 0)
(0.658507 0.0163075 0)
(0.682988 0.0126493 0)
(0.703462 0.00999997 0)
(0.720863 0.00804784 0)
(0.735863 0.0065868 0)
(0.748949 0.00547724 0)
(0.760485 0.00462234 0)
(0.77075 0.00395417 0)
(0.77996 0.00342472 0)
(0.788286 0.00299976 0)
(0.795864 0.00265455 0)
(0.802802 0.00237105 0)
(0.809192 0.0021359 0)
(0.815105 0.00193911 0)
(0.820606 0.00177313 0)
(0.825744 0.00163219 0)
(0.830565 0.00151181 0)
(0.835106 0.00140846 0)
(0.8394 0.00131934 0)
(0.843474 0.0012422 0)
(0.847354 0.00117516 0)
(0.851061 0.00111666 0)
(0.854613 0.00106539 0)
(0.858026 0.00102018 0)
(0.861314 0.000980046 0)
(0.864489 0.000944075 0)
(0.86756 0.000911464 0)
(0.870537 0.000881483 0)
(0.873426 0.000853468 0)
(0.876231 0.000826817 0)
(0.878957 0.000800991 0)
(0.881607 0.000775499 0)
(0.884182 0.000749934 0)
(0.886681 0.000723897 0)
(0.889107 0.000697143 0)
(0.891455 0.000669349 0)
(0.893726 0.000640377 0)
)
;

boundaryField
{
    movingWall
    {
        type            fixedValue;
        value           uniform (1 0 0);
    }