/*--------------------------------*- C++ -*----------------------------------*\
  =========                 |
  \\      /  F ield         | OpenFOAM: The Open Source CFD Toolbox
   \\    /   O peration     | Website:  https://openfoam.org
    \\  /    A nd           | Version:  9
     \\/     M anipulation  |
\*---------------------------------------------------------------------------*/
FoamFile
{
    format      ascii;
    class       surfaceScalarField;
    location    "1.75";
    object      phi;
}
// * * * * * * * * * * * * * * * * * * * * * * * * * * * * * * * * * * * * * //

dimensions      [0 3 -1 0 0 0 0];

internalField   nonuniform List<scalar> 
2446
(
-1.4656e-07
1.11843e-06
-1.55088e-07
1.00939e-06
-1.63954e-07
8.99099e-07
-1.73186e-07
7.87591e-07
-1.82807e-07
6.74918e-07
-1.9284e-07
5.61162e-07
-2.033e-07
4.46443e-07
-2.14199e-07
3.30895e-07
-2.25543e-07
2.14655e-07
-2.37336e-07
9.78632e-08
-2.49582e-07
-1.93366e-08
-2.62278e-07
-1.36804e-07
-2.75421e-07
-2.54404e-07
-2.89001e-07
-3.72009e-07
-3.03006e-07
-4.89499e-07
-3.17421e-07
-6.06767e-07
-3.32222e-07
-7.23713e-07
-3.47384e-07
-8.40245e-07
-3.62874e-07
-9.56278e-07
-3.7865e-07
-1.07173e-06
-3.94666e-07
-1.18651e-06
-4.10866e-07
-1.30054e-06
-4.27186e-07
-1.4137e-06
-4.43556e-07
-1.52588e-06
-4.59896e-07
-1.63694e-06
-1.74671e-06
-3.75987e-08
1.12586e-06
-4.54e-08
1.01719e-06
-5.36167e-08
9.07316e-07
-6.22845e-08
7.96259e-07
-7.14343e-08
6.84067e-07
-8.10945e-08
5.70822e-07
-9.12855e-08
4.56634e-07
-1.02021e-07
3.4163e-07
-1.1331e-07
2.25944e-07
-1.25161e-07
1.09714e-07
-1.37576e-07
-6.92172e-09
-1.50554e-07
-1.23826e-07
-1.64091e-07
-2.40867e-07
-1.78178e-07
-3.57922e-07
-1.92802e-07
-4.74875e-07
-2.07947e-07
-5.91623e-07
-2.23589e-07
-7.08071e-07
-2.39702e-07
-8.24132e-07
-2.56252e-07
-9.39727e-07
-2.732e-07
-1.05478e-06
-2.90499e-07
-1.16921e-06
-3.08094e-07
-1.28294e-06
-3.25924e-07
-1.39587e-06
-3.43919e-07
-1.50789e-06
-3.62e-07
-1.61886e-06
-1.72862e-06
7.18153e-08
1.13246e-06
6.4763e-08
1.02424e-06
5.72183e-08
9.1486e-07
4.91374e-08
8.0434e-07
4.04817e-08
6.92723e-07
3.12182e-08
5.80086e-07
2.13215e-08
4.66531e-07
1.07734e-08
3.52179e-07
-4.39183e-10
2.37157e-07
-1.23249e-08
1.216e-07
-2.48881e-08
5.64146e-09
-3.81285e-08
-1.10585e-07
-5.20416e-08
-2.26954e-07
-6.66184e-08
-3.43345e-07
-8.18457e-08
-4.59648e-07
-9.77054e-08
-5.75763e-07
-1.14175e-07
-6.91601e-07
-1.31226e-07
-8.07081e-07
-1.48827e-07
-9.22127e-07
-1.66936e-07
-1.03667e-06
-1.8551e-07
-1.15064e-06
-2.04494e-07
-1.26396e-06
-2.23828e-07
-1.37654e-06
-2.43444e-07
-1.48827e-06
-2.63267e-07
-1.59904e-06
-1.70867e-06
1.81558e-07
1.13824e-06
1.75272e-07
1.03053e-06
1.68419e-07
9.21714e-07
1.60945e-07
8.11813e-07
1.52806e-07
7.00862e-07
1.43963e-07
5.88929e-07
1.34385e-07
4.76109e-07
1.24049e-07
3.62515e-07
1.12938e-07
2.48267e-07
1.01042e-07
1.33496e-07
8.83553e-08
1.83286e-08
7.48763e-08
-9.71065e-08
6.06098e-08
-2.12687e-07
4.55649e-08
-3.283e-07
2.97553e-08
-4.43838e-07
1.31995e-08
-5.59207e-07
-4.07924e-09
-6.74322e-07
-2.20532e-08
-7.89107e-07
-4.06888e-08
-9.03492e-07
-5.9947e-08
-1.01741e-06
-7.97831e-08
-1.1308e-06
-1.00146e-07
-1.24359e-06
-1.20976e-07
-1.35571e-06
-1.4221e-07
-1.46704e-06
-1.63773e-07
-1.57747e-06
-1.68686e-06
2.91525e-07
1.14317e-06
2.86018e-07
1.03603e-06
2.79871e-07
9.27861e-07
2.73023e-07
8.18661e-07
2.65422e-07
7.08464e-07
2.57021e-07
5.9733e-07
2.47785e-07
4.85345e-07
2.37686e-07
3.72613e-07
2.26704e-07
2.5925e-07
2.14825e-07
1.45375e-07
2.0204e-07
3.11128e-08
1.8835e-07
-8.34156e-08
1.73756e-07
-1.98094e-07
1.58268e-07
-3.12812e-07
1.41901e-07
-4.27471e-07
1.24672e-07
-5.41978e-07
1.06605e-07
-6.56256e-07
8.77289e-08
-7.70231e-07
6.80766e-08
-8.83839e-07
4.76865e-08
-9.97022e-07
2.66025e-08
-1.10972e-06
4.87438e-09
-1.22187e-06
-1.74431e-08
-1.33339e-06
-4.02864e-08
-1.44419e-06
-6.35865e-08
-1.55417e-06
-1.66318e-06
4.01623e-07
1.14725e-06
3.96905e-07
1.04075e-06
3.91477e-07
9.33289e-07
3.8527e-07
8.24869e-07
3.78223e-07
7.15511e-07
3.70285e-07
6.05267e-07
3.61415e-07
4.94216e-07
3.51578e-07
3.8245e-07
3.40751e-07
2.70077e-07
3.28916e-07
1.5721e-07
3.16063e-07
4.39654e-08
3.02189e-07
-6.9542e-08
2.87297e-07
-1.83202e-07
2.71396e-07
-2.9691e-07
2.54498e-07
-4.10573e-07
2.36623e-07
-5.24103e-07
2.17794e-07
-6.37427e-07
1.9804e-07
-7.50476e-07
1.77393e-07
-8.63192e-07
1.55891e-07
-9.7552e-07
1.33576e-07
-1.0874e-06
1.10497e-07
-1.19879e-06
8.67068e-08
-1.3096e-06
6.22641e-08
-1.41975e-06
3.72344e-08
-1.52914e-06
-1.63763e-06
5.11779e-07
1.15049e-06
5.07853e-07
1.04468e-06
5.03152e-07
9.37991e-07
4.97596e-07
8.30424e-07
4.91119e-07
7.21987e-07
4.83663e-07
6.12724e-07
4.75179e-07
5.027e-07
4.65629e-07
3.92e-07
4.54983e-07
2.80723e-07
4.43221e-07
1.68972e-07
4.3033e-07
5.68563e-08
4.16305e-07
-5.55168e-08
4.01147e-07
-1.68044e-07
3.84863e-07
-2.80626e-07
3.67466e-07
-3.93176e-07
3.48976e-07
-5.05613e-07
3.29414e-07
-6.17865e-07
3.08809e-07
-7.29871e-07
2.87194e-07
-8.41577e-07
2.64604e-07
-9.5293e-07
2.41081e-07
-1.06388e-06
2.1667e-07
-1.17438e-06
1.91421e-07
-1.28435e-06
1.65391e-07
-1.39372e-06
1.3864e-07
-1.50239e-06
-1.61023e-06
6.21933e-07
1.15287e-06
6.18801e-07
1.04781e-06
6.1483e-07
9.41962e-07
6.09934e-07
8.35319e-07
6.04039e-07
7.27882e-07
5.9708e-07
6.19683e-07
5.89002e-07
5.10778e-07
5.79761e-07
4.01241e-07
5.69323e-07
2.91161e-07
5.57663e-07
1.80632e-07
5.44765e-07
6.97543e-08
5.30621e-07
-4.13726e-08
5.1523e-07
-1.52652e-07
4.98598e-07
-2.63994e-07
4.80737e-07
-3.75315e-07
4.61664e-07
-4.8654e-07
4.41403e-07
-5.97604e-07
4.19979e-07
-7.08448e-07
3.97425e-07
-8.19022e-07
3.73774e-07
-9.2928e-07
3.49067e-07
-1.03917e-06
3.23346e-07
-1.14865e-06
2.96658e-07
-1.25766e-06
2.69054e-07
-1.36612e-06
2.40591e-07
-1.47393e-06
-1.58097e-06
7.32049e-07
1.15441e-06
7.29708e-07
1.05015e-06
7.26467e-07
9.45203e-07
7.22235e-07
8.39551e-07
7.16931e-07
7.33186e-07
7.10482e-07
6.26132e-07
7.02827e-07
5.18432e-07
6.93917e-07
4.10151e-07
6.83712e-07
3.01366e-07
6.72182e-07
1.92162e-07
6.59308e-07
8.26285e-08
6.45078e-07
-2.71427e-08
6.29489e-07
-1.37064e-07
6.12545e-07
-2.47051e-07
5.94257e-07
-3.57026e-07
5.74639e-07
-4.66923e-07
5.53713e-07
-5.76678e-07
5.31505e-07
-6.8624e-07
5.08045e-07
-7.95561e-07
4.83364e-07
-9.04599e-07
4.575e-07
-1.01331e-06
4.30492e-07
-1.12165e-06
4.02384e-07
-1.22955e-06
3.73223e-07
-1.33696e-06
3.43059e-07
-1.44376e-06
-1.54986e-06
8.42109e-07
1.15512e-06
8.40552e-07
1.05171e-06
8.3804e-07
9.47716e-07
8.34474e-07
8.43117e-07
8.29766e-07
7.37894e-07
8.23837e-07
6.3206e-07
8.16621e-07
5.25649e-07
8.0806e-07
4.18712e-07
7.98111e-07
3.11315e-07
7.86739e-07
2.03534e-07
7.73919e-07
9.5448e-08
7.59637e-07
-1.28607e-08
7.43886e-07
-1.21313e-07
7.26668e-07
-2.29832e-07
7.0799e-07
-3.38348e-07
6.87865e-07
-4.46798e-07
6.66314e-07
-5.55126e-07
6.43358e-07
-6.63284e-07
6.19026e-07
-7.71229e-07
5.93347e-07
-8.7892e-07
5.66356e-07
-9.86318e-07
5.38087e-07
-1.09338e-06
5.08581e-07
-1.20005e-06
4.77878e-07
-1.30625e-06
4.46025e-07
-1.41191e-06
-1.5169e-06
9.52115e-07
1.155e-06
9.51337e-07
1.05248e-06
9.49549e-07
9.49504e-07
9.46648e-07
8.46018e-07
9.42539e-07
7.42003e-07
9.37138e-07
6.37461e-07
9.30372e-07
5.32415e-07
9.22178e-07
4.26906e-07
9.12506e-07
3.20987e-07
9.01317e-07
2.14723e-07
8.88582e-07
1.08183e-07
8.7428e-07
1.44091e-09
8.58403e-07
-1.05436e-07
8.40948e-07
-2.12377e-07
8.21919e-07
-3.19319e-07
8.01327e-07
-4.26206e-07
7.79188e-07
-5.32988e-07
7.55523e-07
-6.39619e-07
7.30355e-07
-7.46061e-07
7.03712e-07
-8.52277e-07
6.75623e-07
-9.58229e-07
6.4612e-07
-1.06388e-06
6.15237e-07
-1.16916e-06
5.8301e-07
-1.27403e-06
5.49478e-07
-1.37838e-06
-1.48211e-06
1.06209e-06
1.15405e-06
1.06208e-06
1.05249e-06
1.06101e-06
9.50571e-07
1.05878e-06
8.48256e-07
1.05527e-06
7.45511e-07
1.0504e-06
6.42329e-07
1.04409e-06
5.38721e-07
1.03628e-06
4.34718e-07
1.02691e-06
3.30362e-07
1.01592e-06
2.25705e-07
1.0033e-06
1.20807e-07
9.89012e-07
1.57293e-08
9.73043e-07
-8.94671e-08
9.55387e-07
-1.94721e-07
9.36045e-07
-2.99978e-07
9.15025e-07
-4.05186e-07
8.92338e-07
-5.103e-07
8.68001e-07
-6.15282e-07
8.42034e-07
-7.20094e-07
8.1446e-07
-8.24703e-07
7.85303e-07
-9.29073e-07
7.54591e-07
-1.03316e-06
7.22351e-07
-1.13692e-06
6.88615e-07
-1.24029e-06
6.53414e-07
-1.34318e-06
-1.44548e-06
1.17205e-06
1.15228e-06
1.17282e-06
1.05172e-06
1.17247e-06
9.5092e-07
1.1709e-06
8.49831e-07
1.16799e-06
7.48416e-07
1.16366e-06
6.46658e-07
1.15782e-06
5.44559e-07
1.15041e-06
4.42137e-07
1.14135e-06
3.39423e-07
1.13059e-06
2.36459e-07
1.11811e-06
1.33293e-07
1.10386e-06
2.99769e-08
1.08783e-06
-7.3438e-08
1.07001e-06
-1.769e-07
1.05039e-06
-2.8036e-07
1.02898e-06
-3.83774e-07
1.00578e-06
-4.87102e-07
9.80806e-07
-5.90309e-07
9.54074e-07
-6.93362e-07
9.256e-07
-7.9623e-07
8.95405e-07
-8.98877e-07
8.63507e-07
-1.00127e-06
8.2993e-07
-1.10335e-06
7.94697e-07
-1.20506e-06
7.57835e-07
-1.30632e-06
-1.40702e-06
1.28204e-06
1.14967e-06
1.28359e-06
1.05017e-06
1.28397e-06
9.50544e-07
1.28306e-06
8.50739e-07
1.28076e-06
7.50714e-07
1.27698e-06
6.50443e-07
1.27162e-06
5.49918e-07
1.2646e-06
4.49149e-07
1.25587e-06
3.48155e-07
1.24537e-06
2.46966e-07
1.23304e-06
1.45619e-07
1.21886e-06
4.4157e-08
1.2028e-06
-5.73784e-08
1.18484e-06
-1.58944e-07
1.16498e-06
-2.60499e-07
1.14321e-06
-3.62004e-07
1.11954e-06
-4.63427e-07
1.09396e-06
-5.64734e-07
1.0665e-06
-6.65897e-07
1.03715e-06
-7.66885e-07
1.00594e-06
-8.67667e-07
9.72881e-07
-9.68203e-07
9.37983e-07
-1.06845e-06
9.01263e-07
-1.16834e-06
8.62742e-07
-1.2678e-06
-1.36671e-06
1.3921e-06
1.1462e-06
1.39445e-06
1.04782e-06
1.39556e-06
9.49432e-07
1.39533e-06
8.50972e-07
1.39364e-06
7.52397e-07
1.39041e-06
6.53675e-07
1.38554e-06
5.54792e-07
1.37894e-06
4.55744e-07
1.37055e-06
3.56543e-07
1.36031e-06
2.57208e-07
1.34817e-06
1.57765e-07
1.33408e-06
5.82465e-08
1.31801e-06
-4.13139e-08
1.29995e-06
-1.40882e-07
1.27988e-06
-2.40424e-07
1.25778e-06
-3.39908e-07
1.23366e-06
-4.39304e-07
1.20751e-06
-5.38585e-07
1.17933e-06
-6.37724e-07
1.14914e-06
-7.36694e-07
1.11694e-06
-8.35462e-07
1.08273e-06
-9.33993e-07
1.04652e-06
-1.03224e-06
1.00832e-06
-1.13014e-06
9.68139e-07
-1.22762e-06
-1.32457e-06
1.50223e-06
1.14181e-06
1.50541e-06
1.04464e-06
1.50728e-06
9.47559e-07
1.50775e-06
8.5051e-07
1.50669e-06
7.5345e-07
1.50403e-06
6.56342e-07
1.49965e-06
5.59166e-07
1.49349e-06
4.61909e-07
1.48546e-06
3.64573e-07
1.47549e-06
2.67169e-07
1.46355e-06
1.69712e-07
1.44957e-06
7.22253e-08
1.43352e-06
-2.52663e-08
1.41538e-06
-1.22737e-07
1.39511e-06
-2.20159e-07
1.37271e-06
-3.17508e-07
1.34817e-06
-4.14758e-07
1.32147e-06
-5.11885e-07
1.29261e-06
-6.08866e-07
1.26159e-06
-7.05674e-07
1.2284e-06
-8.02278e-07
1.19306e-06
-8.98644e-07
1.15554e-06
-9.94724e-07
1.11586e-06
-1.09046e-06
1.07402e-06
-1.18577e-06
1.03002e-06
-1.28057e-06
9.83868e-07
-1.37473e-06
9.3559e-07
-1.46811e-06
-1.56055e-06
1.61242e-06
1.13646e-06
1.61648e-06
1.04058e-06
1.61916e-06
9.44883e-07
1.62035e-06
8.4932e-07
1.61995e-06
7.53847e-07
1.61787e-06
6.58423e-07
1.61402e-06
5.63022e-07
1.6083e-06
4.67627e-07
1.60064e-06
3.7223e-07
1.59098e-06
2.76833e-07
1.57925e-06
1.81444e-07
1.56539e-06
8.6076e-08
1.54938e-06
-9.25354e-09
1.53117e-06
-1.04528e-07
1.51074e-06
-1.99724e-07
1.48805e-06
-2.94824e-07
1.4631e-06
-3.89807e-07
1.43587e-06
-4.84651e-07
1.40634e-06
-5.79336e-07
1.3745e-06
-6.73836e-07
1.34035e-06
-7.68124e-07
1.30386e-06
-8.62162e-07
1.26504e-06
-9.55905e-07
1.22388e-06
-1.04929e-06
1.18036e-06
-1.14226e-06
1.13449e-06
-1.2347e-06
1.08627e-06
-1.3265e-06
1.0357e-06
-1.41754e-06
-1.50766e-06
1.72262e-06
1.13004e-06
1.72764e-06
1.03556e-06
1.73117e-06
9.41345e-07
1.73314e-06
8.47356e-07
1.73344e-06
7.53549e-07
1.73197e-06
6.59885e-07
1.72866e-06
5.66335e-07
1.72341e-06
4.72876e-07
1.71615e-06
3.79494e-07
1.7068e-06
2.86184e-07
1.6953e-06
1.92945e-07
1.68159e-06
9.97834e-08
1.66563e-06
6.70917e-09
1.64737e-06
-8.62682e-08
1.62678e-06
-1.79132e-07
1.60382e-06
-2.71869e-07
1.57847e-06
-3.64461e-07
1.55071e-06
-4.56892e-07
1.52052e-06
-5.49142e-07
1.48787e-06
-6.41187e-07
1.45275e-06
-7.33e-07
1.41513e-06
-8.24544e-07
1.375e-06
-9.15775e-07
1.33234e-06
-1.00664e-06
1.28714e-06
-1.09705e-06
1.23938e-06
-1.18694e-06
1.18906e-06
-1.27618e-06
1.13618e-06
-1.36467e-06
-1.45225e-06
1.83269e-06
1.12244e-06
1.83876e-06
1.02949e-06
1.84324e-06
9.36864e-07
1.84605e-06
8.44548e-07
1.8471e-06
7.525e-07
1.8463e-06
6.60683e-07
1.84357e-06
5.69067e-07
1.83882e-06
4.77625e-07
1.83197e-06
3.8634e-07
1.82296e-06
2.95199e-07
1.81171e-06
2.04197e-07
1.79816e-06
1.13333e-07
1.78226e-06
2.26089e-08
1.76396e-06
-6.79691e-08
1.74322e-06
-1.58392e-07
1.72e-06
-2.48648e-07
1.69426e-06
-3.38726e-07
1.66598e-06
-4.28611e-07
1.63512e-06
-5.18284e-07
1.60166e-06
-6.07723e-07
1.56556e-06
-6.96901e-07
1.5268e-06
-7.85782e-07
1.48535e-06
-8.74323e-07
1.44118e-06
-9.62467e-07
1.39427e-06
-1.05014e-06
1.3446e-06
-1.13727e-06
1.29217e-06
-1.22374e-06
1.23695e-06
-1.30946e-06
-1.39428e-06
1.94243e-06
1.11353e-06
1.94968e-06
1.02223e-06
1.95521e-06
9.31332e-07
1.95896e-06
8.40806e-07
1.96083e-06
7.50624e-07
1.96076e-06
6.60754e-07
1.95866e-06
5.71166e-07
1.95445e-06
4.81833e-07
1.94806e-06
3.92734e-07
1.93941e-06
3.03853e-07
1.92842e-06
2.1518e-07
1.91505e-06
1.26707e-07
1.89922e-06
3.84339e-08
1.88089e-06
-4.96396e-08
1.86001e-06
-1.37509e-07
1.83653e-06
-2.25167e-07
1.81041e-06
-3.12603e-07
1.7816e-06
-3.99805e-07
1.75008e-06
-4.86757e-07
1.71579e-06
-5.73437e-07
1.67871e-06
-6.59817e-07
1.63879e-06
-7.45865e-07
1.596e-06
-8.31534e-07
1.55031e-06
-9.16772e-07
1.50167e-06
-1.00151e-06
1.45008e-06
-1.08567e-06
1.3955e-06
-1.16917e-06
1.33793e-06
-1.25189e-06
-1.33373e-06
2.05154e-06
1.10312e-06
2.06013e-06
1.01365e-06
2.06685e-06
9.24616e-07
2.07164e-06
8.36016e-07
2.07443e-06
7.47825e-07
2.07517e-06
6.60017e-07
2.07377e-06
5.72565e-07
2.07016e-06
4.85444e-07
2.06426e-06
3.98631e-07
2.05601e-06
3.1211e-07
2.04532e-06
2.25865e-07
2.03214e-06
1.39887e-07
2.01641e-06
5.41697e-08
1.99806e-06
-3.12887e-08
1.97704e-06
-1.16489e-07
1.95329e-06
-2.01424e-07
1.92678e-06
-2.86088e-07
1.89744e-06
-3.7047e-07
1.86524e-06
-4.54553e-07
1.83012e-06
-5.38318e-07
1.79204e-06
-6.21737e-07
1.75095e-06
-7.04776e-07
1.70681e-06
-7.87393e-07
1.65957e-06
-8.69536e-07
1.6092e-06
-9.51141e-07
1.55566e-06
-1.03214e-06
1.49893e-06
-1.11244e-06
1.439e-06
-1.19195e-06
-1.27059e-06
2.15963e-06
1.09101e-06
2.16973e-06
1.00355e-06
2.17778e-06
9.1656e-07
2.18376e-06
8.3004e-07
2.1876e-06
7.43983e-07
2.18925e-06
6.5837e-07
2.18864e-06
5.73179e-07
2.18569e-06
4.88387e-07
2.18035e-06
4.03975e-07
2.17254e-06
3.19923e-07
2.16218e-06
2.36217e-07
2.14923e-06
1.52844e-07
2.1336e-06
6.97969e-08
2.11524e-06
-1.29285e-08
2.09409e-06
-9.53371e-08
2.07009e-06
-1.77422e-07
2.04318e-06
-2.5918e-07
2.0133e-06
-3.40598e-07
1.98041e-06
-4.21663e-07
1.94445e-06
-5.02355e-07
1.90536e-06
-5.82646e-07
1.86309e-06
-6.62504e-07
1.81758e-06
-7.41887e-07
1.76879e-06
-8.20745e-07
1.71667e-06
-8.9902e-07
1.66118e-06
-9.76645e-07
1.60229e-06
-1.05355e-06
1.53999e-06
-1.12965e-06
-1.20488e-06
2.26618e-06
1.07699e-06
2.27799e-06
9.91749e-07
2.28756e-06
9.06982e-07
2.29488e-06
8.22719e-07
2.29991e-06
7.38958e-07
2.30259e-06
6.55691e-07
2.30286e-06
5.72902e-07
2.30068e-06
4.90574e-07
2.29596e-06
4.0869e-07
2.28865e-06
3.27233e-07
2.27868e-06
2.46188e-07
2.26598e-06
1.65543e-07
2.25049e-06
8.52886e-08
2.23214e-06
5.42204e-09
2.21087e-06
-7.4066e-08
2.18661e-06
-1.53167e-07
2.15931e-06
-2.31877e-07
2.1289e-06
-3.10187e-07
2.09532e-06
-3.88082e-07
2.0585e-06
-4.65541e-07
2.0184e-06
-5.42538e-07
1.97493e-06
-6.19041e-07
1.92806e-06
-6.9501e-07
1.87771e-06
-7.70397e-07
1.82384e-06
-8.4515e-07
1.7664e-06
-9.1921e-07
1.70537e-06
-9.92515e-07
1.64073e-06
-1.065e-06
-1.13663e-06
2.37056e-06
1.06082e-06
2.38429e-06
9.78014e-07
2.39559e-06
8.95684e-07
2.40444e-06
8.13871e-07
2.41081e-06
7.32589e-07
2.41466e-06
6.51838e-07
2.41595e-06
5.71612e-07
2.41462e-06
4.919e-07
2.41062e-06
4.12689e-07
2.40389e-06
3.33966e-07
2.39436e-06
2.55718e-07
2.38197e-06
1.77935e-07
2.36665e-06
1.00608e-07
2.34834e-06
2.37325e-08
2.32697e-06
-5.26953e-08
2.30247e-06
-1.28672e-07
2.27479e-06
-2.04191e-07
2.24384e-06
-2.79243e-07
2.20957e-06
-3.53812e-07
2.17191e-06
-4.27878e-07
2.13079e-06
-5.01415e-07
2.08614e-06
-5.74391e-07
2.0379e-06
-6.46769e-07
1.986e-06
-7.18505e-07
1.93041e-06
-7.89552e-07
1.87106e-06
-8.5986e-07
1.80792e-06
-9.2938e-07
1.74099e-06
-9.98069e-07
-1.0659e-06
2.47202e-06
1.04225e-06
2.48792e-06
9.62119e-07
2.50115e-06
8.8245e-07
2.51172e-06
8.03302e-07
2.51961e-06
7.24698e-07
2.5248e-06
6.46653e-07
2.52724e-06
5.69168e-07
2.5269e-06
4.9224e-07
2.52372e-06
4.15864e-07
2.51766e-06
3.4003e-07
2.50865e-06
2.6473e-07
2.49663e-06
1.89956e-07
2.48153e-06
1.15701e-07
2.4633e-06
4.19631e-08
2.44187e-06
-3.12591e-08
2.41716e-06
-1.03964e-07
2.38911e-06
-1.76142e-07
2.35765e-06
-2.47783e-07
2.32271e-06
-3.1887e-07
2.28421e-06
-3.89383e-07
2.24209e-06
-4.59296e-07
2.19628e-06
-5.28578e-07
2.1467e-06
-5.97195e-07
2.09331e-06
-6.65107e-07
2.03603e-06
-7.32273e-07
1.97482e-06
-7.98655e-07
1.90966e-06
-8.64218e-07
1.84053e-06
-9.28937e-07
-9.9281e-07
2.56974e-06
1.02104e-06
2.58803e-06
9.43829e-07
2.60342e-06
8.67061e-07
2.61592e-06
7.90804e-07
2.62552e-06
7.15097e-07
2.63221e-06
6.39962e-07
2.63597e-06
5.65414e-07
2.63675e-06
4.91458e-07
2.63452e-06
4.18094e-07
2.62923e-06
3.4532e-07
2.62083e-06
2.73132e-07
2.60926e-06
2.01526e-07
2.59446e-06
1.30501e-07
2.57637e-06
6.00547e-08
2.55492e-06
-9.80748e-09
2.53004e-06
-7.90881e-08
2.50167e-06
-1.4777e-07
2.46973e-06
-2.15844e-07
2.43415e-06
-2.83293e-07
2.39486e-06
-3.50094e-07
2.35179e-06
-4.16223e-07
2.30486e-06
-4.81651e-07
2.25402e-06
-5.46345e-07
2.19918e-06
-6.10272e-07
2.14031e-06
-6.734e-07
2.07735e-06
-7.357e-07
2.01029e-06
-7.97153e-07
1.93911e-06
-8.57757e-07
-9.17536e-07
2.66281e-06
9.96948e-07
2.68373e-06
9.22915e-07
2.70149e-06
8.49297e-07
2.71612e-06
7.76171e-07
2.72763e-06
7.0359e-07
2.73601e-06
6.31586e-07
2.74123e-06
5.60185e-07
2.74329e-06
4.894e-07
2.74215e-06
4.19241e-07
2.73775e-06
3.49711e-07
2.73007e-06
2.80813e-07
2.71905e-06
2.12548e-07
2.70463e-06
1.44919e-07
2.68676e-06
7.79295e-08
2.66536e-06
1.15861e-08
2.64038e-06
-5.41094e-08
2.61175e-06
-1.1914e-07
2.5794e-06
-1.83491e-07
2.54325e-06
-2.47146e-07
2.50324e-06
-3.10082e-07
2.45929e-06
-3.72275e-07
2.41134e-06
-4.33698e-07
2.35932e-06
-4.94322e-07
2.30317e-06
-5.54121e-07
2.24284e-06
-6.13071e-07
2.17829e-06
-6.71157e-07
2.10952e-06
-7.28378e-07
2.03651e-06
-7.84752e-07
-8.40332e-07
2.75027e-06
9.6976e-07
2.77403e-06
8.99165e-07
2.79437e-06
8.28949e-07
2.81134e-06
7.59202e-07
2.82495e-06
6.89985e-07
2.83519e-06
6.21343e-07
2.84207e-06
5.5331e-07
2.84556e-06
4.85909e-07
2.84564e-06
4.19158e-07
2.84228e-06
3.53068e-07
2.83545e-06
2.87648e-07
2.82509e-06
2.22906e-07
2.81116e-06
1.5885e-07
2.7936e-06
9.54861e-08
2.77236e-06
3.28258e-08
2.74737e-06
-2.9121e-08
2.71858e-06
-9.03434e-08
2.68591e-06
-1.50819e-07
2.64929e-06
-2.10531e-07
2.60867e-06
-2.69457e-07
2.56396e-06
-3.27574e-07
2.51512e-06
-3.84857e-07
2.46209e-06
-4.41284e-07
2.4048e-06
-4.96834e-07
2.34322e-06
-5.51496e-07
2.27733e-06
-6.05268e-07
2.20712e-06
-6.58167e-07
2.13261e-06
-7.10237e-07
-7.61558e-07
2.83117e-06
9.39292e-07
2.85794e-06
8.7239e-07
2.88106e-06
8.0583e-07
2.90055e-06
7.3971e-07
2.91644e-06
6.741e-07
2.92872e-06
6.09055e-07
2.93742e-06
5.44618e-07
2.9425e-06
4.80821e-07
2.94397e-06
4.1769e-07
2.9418e-06
3.55243e-07
2.93595e-06
2.93497e-07
2.92639e-06
2.32466e-07
2.91308e-06
1.72162e-07
2.89596e-06
1.12597e-07
2.875e-06
5.37858e-08
2.85013e-06
-4.25022e-09
2.8213e-06
-6.15146e-08
2.78845e-06
-1.17968e-07
2.75152e-06
-1.73599e-07
2.71045e-06
-2.28384e-07
2.66518e-06
-2.82304e-07
2.61566e-06
-3.35336e-07
2.56184e-06
-3.87465e-07
2.50368e-06
-4.38679e-07
2.44117e-06
-4.88978e-07
2.37427e-06
-5.38377e-07
2.30302e-06
-5.86911e-07
2.22743e-06
-6.34648e-07
-6.81698e-07
2.90455e-06
9.05401e-07
2.9345e-06
8.42437e-07
2.96055e-06
7.7978e-07
2.98273e-06
7.17532e-07
3.00106e-06
6.55771e-07
3.01555e-06
5.94559e-07
3.02623e-06
5.33947e-07
3.03307e-06
4.73975e-07
3.03608e-06
4.14677e-07
3.03525e-06
3.56079e-07
3.03054e-06
2.98204e-07
3.02194e-06
2.41071e-07
3.0094e-06
1.84699e-07
2.99289e-06
1.29104e-07
2.97237e-06
7.43052e-08
2.9478e-06
2.03216e-08
2.91912e-06
-3.28333e-08
2.88629e-06
-8.51369e-08
2.84926e-06
-1.36567e-07
2.80798e-06
-1.87105e-07
2.76241e-06
-2.36733e-07
2.71251e-06
-2.85436e-07
2.65824e-06
-3.33204e-07
2.5996e-06
-3.80036e-07
2.53657e-06
-4.25944e-07
2.46915e-06
-4.70959e-07
2.39738e-06
-5.15138e-07
2.3213e-06
-5.58571e-07
-6.01396e-07
2.96956e-06
8.67988e-07
3.0028e-06
8.09195e-07
3.0319e-06
7.50676e-07
3.0569e-06
6.92534e-07
3.07782e-06
6.34854e-07
3.09467e-06
5.77703e-07
3.10748e-06
5.2114e-07
3.11624e-06
4.65211e-07
3.12097e-06
4.09955e-07
3.12164e-06
3.55407e-07
3.11825e-06
3.01593e-07
3.11078e-06
2.48539e-07
3.09921e-06
1.96269e-07
3.08351e-06
1.44803e-07
3.06366e-06
9.41619e-08
3.03961e-06
4.43665e-08
3.01134e-06
-4.55897e-09
2.97881e-06
-5.26082e-08
2.94199e-06
-9.97474e-08
2.90085e-06
-1.45965e-07
2.85536e-06
-1.91248e-07
2.80551e-06
-2.35585e-07
2.75129e-06
-2.78977e-07
2.69268e-06
-3.21433e-07
2.62972e-06
-3.62979e-07
2.56242e-06
-4.03662e-07
2.49084e-06
-4.43557e-07
2.41505e-06
-4.82776e-07
-5.21484e-07
3.02545e-06
8.27003e-07
3.06205e-06
7.72594e-07
3.0943e-06
7.18428e-07
3.12222e-06
6.64611e-07
3.14585e-06
6.11228e-07
3.1652e-06
5.58353e-07
3.18029e-06
5.06047e-07
3.19114e-06
4.54363e-07
3.19775e-06
4.03344e-07
3.20013e-06
3.5303e-07
3.19827e-06
3.03452e-07
3.19217e-06
2.5464e-07
3.18181e-06
2.06621e-07
3.1672e-06
1.59419e-07
3.1483e-06
1.13057e-07
3.12511e-06
6.75556e-08
3.09762e-06
2.29371e-08
3.06579e-06
-2.07836e-08
3.02963e-06
-6.3587e-08
2.98913e-06
-1.05459e-07
2.94427e-06
-1.46393e-07
2.89507e-06
-1.86387e-07
2.84154e-06
-2.25447e-07
2.78371e-06
-2.63597e-07
2.7216e-06
-3.00873e-07
2.65528e-06
-3.37339e-07
2.58481e-06
-3.73087e-07
2.51028e-06
-4.08249e-07
-4.43008e-07
3.07169e-06
7.82434e-07
3.11169e-06
7.32594e-07
3.14714e-06
6.82971e-07
3.17808e-06
6.3367e-07
3.20453e-06
5.84777e-07
3.22652e-06
5.36366e-07
3.24407e-06
4.88501e-07
3.25719e-06
4.41237e-07
3.26591e-06
3.94623e-07
3.27025e-06
3.48698e-07
3.2702e-06
3.035e-07
3.26578e-06
2.59059e-07
3.257e-06
2.15405e-07
3.24385e-06
1.72563e-07
3.22635e-06
1.30557e-07
3.2045e-06
8.94071e-08
3.1783e-06
4.91336e-08
3.14777e-06
9.75244e-09
3.11291e-06
-2.87244e-08
3.07373e-06
-6.62867e-08
3.03027e-06
-1.02933e-07
2.98255e-06
-1.38668e-07
2.93062e-06
-1.7351e-07
2.87451e-06
-2.0749e-07
2.8143e-06
-2.40659e-07
2.75005e-06
-2.73091e-07
2.68185e-06
-3.04894e-07
2.60982e-06
-3.36212e-07
-3.67246e-07
3.10813e-06
7.34276e-07
3.15157e-06
6.89155e-07
3.19032e-06
6.44229e-07
3.22439e-06
5.99598e-07
3.25382e-06
5.55347e-07
3.27864e-06
5.11548e-07
3.29887e-06
4.68266e-07
3.31455e-06
4.25556e-07
3.32571e-06
3.83468e-07
3.33236e-06
3.42043e-07
3.33454e-06
3.01319e-07
3.33227e-06
2.61328e-07
3.32558e-06
2.22098e-07
3.31449e-06
1.83656e-07
3.29902e-06
1.46024e-07
3.27921e-06
1.09222e-07
3.25507e-06
7.32658e-08
3.22666e-06
3.81693e-08
3.19399e-06
3.94072e-09
3.15712e-06
-2.94165e-08
3.1161e-06
-6.19053e-08
3.07097e-06
-9.35393e-08
3.0218e-06
-1.24343e-07
2.96867e-06
-1.54358e-07
2.91165e-06
-1.83642e-07
2.85084e-06
-2.12281e-07
2.78634e-06
-2.4039e-07
2.71825e-06
-2.68126e-07
-2.95693e-07
3.13556e-06
6.82461e-07
3.18256e-06
6.42158e-07
3.22475e-06
6.02031e-07
3.26218e-06
5.62171e-07
3.29487e-06
5.22658e-07
3.32286e-06
4.83562e-07
3.34617e-06
4.44946e-07
3.36487e-06
4.06863e-07
3.37898e-06
3.6936e-07
3.38854e-06
3.32479e-07
3.3936e-06
2.96257e-07
3.39421e-06
2.60724e-07
3.3904e-06
2.25909e-07
3.38222e-06
1.91835e-07
3.36972e-06
1.58523e-07
3.35295e-06
1.25991e-07
3.33196e-06
9.42521e-08
3.30681e-06
6.33152e-08
3.27757e-06
3.31853e-08
3.24429e-06
3.85894e-09
3.20706e-06
-2.46689e-08
3.16594e-06
-5.24194e-08
3.12102e-06
-7.9423e-08
3.07239e-06
-1.05726e-07
3.02014e-06
-1.31393e-07
2.96437e-06
-1.56516e-07
2.90519e-06
-1.81213e-07
2.84271e-06
-2.05642e-07
-2.30012e-07
3.15685e-06
6.26727e-07
3.20773e-06
5.91277e-07
3.25378e-06
5.5598e-07
3.29503e-06
5.20921e-07
3.33152e-06
4.8617e-07
3.36329e-06
4.51793e-07
3.39039e-06
4.17848e-07
3.41287e-06
3.84386e-07
3.43078e-06
3.5145e-07
3.44418e-06
3.19079e-07
3.45313e-06
2.87308e-07
3.45768e-06
2.56165e-07
3.45792e-06
2.25677e-07
3.45389e-06
1.95864e-07
3.44566e-06
1.66746e-07
3.43332e-06
1.38337e-07
3.41692e-06
1.10646e-07
3.39656e-06
8.36813e-08
3.3723e-06
5.74428e-08
3.34423e-06
3.19254e-08
3.31245e-06
7.11395e-09
3.27704e-06
-1.70074e-08
3.23809e-06
-4.04772e-08
3.19571e-06
-6.3343e-08
3.14999e-06
-8.5673e-08
3.10103e-06
-1.07557e-07
3.04893e-06
-1.29115e-07
2.99379e-06
-1.505e-07
-1.71915e-07
3.1797e-06
5.66446e-07
3.23518e-06
5.35805e-07
3.28587e-06
5.0529e-07
3.33181e-06
4.74977e-07
3.37305e-06
4.44929e-07
3.40964e-06
4.15204e-07
3.44164e-06
3.85854e-07
3.4691e-06
3.56925e-07
3.49209e-06
3.28457e-07
3.51068e-06
3.00486e-07
3.52495e-06
2.73042e-07
3.53496e-06
2.46152e-07
3.5408e-06
2.19838e-07
3.54254e-06
1.94121e-07
3.54027e-06
1.69016e-07
3.53408e-06
1.44535e-07
3.52404e-06
1.20686e-07
3.51024e-06
9.74731e-08
3.49279e-06
7.48954e-08
3.47177e-06
5.29457e-08
3.44728e-06
3.16092e-08
3.41941e-06
1.08614e-08
3.38826e-06
-9.33015e-09
3.35393e-06
-2.90109e-08
3.3165e-06
-4.82496e-08
3.27608e-06
-6.71343e-08
3.23274e-06
-8.57776e-08
3.18657e-06
-1.04323e-07
-1.22961e-07
3.22145e-06
5.00508e-07
3.28271e-06
4.7455e-07
3.33931e-06
4.48692e-07
3.39129e-06
4.22997e-07
3.4387e-06
3.97519e-07
3.48159e-06
3.7231e-07
3.52003e-06
3.47414e-07
3.55408e-06
3.22872e-07
3.58382e-06
2.98719e-07
3.60932e-06
2.74988e-07
3.63066e-06
2.51705e-07
3.64792e-06
2.28895e-07
3.66118e-06
2.06577e-07
3.67053e-06
1.8477e-07
3.67606e-06
1.63487e-07
3.67785e-06
1.42738e-07
3.67601e-06
1.22531e-07
3.67061e-06
1.02867e-07
3.66176e-06
8.37451e-08
3.64955e-06
6.51577e-08
3.63407e-06
4.70906e-08
3.61541e-06
2.95213e-08
3.59366e-06
1.24169e-08
3.56893e-06
-4.2731e-09
3.54127e-06
-2.05893e-08
3.51076e-06
-3.66331e-08
3.47749e-06
-5.25014e-08
3.44149e-06
-6.83242e-08
-8.42738e-08
3.31627e-06
4.27466e-07
3.3848e-06
4.06021e-07
3.44884e-06
3.84651e-07
3.50843e-06
3.63407e-07
3.56361e-06
3.42335e-07
3.61444e-06
3.21478e-07
3.66098e-06
3.00875e-07
3.70329e-06
2.80561e-07
3.74145e-06
2.60566e-07
3.77551e-06
2.40919e-07
3.80558e-06
2.21643e-07
3.83171e-06
2.0276e-07
3.854e-06
1.84288e-07
3.87253e-06
1.66242e-07
3.88738e-06
1.48635e-07
3.89864e-06
1.31475e-07
3.9064e-06
1.14769e-07
3.91075e-06
9.85182e-08
3.91178e-06
8.27216e-08
3.90956e-06
6.73717e-08
3.9042e-06
5.2456e-08
3.89576e-06
3.79543e-08
3.88434e-06
2.38381e-08
3.87e-06
1.0065e-08
3.85283e-06
-3.41799e-09
3.83287e-06
-1.6674e-08
3.81018e-06
-2.98078e-08
3.78478e-06
-4.29258e-08
-5.61804e-08
3.52278e-06
3.46278e-07
3.59962e-06
3.29182e-07
3.67213e-06
3.12143e-07
3.74033e-06
2.95203e-07
3.80427e-06
2.78397e-07
3.86398e-06
2.61762e-07
3.91953e-06
2.45329e-07
3.97096e-06
2.29128e-07
4.01834e-06
2.13185e-07
4.06174e-06
1.97524e-07
4.10122e-06
1.82164e-07
4.13685e-06
1.67125e-07
4.16872e-06
1.52421e-07
4.1969e-06
1.38066e-07
4.22146e-06
1.24071e-07
4.24249e-06
1.10443e-07
4.26007e-06
9.71881e-08
4.27429e-06
8.4307e-08
4.28521e-06
7.17987e-08
4.29292e-06
5.96565e-08
4.29751e-06
4.78695e-08
4.29904e-06
3.64207e-08
4.29759e-06
2.52872e-08
4.29323e-06
1.44312e-08
4.286e-06
3.80656e-09
4.27598e-06
-6.64642e-09
4.26317e-06
-1.70061e-08
4.24761e-06
-2.73648e-08
-3.78523e-08
3.92712e-06
2.57784e-07
4.01138e-06
2.44925e-07
4.0914e-06
2.32116e-07
4.16722e-06
2.19388e-07
4.23884e-06
2.0677e-07
4.30632e-06
1.94289e-07
4.36968e-06
1.81969e-07
4.42897e-06
1.69833e-07
4.48425e-06
1.57904e-07
4.53558e-06
1.46198e-07
4.58301e-06
1.34732e-07
4.62662e-06
1.23522e-07
4.66646e-06
1.12578e-07
4.70261e-06
1.01912e-07
4.73515e-06
9.15319e-08
4.76415e-06
8.14431e-08
4.78969e-06
7.16495e-08
4.81185e-06
6.21515e-08
4.8307e-06
5.2948e-08
4.84632e-06
4.40328e-08
4.85879e-06
3.53974e-08
4.86819e-06
2.70277e-08
4.87457e-06
1.89047e-08
4.878e-06
1.0997e-08
4.87854e-06
3.27146e-09
4.87623e-06
-4.34397e-09
4.87111e-06
-1.18853e-08
4.86318e-06
-1.94307e-08
-2.70891e-08
4.63342e-06
1.66672e-07
4.72038e-06
1.57965e-07
4.80319e-06
1.49307e-07
4.88186e-06
1.4072e-07
4.95641e-06
1.32224e-07
5.02686e-06
1.23837e-07
5.09325e-06
1.15576e-07
5.15563e-06
1.07458e-07
5.21403e-06
9.94975e-08
5.26852e-06
9.17065e-08
5.31916e-06
8.40964e-08
5.366e-06
7.6677e-08
5.40913e-06
6.94564e-08
5.4486e-06
6.24415e-08
5.48449e-06
5.56372e-08
5.51689e-06
4.90474e-08
5.54586e-06
4.26736e-08
5.5715e-06
3.6514e-08
5.59388e-06
3.05648e-08
5.6131e-06
2.48205e-08
5.62922e-06
1.92789e-08
5.64231e-06
1.39351e-08
5.65244e-06
8.7693e-09
5.65971e-06
3.72882e-09
5.66413e-06
-1.1429e-09
5.66579e-06
-6.0107e-09
5.6647e-06
-1.0791e-08
5.66086e-06
-1.5591e-08
-2.04847e-08
5.73375e-06
8.30508e-08
5.81344e-06
7.82737e-08
5.88921e-06
7.35398e-08
5.96107e-06
6.88633e-08
6.02904e-06
6.42556e-08
6.09315e-06
5.97259e-08
6.15344e-06
5.52839e-08
6.20996e-06
5.09381e-08
6.26276e-06
4.66964e-08
6.3119e-06
4.25653e-08
6.35745e-06
3.85504e-08
6.39947e-06
3.46564e-08
6.43804e-06
3.08871e-08
6.47323e-06
2.72455e-08
6.50514e-06
2.37331e-08
6.53383e-06
2.0352e-08
6.5594e-06
1.71023e-08
6.58193e-06
1.39846e-08
6.60151e-06
1.09885e-08
6.61824e-06
8.09139e-09
6.6322e-06
5.31754e-09
6.64346e-06
2.67179e-09
6.65203e-06
1.99671e-10
6.65811e-06
-2.34429e-09
6.66171e-06
-4.74351e-09
6.66282e-06
-7.12253e-09
6.66151e-06
-9.48448e-09
6.65779e-06
-1.18664e-08
-1.43182e-08
7.25394e-06
2.21449e-08
7.31162e-06
2.05967e-08
7.36609e-06
1.90717e-08
7.41737e-06
1.75775e-08
7.46551e-06
1.61178e-08
7.51054e-06
1.4695e-08
7.55251e-06
1.33117e-08
7.59148e-06
1.19702e-08
7.6275e-06
1.06729e-08
7.66065e-06
9.42124e-09
7.69098e-06
8.21664e-09
7.71858e-06
7.05998e-09
7.74351e-06
5.95173e-09
7.76587e-06
4.89223e-09
7.78572e-06
3.88093e-09
7.80315e-06
2.91815e-09
7.81825e-06
2.00252e-09
7.8311e-06
1.14093e-09
7.84174e-06
3.48057e-10
7.85031e-06
-4.83582e-10
7.85688e-06
-1.2501e-09
7.86148e-06
-1.93283e-09
7.86428e-06
-2.59271e-09
7.8652e-06
-3.2659e-09
7.86436e-06
-3.90809e-09
7.86178e-06
-4.54206e-09
7.85748e-06
-5.18313e-09