/*--------------------------------*- C++ -*----------------------------------*\
  =========                 |
  \\      /  F ield         | OpenFOAM: The Open Source CFD Toolbox
   \\    /   O peration     | Website:  https://openfoam.org
    \\  /    A nd           | Version:  9
     \\/     M anipulation  |
\*---------------------------------------------------------------------------*/
FoamFile
{
    format      ascii;
    class       volVectorField;
    location    "1.75";
    object      U;
}
// * * * * * * * * * * * * * * * * * * * * * * * * * * * * * * * * * * * * * //

dimensions      [0 1 -1 0 0 0 0];

internalField   nonuniform List<vector> 
1260
(
(-0.01424 0.111451 0)
(-0.0150766 0.10053 0)
(-0.0159454 0.0894823 0)
(-0.0168495 0.0783112 0)
(-0.0177915 0.0670221 0)
(-0.0187734 0.0556236 0)
(-0.0197973 0.0441277 0)
(-0.0208648 0.0325484 0)
(-0.0219764 0.0208994 0)
(-0.0231328 0.00919495 0)
(-0.0243344 -0.00255041 0)
(-0.0255813 -0.0143225 0)
(-0.0268731 -0.0261076 0)
(-0.0282091 -0.0378927 0)
(-0.0295884 -0.0496659 0)
(-0.0310096 -0.0614159 0)
(-0.0324707 -0.0731326 0)
(-0.0339694 -0.0848066 0)
(-0.0355026 -0.096429 0)
(-0.0370667 -0.107991 0)
(-0.0386574 -0.119484 0)
(-0.0402694 -0.130899 0)
(-0.0418969 -0.142224 0)
(-0.0435329 -0.153448 0)
(-0.0451702 -0.164555 0)
(-0.0468005 -0.175529 0)
(-0.0033821 0.112234 0)
(-0.00414229 0.101347 0)
(-0.00494212 0.0903373 0)
(-0.00578537 0.079207 0)
(-0.00667531 0.0679614 0)
(-0.00761493 0.0566089 0)
(-0.00860674 0.0451611 0)
(-0.00965244 0.0336308 0)
(-0.0107531 0.0220318 0)
(-0.0119097 0.0103779 0)
(-0.0131226 -0.00131667 0)
(-0.014392 -0.0130381 0)
(-0.0157176 -0.024773 0)
(-0.0170987 -0.0365087 0)
(-0.0185343 -0.0482338 0)
(-0.0200229 -0.0599374 0)
(-0.0215626 -0.0716098 0)
(-0.0231509 -0.0832423 0)
(-0.0247847 -0.0948265 0)
(-0.0264604 -0.106354 0)
(-0.0281737 -0.117818 0)
(-0.0299197 -0.129209 0)
(-0.0316923 -0.140516 0)
(-0.033485 -0.151729 0)
(-0.0352906 -0.162834 0)
(-0.0371008 -0.173814 0)
(0.00751996 0.112937 0)
(0.00683835 0.10209 0)
(0.00610978 0.091126 0)
(0.00532966 0.0800451 0)
(0.00449394 0.0688525 0)
(0.00359899 0.057556 0)
(0.00264183 0.0461663 0)
(0.00162031 0.0346959 0)
(0.000532891 0.0231578 0)
(-0.000621509 0.0115656 0)
(-0.00184355 -6.68688e-05 0)
(-0.00313344 -0.0117263 0)
(-0.00449094 -0.0233996 0)
(-0.00591538 -0.0350747 0)
(-0.00740566 -0.0467404 0)
(-0.00896021 -0.0583864 0)
(-0.010577 -0.0700035 0)
(-0.0122536 -0.0815834 0)
(-0.0139868 -0.0931183 0)
(-0.0157731 -0.104601 0)
(-0.0176082 -0.116024 0)
(-0.0194872 -0.127379 0)
(-0.0214044 -0.138658 0)
(-0.0233534 -0.149848 0)
(-0.0253271 -0.160938 0)
(-0.0273176 -0.171912 0)
(0.0184541 0.113556 0)
(0.0178527 0.102758 0)
(0.0171972 0.0918467 0)
(0.0164822 0.0808237 0)
(0.0157029 0.0696931 0)
(0.0148549 0.0584623 0)
(0.0139348 0.0471411 0)
(0.0129399 0.0357411 0)
(0.0118683 0.024275 0)
(0.0107185 0.0127557 0)
(0.00948982 0.00119666 0)
(0.00818183 -0.0103893 0)
(0.00679473 -0.0219896 0)
(0.00532921 -0.0335927 0)
(0.00378641 -0.0451876 0)
(0.00216792 -0.0567647 0)
(0.000475821 -0.0683152 0)
(-0.0012873 -0.0798313 0)
(-0.00311839 -0.0913057 0)
(-0.00501385 -0.102732 0)
(-0.0069695 -0.114103 0)
(-0.00898054 -0.125411 0)
(-0.0110415 -0.136649 0)
(-0.013146 -0.147805 0)
(-0.0152875 -0.158868 0)
(-0.0174582 -0.169823 0)
(0.02941 0.114092 0)
(0.02889 0.103348 0)
(0.0283091 0.0924974 0)
(0.0276609 0.0815405 0)
(0.0269398 0.0704809 0)
(0.026141 0.0593253 0)
(0.0252603 0.0480827 0)
(0.0242945 0.0367638 0)
(0.0232412 0.0253806 0)
(0.0220987 0.0139455 0)
(0.020866 0.00247124 0)
(0.0195426 -0.00902978 0)
(0.0181286 -0.0205456 0)
(0.0166246 -0.032065 0)
(0.0150317 -0.0435778 0)
(0.0133517 -0.0550745 0)
(0.0115865 -0.066547 0)
(0.00973892 -0.0779879 0)
(0.00781189 -0.0893905 0)
(0.00580902 -0.100749 0)
(0.00373441 -0.112056 0)
(0.00159269 -0.123306 0)
(-0.000610782 -0.134491 0)
(-0.00287006 -0.145601 0)
(-0.0051787 -0.156625 0)
(-0.00752948 -0.167548 0)
(0.0403788 0.114543 0)
(0.0399409 0.10386 0)
(0.0394355 0.0930766 0)
(0.0388555 0.0821938 0)
(0.0381944 0.071214 0)
(0.0374466 0.060143 0)
(0.0366074 0.0489888 0)
(0.0356731 0.0377614 0)
(0.0346408 0.026472 0)
(0.0335084 0.0151322 0)
(0.0322745 0.00375412 0)
(0.0309386 -0.0076505 0)
(0.0295005 -0.0190703 0)
(0.0279609 -0.0304945 0)
(0.0263209 -0.0419134 0)
(0.024582 -0.0533183 0)
(0.0227465 -0.0647012 0)
(0.0208168 -0.0760554 0)
(0.0187962 -0.0873746 0)
(0.016688 -0.0986531 0)
(0.0144964 -0.109885 0)
(0.0122257 -0.121065 0)
(0.00988111 -0.132185 0)
(0.00746824 -0.143236 0)
(0.00499324 -0.154208 0)
(0.0024629 -0.165086 0)
(0.0513531 0.114909 0)
(0.0509976 0.104292 0)
(0.0505684 0.0935835 0)
(0.0500575 0.0827824 0)
(0.0494577 0.0718908 0)
(0.0487626 0.0609133 0)
(0.047967 0.0498573 0)
(0.0470664 0.0387316 0)
(0.0460576 0.0275466 0)
(0.044938 0.0163131 0)
(0.0437059 0.00504234 0)
(0.0423606 -0.00625447 0)
(0.0409016 -0.0175666 0)
(0.0393296 -0.0288841 0)
(0.0376455 -0.0401976 0)
(0.035851 -0.0514989 0)
(0.033948 -0.0627806 0)
(0.0319393 -0.0740364 0)
(0.0298277 -0.0852605 0)
(0.0276167 -0.0964476 0)
(0.0253103 -0.107592 0)
(0.0229127 -0.118689 0)
(0.0204287 -0.129732 0)
(0.0178637 -0.140712 0)
(0.0152234 -0.151618 0)
(0.0125141 -0.162438 0)
(0.0623275 0.11519 0)
(0.0620542 0.104645 0)
(0.0617014 0.0940174 0)
(0.0612601 0.0833053 0)
(0.0607226 0.0725098 0)
(0.0600816 0.0616347 0)
(0.0593313 0.0506861 0)
(0.0584667 0.039672 0)
(0.0574838 0.0286017 0)
(0.0563798 0.0174851 0)
(0.0551525 0.00633282 0)
(0.0538009 -0.00484491 0)
(0.0523244 -0.016038 0)
(0.0507234 -0.0272371 0)
(0.0489987 -0.0384336 0)
(0.0471519 -0.0496196 0)
(0.0451849 -0.0607883 0)
(0.0431002 -0.0719339 0)
(0.0409008 -0.0830509 0)
(0.0385899 -0.0941345 0)
(0.0361713 -0.10518 0)
(0.033649 -0.116182 0)
(0.0310277 -0.127134 0)
(0.0283121 -0.138029 0)
(0.0255077 -0.148857 0)
(0.0226203 -0.159604 0)
(0.0732982 0.115386 0)
(0.0731067 0.104919 0)
(0.0728301 0.0943781 0)
(0.0724588 0.0837619 0)
(0.0719841 0.0730701 0)
(0.0713984 0.0623056 0)
(0.0706949 0.0514733 0)
(0.0698681 0.0405803 0)
(0.0689135 0.0296347 0)
(0.0678277 0.0186456 0)
(0.0666082 0.00762245 0)
(0.0652536 -0.00342513 0)
(0.063763 -0.0144879 0)
(0.0621366 -0.0255572 0)
(0.060375 -0.0366249 0)
(0.0584795 -0.0476838 0)
(0.0564521 -0.0587278 0)
(0.0542951 -0.0697511 0)
(0.0520111 -0.080749 0)
(0.0496035 -0.0917169 0)
(0.0470756 -0.10265 0)
(0.0444313 -0.113545 0)
(0.0416748 -0.124394 0)
(0.0388105 -0.13519 0)
(0.0358433 -0.145925 0)
(0.0327785 -0.156585 0)
(0.0842637 0.115499 0)
(0.0841533 0.105114 0)
(0.0839525 0.0946659 0)
(0.083651 0.0841519 0)
(0.0832396 0.073571 0)
(0.0827098 0.0629248 0)
(0.0820544 0.0522174 0)
(0.0812671 0.0414545 0)
(0.0803429 0.0306432 0)
(0.0792779 0.0197915 0)
(0.0780692 0.00890809 0)
(0.0767148 -0.0019985 0)
(0.0752136 -0.0129198 0)
(0.0735654 -0.0238479 0)
(0.0717706 -0.0347753 0)
(0.0698304 -0.0456955 0)
(0.0677464 -0.0566027 0)
(0.0655208 -0.0674917 0)
(0.063156 -0.0783581 0)
(0.060655 -0.0891978 0)
(0.0580209 -0.100007 0)
(0.0552573 -0.11078 0)
(0.0523679 -0.121512 0)
(0.0493568 -0.132196 0)
(0.0462282 -0.142823 0)
(0.042987 -0.153381 0)
(0.095224 0.115528 0)
(0.0951941 0.105231 0)
(0.0950686 0.0948809 0)
(0.0948367 0.0844753 0)
(0.0944886 0.074012 0)
(0.0940154 0.0634916 0)
(0.093409 0.052917 0)
(0.0926627 0.0422927 0)
(0.0917708 0.0316249 0)
(0.090729 0.0209204 0)
(0.0895338 0.0101867 0)
(0.0881826 -0.000568404 0)
(0.0866742 -0.0113374 0)
(0.085008 -0.0221131 0)
(0.0831839 -0.0328888 0)
(0.0812029 -0.0436585 0)
(0.0790662 -0.0544169 0)
(0.0767758 -0.0651595 0)
(0.0743339 -0.075882 0)
(0.071743 -0.0865806 0)
(0.069006 -0.0972514 0)
(0.0661259 -0.10789 0)
(0.0631061 -0.118492 0)
(0.05995 -0.129049 0)
(0.0566615 -0.139553 0)
(0.0532446 -0.149994 0)
(0.106181 0.115475 0)
(0.106231 0.10527 0)
(0.10618 0.0950237 0)
(0.106018 0.0847323 0)
(0.105733 0.074393 0)
(0.105317 0.0640053 0)
(0.10476 0.0535709 0)
(0.104056 0.0430935 0)
(0.103198 0.0325778 0)
(0.102182 0.0220297 0)
(0.101002 0.0114555 0)
(0.0996577 0.000862023 0)
(0.0981455 -0.00974407 0)
(0.0964646 -0.0203564 0)
(0.094615 -0.0309691 0)
(0.092597 -0.0415767 0)
(0.0904116 -0.0521745 0)
(0.0880603 -0.0627582 0)
(0.0855449 -0.0733241 0)
(0.0828676 -0.0838686 0)
(0.0800308 -0.0943881 0)
(0.0770371 -0.104879 0)
(0.0738892 -0.115335 0)
(0.07059 -0.12575 0)
(0.0671427 -0.136116 0)
(0.0635508 -0.146422 0)
(0.117138 0.115339 0)
(0.117267 0.105232 0)
(0.117292 0.0950946 0)
(0.117198 0.0849231 0)
(0.116977 0.0747137 0)
(0.116618 0.0644653 0)
(0.116111 0.0541784 0)
(0.115451 0.0438555 0)
(0.114628 0.0335001 0)
(0.113639 0.0231171 0)
(0.112478 0.0127118 0)
(0.111143 0.00228975 0)
(0.10963 -0.00814321 0)
(0.107938 -0.0185815 0)
(0.106066 -0.02902 0)
(0.104015 -0.039454 0)
(0.101784 -0.0498791 0)
(0.0993758 -0.0602916 0)
(0.0967905 -0.0706881 0)
(0.0940301 -0.0810652 0)
(0.0910965 -0.0914196 0)
(0.0879917 -0.101747 0)
(0.0847178 -0.112043 0)
(0.0812772 -0.122301 0)
(0.0776722 -0.132513 0)
(0.0739056 -0.142667 0)
(0.128096 0.11512 0)
(0.128307 0.105116 0)
(0.128407 0.0950935 0)
(0.128383 0.0850475 0)
(0.128225 0.0749741 0)
(0.127923 0.0648712 0)
(0.127469 0.0547386 0)
(0.126852 0.0445774 0)
(0.126067 0.0343902 0)
(0.125106 0.0241807 0)
(0.123966 0.013953 0)
(0.122642 0.0037119 0)
(0.121131 -0.00653794 0)
(0.119431 -0.0167918 0)
(0.11754 -0.0270451 0)
(0.115459 -0.0372939 0)
(0.113187 -0.0475344 0)
(0.110725 -0.0577632 0)
(0.108073 -0.0679772 0)
(0.105233 -0.0781734 0)
(0.102205 -0.0883484 0)
(0.0989913 -0.0984984 0)
(0.0955933 -0.108619 0)
(0.0920124 -0.118703 0)
(0.0882504 -0.128743 0)
(0.0843092 -0.138728 0)
(0.13906 0.114817 0)
(0.139354 0.104922 0)
(0.13953 0.0950197 0)
(0.139577 0.085105 0)
(0.139484 0.0751736 0)
(0.139241 0.0652225 0)
(0.138838 0.0552506 0)
(0.138267 0.0452582 0)
(0.137519 0.0352467 0)
(0.13659 0.0252186 0)
(0.135472 0.0151772 0)
(0.134161 0.00512606 0)
(0.132655 -0.00493099 0)
(0.130949 -0.0149901 0)
(0.129043 -0.0250475 0)
(0.126935 -0.0350997 0)
(0.124624 -0.0451436 0)
(0.122111 -0.0551761 0)
(0.119395 -0.0651944 0)
(0.116477 -0.0751957 0)
(0.113358 -0.0851769 0)
(0.110037 -0.0951341 0)
(0.106517 -0.105063 0)
(0.102796 -0.114956 0)
(0.0988777 -0.124807 0)
(0.0947615 -0.134606 0)
(0.15003 0.114426 0)
(0.150411 0.104647 0)
(0.150666 0.0948714 0)
(0.150786 0.0850943 0)
(0.150759 0.075311 0)
(0.150576 0.065518 0)
(0.150226 0.0557135 0)
(0.149701 0.0458966 0)
(0.148994 0.0360681 0)
(0.148096 0.0262293 0)
(0.147002 0.0163824 0)
(0.145707 0.00653009 0)
(0.144207 -0.00332474 0)
(0.142498 -0.013179 0)
(0.140579 -0.0230298 0)
(0.138446 -0.0328741 0)
(0.1361 -0.0427094 0)
(0.133538 -0.0525329 0)
(0.13076 -0.0623422 0)
(0.127767 -0.0721345 0)
(0.124557 -0.0819069 0)
(0.121131 -0.0916556 0)
(0.117489 -0.101376 0)
(0.113629 -0.111062 0)
(0.109554 -0.120706 0)
(0.105262 -0.130298 0)
(0.100755 -0.139826 0)
(0.0960332 -0.149276 0)
(0.0910999 -0.15863 0)
(0.161003 0.113942 0)
(0.161476 0.104287 0)
(0.161816 0.0946454 0)
(0.162012 0.0850129 0)
(0.162054 0.0753845 0)
(0.161933 0.0657562 0)
(0.161638 0.0561257 0)
(0.161162 0.0464914 0)
(0.160495 0.0368531 0)
(0.159631 0.0272112 0)
(0.158563 0.0175669 0)
(0.157285 0.00792214 0)
(0.155794 -0.00172116 0)
(0.154084 -0.0113607 0)
(0.152152 -0.0209942 0)
(0.149997 -0.0306193 0)
(0.147617 -0.0402339 0)
(0.145008 -0.0498356 0)
(0.14217 -0.0594222 0)
(0.139103 -0.0689911 0)
(0.135804 -0.0785394 0)
(0.132273 -0.0880636 0)
(0.128508 -0.0975589 0)
(0.12451 -0.10702 0)
(0.120277 -0.116438 0)
(0.115808 -0.125804 0)
(0.111104 -0.135108 0)
(0.106164 -0.144334 0)
(0.100992 -0.153467 0)
(0.171972 0.113356 0)
(0.172546 0.103835 0)
(0.172976 0.0943368 0)
(0.173254 0.084857 0)
(0.173369 0.0753908 0)
(0.173314 0.0659346 0)
(0.173077 0.0564852 0)
(0.172652 0.0470406 0)
(0.172028 0.0375999 0)
(0.1712 0.0281626 0)
(0.170159 0.0187292 0)
(0.1689 0.00930065 0)
(0.167418 -0.00012186 0)
(0.165708 -0.00953672 0)
(0.163767 -0.0189423 0)
(0.161591 -0.0283368 0)
(0.159177 -0.0377185 0)
(0.156522 -0.0470854 0)
(0.153626 -0.0564355 0)
(0.150484 -0.0657664 0)
(0.147097 -0.0750751 0)
(0.14346 -0.0843583 0)
(0.139574 -0.0936112 0)
(0.135436 -0.102828 0)
(0.131043 -0.112002 0)
(0.126396 -0.121123 0)
(0.121493 -0.130181 0)
(0.116333 -0.139162 0)
(0.110919 -0.148052 0)
(0.182923 0.112659 0)
(0.183608 0.103284 0)
(0.184138 0.0939386 0)
(0.184505 0.0846207 0)
(0.1847 0.0753255 0)
(0.184715 0.0660492 0)
(0.184541 0.0567888 0)
(0.18417 0.0475417 0)
(0.183592 0.0383064 0)
(0.182801 0.0290818 0)
(0.18179 0.0198676 0)
(0.180551 0.0106642 0)
(0.17908 0.00147188 0)
(0.177372 -0.00770825 0)
(0.175421 -0.0168752 0)
(0.173225 -0.0260276 0)
(0.170778 -0.0351641 0)
(0.168079 -0.044283 0)
(0.165123 -0.0533826 0)
(0.161908 -0.0624604 0)
(0.158431 -0.0715137 0)
(0.154689 -0.0805391 0)
(0.15068 -0.0895319 0)
(0.1464 -0.0984866 0)
(0.141847 -0.107396 0)
(0.137019 -0.116251 0)
(0.131915 -0.125043 0)
(0.126533 -0.133757 0)
(0.120874 -0.142383 0)
(0.193835 0.111838 0)
(0.194645 0.102621 0)
(0.195286 0.0934414 0)
(0.195752 0.0842962 0)
(0.196035 0.0751819 0)
(0.196127 0.0660949 0)
(0.196021 0.0570322 0)
(0.195708 0.0479912 0)
(0.19518 0.0389697 0)
(0.19443 0.0299664 0)
(0.19345 0.0209803 0)
(0.192234 0.0120112 0)
(0.190776 0.00305886 0)
(0.18907 -0.00587624 0)
(0.187111 -0.0147935 0)
(0.184894 -0.0236921 0)
(0.182415 -0.0325708 0)
(0.17967 -0.0414284 0)
(0.176655 -0.0502631 0)
(0.173366 -0.0590726 0)
(0.169799 -0.0678544 0)
(0.16595 -0.0766049 0)
(0.161816 -0.0853197 0)
(0.157394 -0.0939933 0)
(0.152679 -0.102619 0)
(0.147669 -0.111188 0)
(0.142361 -0.119691 0)
(0.136754 -0.128118 0)
(0.130849 -0.136456 0)
(0.204676 0.110876 0)
(0.205627 0.101834 0)
(0.206393 0.0928333 0)
(0.20697 0.0838733 0)
(0.207352 0.0749514 0)
(0.207531 0.0660644 0)
(0.2075 0.0572096 0)
(0.207251 0.0483842 0)
(0.206778 0.039586 0)
(0.206073 0.0308134 0)
(0.205127 0.0220649 0)
(0.203936 0.0133399 0)
(0.202492 0.00463776 0)
(0.20079 -0.00404153 0)
(0.198823 -0.0126978 0)
(0.196586 -0.0213304 0)
(0.194075 -0.0299385 0)
(0.191284 -0.038521 0)
(0.188209 -0.0470763 0)
(0.184845 -0.0556022 0)
(0.181186 -0.064096 0)
(0.17723 -0.0725544 0)
(0.17297 -0.080973 0)
(0.168403 -0.0893465 0)
(0.163524 -0.0976684 0)
(0.15833 -0.105931 0)
(0.152817 -0.114126 0)
(0.146985 -0.122242 0)
(0.140832 -0.130272 0)
(0.215405 0.109757 0)
(0.216515 0.100906 0)
(0.217424 0.0920997 0)
(0.218127 0.0833395 0)
(0.21862 0.0746233 0)
(0.218896 0.0659487 0)
(0.21895 0.0573132 0)
(0.218774 0.0487145 0)
(0.218362 0.0401503 0)
(0.217706 0.0316187 0)
(0.2168 0.0231184 0)
(0.215636 0.014648 0)
(0.214209 0.006207 0)
(0.212511 -0.00220514 0)
(0.210538 -0.0105884 0)
(0.208282 -0.0189426 0)
(0.205738 -0.0272669 0)
(0.202901 -0.0355603 0)
(0.199765 -0.0438212 0)
(0.196324 -0.0520477 0)
(0.192573 -0.0602372 0)
(0.188507 -0.0683861 0)
(0.18412 -0.0764903 0)
(0.179407 -0.0845447 0)
(0.174363 -0.0925433 0)
(0.168984 -0.100479 0)
(0.163266 -0.108344 0)
(0.157208 -0.11613 0)
(0.150807 -0.123828 0)
(0.225969 0.108457 0)
(0.22726 0.0998168 0)
(0.22833 0.0912237 0)
(0.229176 0.0826798 0)
(0.229795 0.0741845 0)
(0.230182 0.0657364 0)
(0.230332 0.0573336 0)
(0.230238 0.0489741 0)
(0.229895 0.0406559 0)
(0.229295 0.0323773 0)
(0.228433 0.0241365 0)
(0.227302 0.0159325 0)
(0.225894 0.00776435 0)
(0.224204 -0.000368582 0)
(0.222225 -0.00846636 0)
(0.219951 -0.0165289 0)
(0.217375 -0.0245556 0)
(0.214491 -0.0325455 0)
(0.211294 -0.0404971 0)
(0.207776 -0.0484084 0)
(0.203932 -0.0562767 0)
(0.199755 -0.0640988 0)
(0.19524 -0.0718705 0)
(0.190381 -0.0795871 0)
(0.185172 -0.0872429 0)
(0.179609 -0.0948316 0)
(0.173687 -0.102346 0)
(0.167404 -0.109781 0)
(0.160759 -0.117128 0)
(0.236304 0.106955 0)
(0.237799 0.0985465 0)
(0.239052 0.090186 0)
(0.24006 0.081877 0)
(0.240822 0.07362 0)
(0.241334 0.0654145 0)
(0.241593 0.0572594 0)
(0.241593 0.0491534 0)
(0.241329 0.0410949 0)
(0.240794 0.0330822 0)
(0.239983 0.025114 0)
(0.238889 0.0171891 0)
(0.237505 0.00930668 0)
(0.235826 0.00146602 0)
(0.233844 -0.00633298 0)
(0.231552 -0.0140902 0)
(0.228945 -0.0218052 0)
(0.226016 -0.0294769 0)
(0.222757 -0.0371037 0)
(0.219163 -0.0446837 0)
(0.215226 -0.0522143 0)
(0.210939 -0.0596922 0)
(0.206297 -0.0671136 0)
(0.201293 -0.0744739 0)
(0.19592 -0.0817681 0)
(0.190174 -0.0889907 0)
(0.184051 -0.0961361 0)
(0.177549 -0.103199 0)
(0.170666 -0.110176 0)
(0.246337 0.105225 0)
(0.248059 0.0970719 0)
(0.249516 0.0889659 0)
(0.250707 0.0809122 0)
(0.251631 0.0729126 0)
(0.252286 0.0649677 0)
(0.252669 0.0570773 0)
(0.252775 0.0492409 0)
(0.252601 0.0414573 0)
(0.252141 0.0337253 0)
(0.251389 0.026044 0)
(0.250339 0.0184123 0)
(0.248986 0.0108295 0)
(0.247321 0.00329514 0)
(0.24534 -0.00419095 0)
(0.243035 -0.0116286 0)
(0.240399 -0.0190171 0)
(0.237426 -0.0263553 0)
(0.234108 -0.0336419 0)
(0.230439 -0.0408746 0)
(0.22641 -0.0480509 0)
(0.222016 -0.0551676 0)
(0.217249 -0.0622212 0)
(0.212102 -0.0692075 0)
(0.20657 -0.0761221 0)
(0.200648 -0.0829604 0)
(0.194331 -0.0897183 0)
(0.187617 -0.0963924 0)
(0.180506 -0.102981 0)
(0.255983 0.103243 0)
(0.257957 0.0953696 0)
(0.259641 0.0875414 0)
(0.261036 0.0797651 0)
(0.262142 0.0720437 0)
(0.262957 0.0643792 0)
(0.26348 0.0567724 0)
(0.263709 0.0492233 0)
(0.263638 0.0417316 0)
(0.263263 0.0342967 0)
(0.262581 0.026918 0)
(0.261584 0.0195949 0)
(0.260267 0.0123268 0)
(0.258625 0.00511367 0)
(0.25665 -0.00204458 0)
(0.254335 -0.00914744 0)
(0.251675 -0.0161942 0)
(0.248662 -0.0231836 0)
(0.245289 -0.0301141 0)
(0.241548 -0.0369836 0)
(0.237432 -0.0437893 0)
(0.232934 -0.0505285 0)
(0.228048 -0.0571977 0)
(0.222766 -0.0637932 0)
(0.217082 -0.0703114 0)
(0.210992 -0.0767488 0)
(0.204492 -0.0831028 0)
(0.197581 -0.089372 0)
(0.190258 -0.0955574 0)
(0.265152 0.100985 0)
(0.267401 0.0934159 0)
(0.269335 0.0858901 0)
(0.270955 0.0784147 0)
(0.272263 0.0709941 0)
(0.273257 0.0636314 0)
(0.273939 0.0563284 0)
(0.274304 0.049086 0)
(0.274351 0.0419048 0)
(0.274075 0.0347847 0)
(0.273473 0.0277258 0)
(0.27254 0.0207279 0)
(0.27127 0.0137908 0)
(0.269657 0.00691486 0)
(0.267696 0.000100237 0)
(0.265379 -0.00665219 0)
(0.262701 -0.0133416 0)
(0.259654 -0.0199667 0)
(0.256231 -0.0265255 0)
(0.252425 -0.0330159 0)
(0.24823 -0.0394355 0)
(0.243637 -0.0457814 0)
(0.23864 -0.0520506 0)
(0.233234 -0.05824 0)
(0.227411 -0.0643469 0)
(0.221169 -0.0703689 0)
(0.214504 -0.0763051 0)
(0.207415 -0.0821562 0)
(0.199904 -0.0879261 0)
(0.273749 0.0984267 0)
(0.276295 0.0911887 0)
(0.278501 0.0839903 0)
(0.280366 0.0768403 0)
(0.281895 0.0697441 0)
(0.283088 0.0627058 0)
(0.283945 0.0557282 0)
(0.284464 0.0488134 0)
(0.284644 0.0419625 0)
(0.284481 0.0351764 0)
(0.283973 0.0284556 0)
(0.283115 0.0218006 0)
(0.281902 0.0152118 0)
(0.28033 0.00868978 0)
(0.278392 0.00223524 0)
(0.276082 -0.00415075 0)
(0.273395 -0.0104671 0)
(0.270324 -0.0167122 0)
(0.266862 -0.022884 0)
(0.263002 -0.0289805 0)
(0.258738 -0.0349992 0)
(0.254063 -0.0409375 0)
(0.248971 -0.0467928 0)
(0.243456 -0.0525628 0)
(0.237515 -0.0582456 0)
(0.231143 -0.0638404 0)
(0.224338 -0.069348 0)
(0.217102 -0.0747714 0)
(0.209436 -0.0801173 0)
(0.281681 0.0955488 0)
(0.284542 0.0886673 0)
(0.287037 0.0818221 0)
(0.289167 0.0750223 0)
(0.290936 0.0682747 0)
(0.292345 0.0615842 0)
(0.293394 0.0549547 0)
(0.294084 0.0483891 0)
(0.294413 0.0418895 0)
(0.294378 0.0354573 0)
(0.293978 0.029094 0)
(0.293209 0.0228005 0)
(0.292067 0.0165779 0)
(0.290548 0.010427 0)
(0.288646 0.00434924 0)
(0.286356 -0.00165437 0)
(0.283673 -0.00758189 0)
(0.280591 -0.0134318 0)
(0.277104 -0.0192022 0)
(0.273206 -0.0248907 0)
(0.268891 -0.0304952 0)
(0.264153 -0.0360134 0)
(0.258987 -0.0414433 0)
(0.25339 -0.0467832 0)
(0.247357 -0.0520326 0)
(0.240888 -0.057192 0)
(0.23398 -0.0622642 0)
(0.226637 -0.0672545 0)
(0.218864 -0.0721727 0)
(0.288853 0.0923343 0)
(0.292045 0.0858347 0)
(0.294845 0.0793676 0)
(0.297256 0.072943 0)
(0.299282 0.0665682 0)
(0.300923 0.0602493 0)
(0.302182 0.053991 0)
(0.303058 0.0477968 0)
(0.303552 0.0416698 0)
(0.303662 0.0356123 0)
(0.303386 0.0296262 0)
(0.302721 0.0237131 0)
(0.301665 0.0178747 0)
(0.300215 0.0121125 0)
(0.298365 0.00642794 0)
(0.296112 0.000822639 0)
(0.293451 -0.00470124 0)
(0.290377 -0.0101421 0)
(0.286885 -0.0154979 0)
(0.282971 -0.0207664 0)
(0.27863 -0.0259458 0)
(0.273858 -0.0310342 0)
(0.268651 -0.0360301 0)
(0.263007 -0.0409331 0)
(0.256924 -0.0457437 0)
(0.250401 -0.050464 0)
(0.243441 -0.0550988 0)
(0.236047 -0.059656 0)
(0.228227 -0.064148 0)
(0.295184 0.088771 0)
(0.298715 0.0826774 0)
(0.301833 0.0766127 0)
(0.304538 0.0705873 0)
(0.306834 0.0646093 0)
(0.308722 0.0586854 0)
(0.310206 0.0528209 0)
(0.311285 0.0470204 0)
(0.31196 0.0412874 0)
(0.31223 0.0356249 0)
(0.312095 0.0300356 0)
(0.311553 0.0245217 0)
(0.310602 0.0190853 0)
(0.30924 0.0137283 0)
(0.307464 0.00845267 0)
(0.30527 0.00326038 0)
(0.302655 -0.00184678 0)
(0.299616 -0.00686649 0)
(0.29615 -0.0117969 0)
(0.292253 -0.0166362 0)
(0.287923 -0.0213828 0)
(0.283157 -0.0260353 0)
(0.277954 -0.0305932 0)
(0.272313 -0.035057 0)
(0.266234 -0.0394285 0)
(0.259721 -0.0437117 0)
(0.252776 -0.0479131 0)
(0.245405 -0.0520429 0)
(0.237617 -0.0561164 0)
(0.300599 0.0848515 0)
(0.304477 0.0791863 0)
(0.307921 0.0735467 0)
(0.310929 0.0679433 0)
(0.313506 0.0623848 0)
(0.315655 0.0568781 0)
(0.317378 0.0514294 0)
(0.318675 0.0460437 0)
(0.319548 0.0407251 0)
(0.319998 0.0354773 0)
(0.320024 0.0303034 0)
(0.319627 0.0252061 0)
(0.318805 0.020188 0)
(0.317558 0.0152513 0)
(0.315883 0.0103982 0)
(0.313779 0.00563095 0)
(0.311246 0.000951406 0)
(0.308281 -0.0036382 0)
(0.304882 -0.00813616 0)
(0.301049 -0.012541 0)
(0.296782 -0.0168515 0)
(0.292079 -0.0210672 0)
(0.286943 -0.0251883 0)
(0.281374 -0.0292165 0)
(0.275376 -0.0331549 0)
(0.268954 -0.0370091 0)
(0.262113 -0.0407874 0)
(0.25486 -0.0445023 0)
(0.247208 -0.0481711 0)
(0.305048 0.0805732 0)
(0.309276 0.0753563 0)
(0.31305 0.0701623 0)
(0.316369 0.0650017 0)
(0.319238 0.0598833 0)
(0.32166 0.0548144 0)
(0.323637 0.0498014 0)
(0.325171 0.0448497 0)
(0.326263 0.039964 0)
(0.326916 0.0351482 0)
(0.32713 0.0304059 0)
(0.326907 0.0257402 0)
(0.326248 0.0211539 0)
(0.325152 0.0166495 0)
(0.32362 0.0122293 0)
(0.321652 0.00789553 0)
(0.31925 0.00365022 0)
(0.316414 -0.000504958 0)
(0.313144 -0.00456838 0)
(0.309442 -0.00853896 0)
(0.30531 -0.0124161 0)
(0.300751 -0.0162001 0)
(0.295767 -0.0198922 0)
(0.290364 -0.023495 0)
(0.284547 -0.027013 0)
(0.278322 -0.0304532 0)
(0.271698 -0.0338256 0)
(0.264683 -0.0371442 0)
(0.257291 -0.0404282 0)
(0.308517 0.0759361 0)
(0.313096 0.0711846 0)
(0.317206 0.0664536 0)
(0.320847 0.0617534 0)
(0.324022 0.0570926 0)
(0.326734 0.0524787 0)
(0.328986 0.047918 0)
(0.330782 0.0434163 0)
(0.332124 0.0389783 0)
(0.333014 0.0346084 0)
(0.333456 0.0303101 0)
(0.333451 0.0260868 0)
(0.333003 0.0219414 0)
(0.332113 0.0178764 0)
(0.330785 0.0138943 0)
(0.329021 0.00999709 0)
(0.326823 0.00618658 0)
(0.324195 0.00246422 0)
(0.32114 -0.00116885 0)
(0.317663 -0.00471202 0)
(0.313767 -0.00816536 0)
(0.309458 -0.0115298 0)
(0.304742 -0.0148075 0)
(0.299625 -0.0180022 0)
(0.294116 -0.0211193 0)
(0.288222 -0.0241669 0)
(0.281954 -0.0271564 0)
(0.275322 -0.0301028 0)
(0.268337 -0.0330267 0)
(0.311079 0.0709387 0)
(0.316018 0.0666654 0)
(0.32048 0.0624106 0)
(0.324461 0.058184 0)
(0.327966 0.0539938 0)
(0.330999 0.0498472 0)
(0.333564 0.0457506 0)
(0.335665 0.0417095 0)
(0.337304 0.0377289 0)
(0.338487 0.0338128 0)
(0.339218 0.0299651 0)
(0.339501 0.026189 0)
(0.33934 0.0224873 0)
(0.338739 0.0188626 0)
(0.337705 0.0153169 0)
(0.33624 0.0118523 0)
(0.334351 0.00847025 0)
(0.332044 0.00517182 0)
(0.329323 0.00195767 0)
(0.326196 -0.00117207 0)
(0.322668 -0.00421818 0)
(0.318749 -0.00718217 0)
(0.314445 -0.0100669 0)
(0.309765 -0.0128767 0)
(0.304719 -0.0156179 0)
(0.299316 -0.0182995 0)
(0.293566 -0.0209334 0)
(0.28748 -0.0235352 0)
(0.281069 -0.026126 0)
(0.313013 0.0655683 0)
(0.318343 0.0617803 0)
(0.323191 0.0580088 0)
(0.327555 0.0542626 0)
(0.331442 0.0505494 0)
(0.334854 0.0468758 0)
(0.337797 0.0432481 0)
(0.340275 0.0396714 0)
(0.342293 0.0361503 0)
(0.343858 0.0326889 0)
(0.344974 0.0292908 0)
(0.345649 0.025959 0)
(0.345887 0.0226962 0)
(0.345696 0.0195047 0)
(0.345082 0.0163864 0)
(0.344052 0.013343 0)
(0.342614 0.0103756 0)
(0.340774 0.00748507 0)
(0.338541 0.00467158 0)
(0.335923 0.00193481 0)
(0.332929 -0.000726399 0)
(0.329567 -0.00331427 0)
(0.325847 -0.005832 0)
(0.321778 -0.00828434 0)
(0.31737 -0.010678 0)
(0.312634 -0.0130221 0)
(0.307579 -0.0153289 0)
(0.302214 -0.017614 0)
(0.29655 -0.0198981 0)
(0.31507 0.0597845 0)
(0.320856 0.0564816 0)
(0.326166 0.0531928 0)
(0.330997 0.049926 0)
(0.335355 0.046688 0)
(0.339246 0.043485 0)
(0.342674 0.0403225 0)
(0.345646 0.0372054 0)
(0.348168 0.0341379 0)
(0.350246 0.0311237 0)
(0.351887 0.0281662 0)
(0.3531 0.025268 0)
(0.353891 0.0224316 0)
(0.354269 0.0196591 0)
(0.354241 0.0169522 0)
(0.353815 0.0143121 0)
(0.353002 0.0117399 0)
(0.351808 0.00923599 0)
(0.350244 0.00680033 0)
(0.348318 0.00443229 0)
(0.34604 0.00213054 0)
(0.34342 -0.000107391 0)
(0.340467 -0.00228505 0)
(0.33719 -0.00440743 0)
(0.3336 -0.00648094 0)
(0.329706 -0.00851457 0)
(0.325515 -0.0105202 0)
(0.321037 -0.0125127 0)
(0.316279 -0.0145119 0)
(0.318958 0.0535019 0)
(0.325317 0.0506753 0)
(0.331211 0.0478601 0)
(0.336639 0.0450631 0)
(0.341608 0.0422903 0)
(0.346122 0.0395471 0)
(0.350188 0.0368384 0)
(0.353811 0.0341685 0)
(0.357 0.0315412 0)
(0.35976 0.0289598 0)
(0.362101 0.0264273 0)
(0.364029 0.0239462 0)
(0.365553 0.0215187 0)
(0.366682 0.0191465 0)
(0.367424 0.0168312 0)
(0.367788 0.0145739 0)
(0.367784 0.0123752 0)
(0.36742 0.0102356 0)
(0.366706 0.00815477 0)
(0.365651 0.00613202 0)
(0.364264 0.0041659 0)
(0.362555 0.00225415 0)
(0.360532 0.000393293 0)
(0.358206 -0.00142151 0)
(0.355584 -0.00319688 0)
(0.352674 -0.00494077 0)
(0.349483 -0.00666411 0)
(0.346017 -0.00838077 0)
(0.342282 -0.010109 0)
(0.32808 0.046584 0)
(0.335157 0.0442181 0)
(0.341788 0.0418608 0)
(0.347969 0.0395178 0)
(0.353707 0.0371942 0)
(0.359007 0.0348946 0)
(0.363874 0.0326233 0)
(0.368315 0.0303841 0)
(0.372337 0.0281801 0)
(0.375947 0.0260145 0)
(0.379152 0.0238898 0)
(0.38196 0.0218082 0)
(0.38438 0.0197717 0)
(0.386419 0.0177819 0)
(0.388086 0.0158401 0)
(0.38939 0.0139473 0)
(0.39034 0.0121041 0)
(0.390943 0.0103108 0)
(0.39121 0.00856707 0)
(0.391148 0.00687228 0)
(0.390767 0.00522503 0)
(0.390076 0.00362319 0)
(0.389081 0.00206373 0)
(0.387791 0.000542388 0)
(0.386214 -0.000947009 0)
(0.384355 -0.002412 0)
(0.382221 -0.0038621 0)
(0.379815 -0.00530949 0)
(0.37714 -0.0067705 0)
(0.34832 0.0388812 0)
(0.35622 0.0369579 0)
(0.363689 0.0350409 0)
(0.370725 0.0331349 0)
(0.377331 0.031244 0)
(0.383513 0.0293722 0)
(0.389276 0.027523 0)
(0.394624 0.0256995 0)
(0.399563 0.0239047 0)
(0.404101 0.0221411 0)
(0.408243 0.020411 0)
(0.411998 0.0187164 0)
(0.415371 0.0170589 0)
(0.418372 0.01544 0)
(0.421008 0.0138608 0)
(0.423286 0.0123221 0)
(0.425215 0.0108247 0)
(0.426802 0.00936855 0)
(0.428057 0.00795361 0)
(0.428987 0.00657922 0)
(0.429601 0.00524422 0)
(0.429905 0.0039467 0)
(0.429907 0.00268399 0)
(0.429615 0.00145218 0)
(0.429034 0.000246606 0)
(0.428169 -0.000939989 0)
(0.427027 -0.0021157 0)
(0.425607 -0.00329083 0)
(0.423913 -0.00447943 0)
(0.388386 0.030343 0)
(0.397022 0.028848 0)
(0.405238 0.027358 0)
(0.413031 0.0258767 0)
(0.420402 0.0244075 0)
(0.427357 0.0229534 0)
(0.433898 0.0215172 0)
(0.44003 0.0201017 0)
(0.445758 0.0187091 0)
(0.451088 0.0173416 0)
(0.456025 0.0160011 0)
(0.460575 0.0146892 0)
(0.464746 0.0134073 0)
(0.468545 0.0121566 0)
(0.471978 0.0109381 0)
(0.475053 0.00975243 0)
(0.477779 0.00860013 0)
(0.480162 0.00748127 0)
(0.48221 0.00639566 0)
(0.483932 0.00534272 0)
(0.485335 0.00432167 0)
(0.486426 0.00333099 0)
(0.487213 0.00236847 0)
(0.487703 0.00143011 0)
(0.487899 0.000512465 0)
(0.487809 -0.000390454 0)
(0.487437 -0.00128512 0)
(0.486783 -0.00218023 0)
(0.485848 -0.00308741 0)
(0.458883 0.0211946 0)
(0.467785 0.0201203 0)
(0.476276 0.0190508 0)
(0.484351 0.0179889 0)
(0.492011 0.0169368 0)
(0.499261 0.015897 0)
(0.506103 0.0148714 0)
(0.51254 0.0138621 0)
(0.518579 0.0128709 0)
(0.524223 0.0118993 0)
(0.529478 0.0109488 0)
(0.534351 0.0100205 0)
(0.538848 0.00911548 0)
(0.542976 0.00823463 0)
(0.546743 0.00737864 0)
(0.550156 0.006548 0)
(0.553223 0.00574301 0)
(0.555952 0.00496363 0)
(0.558351 0.00420954 0)
(0.560429 0.0034798 0)
(0.562193 0.00277401 0)
(0.563652 0.00209139 0)
(0.564812 0.00143069 0)
(0.56568 0.000787014 0)
(0.566262 0.000157717 0)
(0.566564 -0.000458928 0)
(0.566592 -0.00106947 0)
(0.566343 -0.00168143 0)
(0.565821 -0.0023037 0)
(0.569286 0.0120922 0)
(0.577449 0.0114324 0)
(0.585224 0.0107773 0)
(0.592606 0.0101287 0)
(0.599597 0.0094881 0)
(0.606201 0.00885692 0)
(0.61242 0.00823643 0)
(0.61826 0.00762788 0)
(0.623725 0.00703236 0)
(0.628822 0.00645084 0)
(0.633555 0.00588414 0)
(0.637932 0.00533298 0)
(0.64196 0.00479795 0)
(0.645647 0.00427952 0)
(0.649 0.00377803 0)
(0.652028 0.00329371 0)
(0.654739 0.00282668 0)
(0.657143 0.00237686 0)
(0.659246 0.00194408 0)
(0.661059 0.00152683 0)
(0.662591 0.00112424 0)
(0.663851 0.000736238 0)
(0.664841 0.000360465 0)
(0.665571 -1.40119e-06 0)
(0.666051 -0.000353466 0)
(0.666286 -0.000698176 0)
(0.666276 -0.00104027 0)
(0.666022 -0.00138463 0)
(0.665527 -0.00173722 0)
(0.722423 0.00439033 0)
(0.72835 0.00410662 0)
(0.733958 0.00382643 0)
(0.739246 0.00355085 0)
(0.744217 0.00328059 0)
(0.748875 0.0030162 0)
(0.753224 0.00275818 0)
(0.757271 0.00250703 0)
(0.761019 0.00226318 0)
(0.764476 0.00202697 0)
(0.767649 0.0017987 0)
(0.770544 0.00157858 0)
(0.773169 0.00136677 0)
(0.775532 0.00116337 0)
(0.777641 0.000968355 0)
(0.779503 0.000781728 0)
(0.781128 0.000603222 0)
(0.782523 0.000433033 0)
(0.783696 0.000270744 0)
(0.784655 0.000118296 0)
(0.78541 -2.64025e-05 0)
(0.785967 -0.000166159 0)
(0.786334 -0.000302869 0)
(0.786518 -0.000433333 0)
(0.786522 -0.000559043 0)
(0.786349 -0.000683742 0)
(0.786004 -0.000809014 0)
(0.785486 -0.000936787 0)
(0.784796 -0.00107019 0)
(0.907208 0.000554577 0)
(0.909344 0.000498004 0)
(0.911328 0.000442772 0)
(0.91316 0.000389196 0)
(0.914845 0.000337468 0)
(0.916385 0.000287675 0)
(0.917785 0.000239889 0)