/*--------------------------------*- C++ -*----------------------------------*\
  =========                 |
  \\      /  F ield         | OpenFOAM: The Open Source CFD Toolbox
   \\    /   O peration     | Website:  https://openfoam.org
    \\  /    A nd           | Version:  9
     \\/     M anipulation  |
\*---------------------------------------------------------------------------*/
FoamFile
{
    format      ascii;
    class       volScalarField;
    location    "2.5";
    object      p;
}
// * * * * * * * * * * * * * * * * * * * * * * * * * * * * * * * * * * * * * //

dimensions      [0 2 -2 0 0 0 0];

internalField   nonuniform List<scalar> 
1240
(
0.000249167
0.000376112
0.000431602
0.000413283
0.000320741
0.000155535
-7.88468e-05
-0.000377128
-0.000732476
-0.00113664
-0.00158049
-0.00205428
-0.00254797
-0.0030517
-0.00355606
-0.00405242
-0.00453312
-0.00499169
-0.00542291
-0.00582287
-0.00618889
-0.00651945
-0.00681409
-0.00707321
-0.00729789
-0.00748974
-0.00765066
-0.00778269
-0.00788782
-0.00796791
-0.00802453
-0.00805906
-0.00807276
-0.00806717
-0.00804485
-0.00801056
-0.00797183
-0.00794148
-3.33274e-05
8.43202e-05
0.000134228
0.000114164
2.37575e-05
-0.000135473
-0.000360156
-0.000645211
-0.000984059
-0.0013689
-0.00179095
-0.00224097
-0.00270947
-0.00318714
-0.00366513
-0.00413536
-0.00459071
-0.00502517
-0.00543393
-0.00581338
-0.00616108
-0.00647568
-0.00675675
-0.00700469
-0.00722051
-0.00740568
-0.00756196
-0.00769128
-0.00779553
-0.00787654
-0.00793599
-0.00797543
-0.00799636
-0.00800047
-0.00799016
-0.00796912
-0.00794157
-0.00791109
-0.000225188
-0.00011049
-6.20256e-05
-8.20334e-05
-0.000170899
-0.000327123
-0.000547354
-0.000826534
-0.00115811
-0.00153429
-0.00194644
-0.00238534
-0.00284161
-0.0033061
-0.00377015
-0.00422589
-0.00466642
-0.005086
-0.00548008
-0.0058453
-0.00617949
-0.00648149
-0.00675106
-0.00698874
-0.00719566
-0.00737335
-0.00752364
-0.00764846
-0.00774975
-0.00782937
-0.00788901
-0.00793022
-0.00795442
-0.00796302
-0.00795784
-0.00794138
-0.00791411
-0.00787228
-0.000407005
-0.000290166
-0.000239116
-0.000256208
-0.000341918
-0.000494797
-0.000711504
-0.000986949
-0.0013145
-0.00168628
-0.00209348
-0.00252691
-0.00297687
-0.00343423
-0.00389026
-0.00433707
-0.00476784
-0.0051769
-0.00555988
-0.00591359
-0.00623616
-0.0065266
-0.00678497
-0.00701202
-0.00720912
-0.007378
-0.00752064
-0.00763913
-0.00773551
-0.0078117
-0.0078694
-0.00791008
-0.00793497
-0.00794502
-0.00794134
-0.00792534
-0.00789437
-0.00783949
-0.000633489
-0.000509039
-0.000450307
-0.000459872
-0.000538404
-0.000684588
-0.000895161
-0.00116504
-0.00148753
-0.00185464
-0.00225739
-0.00268626
-0.00313154
-0.00358373
-0.00403392
-0.00447407
-0.00489725
-0.00529779
-0.00567135
-0.0060149
-0.00632658
-0.00660582
-0.00685286
-0.00706874
-0.00725509
-0.00741393
-0.00754748
-0.00765802
-0.00774776
-0.00781872
-0.00787266
-0.00791098
-0.00793468
-0.00794431
-0.00794035
-0.00792332
-0.00788821
-0.00782217
-0.000937633
-0.00079855
-0.000725169
-0.000720438
-0.000785356
-0.000918877
-0.00111793
-0.00137755
-0.00169105
-0.00205037
-0.00244637
-0.00286929
-0.00330913
-0.00375607
-0.00420096
-0.00463536
-0.00505217
-0.00544554
-0.00581101
-0.00614556
-0.00644745
-0.00671619
-0.00695228
-0.00715702
-0.00733231
-0.00748047
-0.007604
-0.00770544
-0.00778722
-0.00785151
-0.00790015
-0.00793452
-0.00795548
-0.00796327
-0.0079579
-0.00793922
-0.00790065
-0.00782676
-0.00135365
-0.00119114
-0.00109407
-0.00106593
-0.00110821
-0.00122032
-0.00139956
-0.00164123
-0.0019388
-0.00228425
-0.00266836
-0.00308117
-0.00351239
-0.00395187
-0.00439
-0.00481805
-0.00522849
-0.00561514
-0.00597333
-0.00629987
-0.00659299
-0.00685217
-0.00707814
-0.00727231
-0.00743685
-0.00757435
-0.00768761
-0.00777944
-0.00785252
-0.00790923
-0.00795153
-0.00798086
-0.00799802
-0.00800308
-0.00799572
-0.00797538
-0.00793458
-0.00785656
-0.0019177
-0.00172114
-0.00158923
-0.00152616
-0.00153415
-0.00161325
-0.00176136
-0.00197428
-0.00224584
-0.00256822
-0.00293227
-0.00332792
-0.00374465
-0.00417198
-0.00459984
-0.00501906
-0.00542161
-0.00580086
-0.00615175
-0.00647076
-0.00675592
-0.00700666
-0.00722349
-0.00740809
-0.00756276
-0.00769029
-0.00779373
-0.00787616
-0.00794051
-0.0079894
-0.00802497
-0.00804878
-0.00806167
-0.00806365
-0.00805425
-0.00803268
-0.00799113
-0.00791256
-0.00331318
-0.0029663
-0.0026673
-0.00242446
-0.00224461
-0.00213285
-0.00209234
-0.00212407
-0.00222679
-0.00239706
-0.00262934
-0.00291626
-0.00324892
-0.00361734
-0.00401087
-0.00441874
-0.00483046
-0.00523632
-0.00562774
-0.0059975
-0.00633999
-0.00665121
-0.00692878
-0.00717183
-0.00738077
-0.00755713
-0.00770327
-0.00782208
-0.00791681
-0.00799075
-0.00804708
-0.00808863
-0.00811776
-0.00813622
-0.00814495
-0.00814401
-0.00813294
-0.00811084
-0.00807006
-0.00799407
-0.00527822
-0.00482504
-0.00439412
-0.0039962
-0.00364139
-0.00333887
-0.00309646
-0.00292041
-0.00281502
-0.00278251
-0.0028228
-0.00293353
-0.00311011
-0.00334595
-0.00363268
-0.00396062
-0.00431919
-0.00469742
-0.00508449
-0.00547015
-0.00584517
-0.00620166
-0.00653329
-0.0068354
-0.00710504
-0.00734083
-0.00754284
-0.00771231
-0.0078515
-0.00796327
-0.00805092
-0.0081179
-0.00816755
-0.00820292
-0.00822659
-0.00824047
-0.00824571
-0.0082425
-0.00823045
-0.0082087
-0.00817009
-0.00809924
-0.00674627
-0.00624652
-0.0057613
-0.00530191
-0.00487916
-0.00450313
-0.0041828
-0.00392566
-0.00373745
-0.00362186
-0.00358034
-0.00361198
-0.00371352
-0.00387951
-0.00410249
-0.00437341
-0.004682
-0.00501734
-0.00536834
-0.00572429
-0.00607528
-0.00641266
-0.00672925
-0.00701957
-0.00727986
-0.00750806
-0.00770363
-0.00786738
-0.00800119
-0.00810777
-0.00819033
-0.00825232
-0.00829717
-0.00832809
-0.00834782
-0.00835847
-0.00836138
-0.00835693
-0.00834487
-0.00832445
-0.00828923
-0.00822542
-0.00854865
-0.00799666
-0.00744972
-0.00691955
-0.00641761
-0.00595487
-0.00554147
-0.0051863
-0.00489671
-0.00467812
-0.00453382
-0.00446474
-0.00446941
-0.00454395
-0.00468227
-0.00487634
-0.00511662
-0.00539248
-0.00569283
-0.00600657
-0.00632321
-0.00663325
-0.00692856
-0.00720266
-0.0074508
-0.00766997
-0.00785882
-0.00801747
-0.00814724
-0.00825043
-0.00832999
-0.00838921
-0.00843151
-0.00846012
-0.0084779
-0.00848712
-0.00848926
-0.00848492
-0.00847402
-0.00845596
-0.00842514
-0.00836963
-0.0107085
-0.0101007
-0.00948676
-0.00887863
-0.00828826
-0.00772743
-0.00720736
-0.00673836
-0.00632947
-0.00598806
-0.00571954
-0.00552705
-0.00541133
-0.0053706
-0.00540066
-0.00549504
-0.00564537
-0.00584181
-0.00607354
-0.00632936
-0.00659828
-0.00686999
-0.00713536
-0.00738674
-0.00761818
-0.0078255
-0.00800628
-0.00815966
-0.00828617
-0.00838746
-0.00846599
-0.00852472
-0.00856686
-0.00859557
-0.00861369
-0.00862356
-0.0086268
-0.00862416
-0.00861573
-0.00860105
-0.00857545
-0.00852888
-0.0132359
-0.0125715
-0.0118883
-0.0111982
-0.0105133
-0.00984615
-0.00920875
-0.00861276
-0.00806888
-0.0075865
-0.00717331
-0.00683501
-0.00657493
-0.00639392
-0.00629022
-0.00625958
-0.00629542
-0.00638922
-0.00653095
-0.0067097
-0.00691422
-0.00713353
-0.0073575
-0.0075772
-0.00778532
-0.00797627
-0.00814623
-0.00829312
-0.00841637
-0.0085167
-0.00859583
-0.0086562
-0.00870051
-0.0087318
-0.0087527
-0.0087655
-0.00877186
-0.00877264
-0.00876806
-0.00875777
-0.00873797
-0.00870047
-0.0161252
-0.0154065
-0.0146553
-0.0138831
-0.0131019
-0.0123244
-0.0115634
-0.0108315
-0.0101408
-0.00950272
-0.00892724
-0.00842274
-0.00799551
-0.00764947
-0.00738591
-0.00720344
-0.007098
-0.00706312
-0.00709025
-0.00716931
-0.00728926
-0.00743874
-0.0076067
-0.00778298
-0.00795871
-0.00812667
-0.0082814
-0.00841923
-0.00853817
-0.00863771
-0.00871854
-0.00878225
-0.00883099
-0.0088672
-0.00889328
-0.00891132
-0.0089229
-0.00892888
-0.00892952
-0.00892457
-0.00891099
-0.00888227
-0.0193528
-0.0185856
-0.0177715
-0.0169214
-0.0160469
-0.0151605
-0.014275
-0.0134037
-0.0125599
-0.0117566
-0.0110059
-0.0103188
-0.00970484
-0.00917119
-0.00872274
-0.00836161
-0.00808707
-0.00789554
-0.00778079
-0.00773437
-0.0077461
-0.00780473
-0.00789866
-0.00801657
-0.00814802
-0.00828397
-0.00841702
-0.00854159
-0.0086539
-0.00875184
-0.00883472
-0.008903
-0.00895791
-0.0090012
-0.00903473
-0.00906024
-0.00907907
-0.00909199
-0.00909919
-0.00910046
-0.00909335
-0.00907283
-0.0228782
-0.022071
-0.0212028
-0.0202834
-0.0193235
-0.0183349
-0.0173302
-0.0163226
-0.0153261
-0.0143547
-0.0134223
-0.0125425
-0.0117274
-0.0109879
-0.0103327
-0.0097681
-0.00929731
-0.00892059
-0.00863503
-0.0084348
-0.0083115
-0.00825479
-0.00825305
-0.00829416
-0.00836624
-0.00845834
-0.00856088
-0.00866602
-0.00876781
-0.00886212
-0.00894648
-0.00901983
-0.00908219
-0.00913431
-0.00917728
-0.00921229
-0.00924029
-0.00926177
-0.0092768
-0.00928506
-0.00928461
-0.00927154
-0.0266459
-0.0258096
-0.0248989
-0.0239224
-0.0228895
-0.0218108
-0.020698
-0.0195639
-0.0184223
-0.0172877
-0.0161751
-0.0150997
-0.0140765
-0.0131195
-0.0122414
-0.0114526
-0.0107613
-0.0101722
-0.00968687
-0.00930315
-0.00901565
-0.00881597
-0.00869338
-0.00863561
-0.0086297
-0.00866288
-0.00872329
-0.00880052
-0.00888602
-0.00897319
-0.00905731
-0.00913539
-0.00920582
-0.00926801
-0.00932206
-0.00936832
-0.00940716
-0.00943869
-0.00946269
-0.00947869
-0.00948501
-0.00947862
-0.0305902
-0.0297366
-0.028797
-0.0277781
-0.0266878
-0.0255354
-0.024331
-0.0230862
-0.0218141
-0.0205288
-0.0192457
-0.0179809
-0.0167512
-0.0155734
-0.0144637
-0.013437
-0.0125062
-0.0116813
-0.0109692
-0.0103728
-0.00989083
-0.0095183
-0.00924659
-0.00906428
-0.00895806
-0.00891372
-0.00891717
-0.00895526
-0.00901645
-0.00909118
-0.00917198
-0.00925339
-0.00933172
-0.00940467
-0.00947095
-0.00952987
-0.009581
-0.00962387
-0.00965787
-0.00968226
-0.00969551
-0.00969513
-0.0346403
-0.0337816
-0.0328269
-0.0317815
-0.0306516
-0.0294444
-0.0281684
-0.0268336
-0.0254515
-0.024035
-0.0225989
-0.0211595
-0.0197343
-0.018342
-0.0170015
-0.0157316
-0.01455
-0.0134722
-0.012511
-0.0116753
-0.0109695
-0.0103935
-0.00994225
-0.00960667
-0.00937419
-0.00922997
-0.00915807
-0.00914263
-0.00916883
-0.0092237
-0.00929642
-0.00937851
-0.00946364
-0.00954731
-0.00962649
-0.00969909
-0.00976366
-0.00981899
-0.00986391
-0.00989729
-0.00991771
-0.00992284
-0.0387269
-0.037874
-0.0369175
-0.0358612
-0.0347094
-0.0334675
-0.0321419
-0.0307404
-0.0292725
-0.0277495
-0.0261846
-0.024593
-0.0229922
-0.0214012
-0.0198408
-0.0183327
-0.0168986
-0.0155594
-0.0143339
-0.0132376
-0.0122819
-0.011473
-0.0108112
-0.0102915
-0.0099037
-0.0096336
-0.00946421
-0.00937729
-0.00935474
-0.00937977
-0.00943767
-0.00951628
-0.009606
-0.00969957
-0.00979172
-0.00987861
-0.00995749
-0.0100262
-0.0100829
-0.0101259
-0.0101536
-0.0101642
-0.042787
-0.041949
-0.0410023
-0.039949
-0.0387918
-0.0375342
-0.0361807
-0.0347366
-0.0332092
-0.0316073
-0.0299419
-0.0282264
-0.0264768
-0.0247117
-0.022952
-0.0212211
-0.0195435
-0.0179446
-0.0164489
-0.0150787
-0.0138529
-0.0127853
-0.0118835
-0.0111483
-0.0105742
-0.010149
-0.0098563
-0.00967621
-0.00958765
-0.00956989
-0.00960385
-0.009673
-0.00976377
-0.00986546
-0.00996998
-0.0100714
-0.0101651
-0.0102479
-0.0103171
-0.0103705
-0.010406
-0.0104221
-0.046768
-0.0459518
-0.0450237
-0.0439848
-0.0428363
-0.0415799
-0.0402181
-0.0387541
-0.0371927
-0.0355399
-0.0338042
-0.0319963
-0.0301298
-0.0282214
-0.0262912
-0.0243623
-0.0224609
-0.0206151
-0.0188541
-0.0172066
-0.015699
-0.0143534
-0.0131861
-0.0122059
-0.0114138
-0.0108023
-0.0103572
-0.0100585
-0.00988301
-0.00980615
-0.00980423
-0.00985577
-0.00994245
-0.0100494
-0.010165
-0.0102805
-0.0103894
-0.0104869
-0.0105693
-0.0106337
-0.0106777
-0.0106997
-0.0506298
-0.0498396
-0.0489364
-0.0479203
-0.0467912
-0.0455496
-0.044196
-0.0427318
-0.0411593
-0.0394819
-0.0377052
-0.0358368
-0.0338872
-0.0318703
-0.0298038
-0.0277094
-0.0256128
-0.0235434
-0.0215334
-0.0196164
-0.0178255
-0.0161916
-0.0147401
-0.0134896
-0.0124497
-0.0116201
-0.0109913
-0.0105454
-0.0102582
-0.0101023
-0.0100494
-0.0100726
-0.0101481
-0.0102561
-0.0103805
-0.0105094
-0.0106335
-0.0107461
-0.0108424
-0.0109185
-0.0109717
-0.0110007
-0.0543451
-0.0535829
-0.0527081
-0.05172
-0.0506177
-0.0494006
-0.0480678
-0.046619
-0.0450544
-0.0433751
-0.0415836
-0.0396845
-0.0376848
-0.035595
-0.0334293
-0.0312065
-0.0289503
-0.0266894
-0.0244568
-0.0222892
-0.0202253
-0.0183033
-0.0165581
-0.0150188
-0.0137055
-0.0126278
-0.0117835
-0.0111591
-0.0107322
-0.0104737
-0.0103512
-0.0103324
-0.0103875
-0.0104906
-0.0106207
-0.0107613
-0.0109002
-0.0110284
-0.0111393
-0.011228
-0.0112914
-0.0113283
-0.0578982
-0.0571642
-0.0563188
-0.0553612
-0.0542898
-0.0531032
-0.0517997
-0.0503775
-0.0488352
-0.0471719
-0.0453874
-0.0434834
-0.0414635
-0.0393343
-0.037106
-0.0347936
-0.0324172
-0.0300028
-0.0275824
-0.0251935
-0.0228778
-0.0206795
-0.0186419
-0.0168046
-0.0151995
-0.0138477
-0.0127573
-0.0119227
-0.0113255
-0.0109373
-0.010723
-0.0106454
-0.0106681
-0.0107586
-0.0108897
-0.01104
-0.0111929
-0.0113367
-0.0114629
-0.0115651
-0.0116398
-0.0116862
-0.0612835
-0.0605762
-0.0597595
-0.0588324
-0.0577932
-0.05664
-0.0553703
-0.0539817
-0.0524714
-0.0508368
-0.049076
-0.0471878
-0.0451727
-0.0430334
-0.0407763
-0.0384114
-0.0359547
-0.0334278
-0.0308598
-0.0282865
-0.0257503
-0.0232986
-0.0209816
-0.018848
-0.0169416
-0.0152965
-0.0139336
-0.0128579
-0.0120588
-0.0115113
-0.0111798
-0.011023
-0.0109984
-0.0110662
-0.0111924
-0.0113489
-0.0115147
-0.0116741
-0.0118162
-0.011933
-0.0120203
-0.0120778
-0.0645026
-0.0638195
-0.0630295
-0.0621313
-0.0611234
-0.0600035
-0.0587692
-0.0574172
-0.0559443
-0.0543466
-0.0526206
-0.0507632
-0.0487721
-0.0466469
-0.0443895
-0.0420057
-0.0395062
-0.0369077
-0.0342343
-0.0315183
-0.0288
-0.0261277
-0.0235552
-0.0211386
-0.0189324
-0.0169839
-0.0153283
-0.0139843
-0.0129523
-0.0122144
-0.0117373
-0.0114778
-0.011388
-0.0114207
-0.0115337
-0.0116922
-0.0118688
-0.0120436
-0.0122022
-0.0123346
-0.0124358
-0.0125064
-0.0675622
-0.0669004
-0.066134
-0.065262
-0.0642829
-0.0631946
-0.0619945
-0.0606794
-0.0592455
-0.0576885
-0.0560038
-0.0541868
-0.0522332
-0.0501397
-0.0479049
-0.04553
-0.0430208
-0.0403884
-0.037651
-0.0348354
-0.0319781
-0.0291247
-0.02633
-0.0236547
-0.0211616
-0.0189102
-0.0169505
-0.0153168
-0.0140239
-0.0130647
-0.0124122
-0.0120237
-0.0118475
-0.0118297
-0.0119197
-0.0120742
-0.0122589
-0.0124482
-0.0126237
-0.0127729
-0.0128895
-0.0129751
-0.070472
-0.0698282
-0.0690821
-0.0682329
-0.0672792
-0.0662193
-0.0650507
-0.0637703
-0.0623744
-0.0608585
-0.0592174
-0.0574457
-0.0555377
-0.0534879
-0.0512921
-0.0489479
-0.0464561
-0.0438223
-0.0410586
-0.0381854
-0.0352328
-0.0322421
-0.0292656
-0.0263651
-0.0236088
-0.0210663
-0.0188013
-0.0168648
-0.0152883
-0.0140792
-0.0132209
-0.0126751
-0.0123888
-0.0123024
-0.0123569
-0.0124999
-0.0126888
-0.0128912
-0.0130839
-0.0132508
-0.0133844
-0.013487
-0.0726139
-0.0718847
-0.0710545
-0.0701225
-0.069087
-0.0679462
-0.0666971
-0.0653362
-0.0638593
-0.0622611
-0.0605358
-0.0586768
-0.0566774
-0.0545312
)
;

boundaryField
{
    movingWall
    {
        type            zeroGradient;
    }
    fixedWalls
    {
        type            zeroGradient;
    }
    frontAndBack
    {
        type            empty;
    }
    procBoundary7to1
    {
        type            processor;
        value           nonuniform List<scalar> 
33
(
5.49707e-05
-0.000214704
-0.000402118
-0.000585506
-0.000819285
-0.0011377
-0.00157637
-0.00247938
-0.00217294
-0.00217294
-0.00411201
-0.00369848
-0.00369848
-0.00574269
-0.00724936
-0.00909433
-0.0112988
-0.0138704
-0.0168007
-0.0200634
-0.0236157
-0.0274007
-0.0313518
-0.0353987
-0.0394733
-0.0435145
-0.0474717
-0.051307
-0.054995
-0.0585217
-0.0618824
-0.0650795
-0.0681201
)
;
    }
    procBoundary7to6
    {
        type            processor;
        value           nonuniform List<scalar> 
45
(
-0.0710137
-0.0732427
-0.0522328
-0.049779
-0.0471704
-0.0444127
-0.0415195
-0.0385139
-0.0354303
-0.0323161
-0.0292309
-0.0262446
-0.0234335
-0.0208732
-0.0186304
-0.0167549
-0.0152719
-0.0141789
-0.0134466
-0.0130243
-0.0128484
-0.0128525
-0.0129746
-0.0131626
-0.0133761
-0.0135858
-0.0137713
-0.0139233
-0.0140451
-0.0732427
-0.0752685
-0.074553
-0.0737383
-0.072824
-0.071809
-0.0706916
-0.0694695
-0.0681395
-0.0666979
-0.0651396
-0.0634588
-0.0616488
-0.0597021
-0.0522328
-0.057611
)
;
    }
}


// ************************************************************************* //
