/*--------------------------------*- C++ -*----------------------------------*\
  =========                 |
  \\      /  F ield         | OpenFOAM: The Open Source CFD Toolbox
   \\    /   O peration     | Website:  https://openfoam.org
    \\  /    A nd           | Version:  9
     \\/     M anipulation  |
\*---------------------------------------------------------------------------*/
FoamFile
{
    format      ascii;
    class       volVectorField;
    location    "2.5";
    object      U;
}
// * * * * * * * * * * * * * * * * * * * * * * * * * * * * * * * * * * * * * //

dimensions      [0 1 -1 0 0 0 0];

internalField   nonuniform List<vector> 
1240
(
(-0.0103812 -0.000420428 0)
(-0.00894865 -0.000439216 0)
(-0.00747194 -0.000450285 0)
(-0.00597407 -0.000453275 0)
(-0.00447871 -0.000448059 0)
(-0.00300952 -0.000434769 0)
(-0.00158949 -0.000413805 0)
(-0.000240286 -0.000385843 0)
(0.00101831 -0.000351797 0)
(0.00216913 -0.000312662 0)
(0.00319812 -0.000269742 0)
(0.00409453 -0.000224352 0)
(0.00485127 -0.000177842 0)
(0.00546493 -0.000131515 0)
(0.00593571 -8.65883e-05 0)
(0.00626719 -4.41323e-05 0)
(0.00646598 -5.03225e-06 0)
(0.00654122 3.0036e-05 0)
(0.0065041 6.06158e-05 0)
(0.00636722 8.64755e-05 0)
(0.00614406 0.000107587 0)
(0.00584839 0.000124099 0)
(0.00549377 0.00013632 0)
(0.00509311 0.000144676 0)
(0.00465832 0.000149675 0)
(0.00420007 0.000151865 0)
(0.0037277 0.000151791 0)
(0.00324922 0.00014994 0)
(0.00277157 0.000146675 0)
(0.00230096 0.000142158 0)
(0.00184359 0.00013624 0)
(0.00140652 0.000128335 0)
(0.000998826 0.00011726 0)
(0.000633097 0.000101122 0)
(0.000326386 7.7473e-05 0)
(9.94557e-05 4.41799e-05 0)
(-2.43029e-05 2.72144e-06 0)
(-2.86526e-05 -2.88754e-05 0)
(-0.029643 -0.00266377 0)
(-0.0260095 -0.00276701 0)
(-0.0222744 -0.00282859 0)
(-0.0184887 -0.00284681 0)
(-0.014705 -0.00282104 0)
(-0.0109757 -0.00275182 0)
(-0.00735224 -0.00264092 0)
(-0.00388379 -0.00249131 0)
(-0.000615755 -0.00230711 0)
(0.0024112 -0.00209326 0)
(0.00516236 -0.00185563 0)
(0.00760977 -0.00160064 0)
(0.0097328 -0.00133508 0)
(0.0115186 -0.00106565 0)
(0.012962 -0.000798849 0)
(0.0140657 -0.000540697 0)
(0.0148393 -0.000296486 0)
(0.0152988 -7.06176e-05 0)
(0.0154657 0.000133506 0)
(0.0153658 0.000313543 0)
(0.0150281 0.000468255 0)
(0.0144832 0.000597347 0)
(0.0137628 0.000701445 0)
(0.012898 0.000781934 0)
(0.0119188 0.000840759 0)
(0.0108532 0.00088021 0)
(0.00972691 0.000902665 0)
(0.00856325 0.000910287 0)
(0.00738357 0.000904685 0)
(0.00620794 0.000886517 0)
(0.00505637 0.000855063 0)
(0.00395044 0.000807802 0)
(0.00291515 0.000740096 0)
(0.00198075 0.000645309 0)
(0.00118309 0.000516124 0)
(0.000560567 0.00034817 0)
(0.000153064 0.000149672 0)
(4.11626e-06 -2.40919e-05 0)
(-0.0480973 -0.00715975 0)
(-0.0428046 -0.00741728 0)
(-0.0373701 -0.00757318 0)
(-0.0318601 -0.00762353 0)
(-0.0263426 -0.00756676 0)
(-0.0208861 -0.00740385 0)
(-0.0155584 -0.0071384 0)
(-0.0104246 -0.0067767 0)
(-0.0055463 -0.00632753 0)
(-0.000979708 -0.00580198 0)
(0.00322555 -0.00521301 0)
(0.00702755 -0.00457507 0)
(0.0103933 -0.00390393 0)
(0.0132992 -0.00321541 0)
(0.0157315 -0.00252525 0)
(0.0176864 -0.00184845 0)
(0.0191697 -0.00119868 0)
(0.0201962 -0.00058781 0)
(0.020789 -2.56051e-05 0)
(0.020978 0.000480542 0)
(0.0207985 0.000925792 0)
(0.02029 0.00130764 0)
(0.0194945 0.0016259 0)
(0.0184549 0.00188239 0)
(0.0172138 0.0020805 0)
(0.0158128 0.00222469 0)
(0.014291 0.00231984 0)
(0.0126853 0.00237054 0)
(0.0110307 0.00238025 0)
(0.00936037 0.00235039 0)
(0.00770751 0.00227949 0)
(0.0061067 0.00216246 0)
(0.00459579 0.0019903 0)
(0.00321757 0.001751 0)
(0.00201941 0.00143272 0)
(0.00104912 0.00103061 0)
(0.00036189 0.000561067 0)
(4.85065e-05 0.000104631 0)
(-0.0665158 -0.0130752 0)
(-0.0599908 -0.0135273 0)
(-0.0532885 -0.0138077 0)
(-0.0464819 -0.0139099 0)
(-0.0396464 -0.0138309 0)
(-0.0328584 -0.0135716 0)
(-0.0261941 -0.013137 0)
(-0.0197282 -0.0125362 0)
(-0.0135323 -0.0117826 0)
(-0.00767319 -0.010893 0)
(-0.00221145 -0.00988792 0)
(0.0027995 -0.00879026 0)
(0.00731532 -0.00762511 0)
(0.0113017 -0.0064187 0)
(0.0147345 -0.00519739 0)
(0.0176005 -0.00398688 0)
(0.0198977 -0.00281119 0)
(0.0216346 -0.00169191 0)
(0.02283 -0.000647479 0)
(0.0235115 0.000307295 0)
(0.0237144 0.00116146 0)
(0.0234804 0.00190833 0)
(0.0228559 0.00254501 0)
(0.0218899 0.00307212 0)
(0.0206334 0.00349326 0)
(0.0191368 0.00381413 0)
(0.0174501 0.00404156 0)
(0.0156214 0.00418225 0)
(0.013697 0.00424143 0)
(0.0117222 0.00422141 0)
(0.00974176 0.00412024 0)
(0.00780151 0.0039307 0)
(0.00594992 0.00364013 0)
(0.00423969 0.00323185 0)
(0.00272737 0.00268959 0)
(0.0014698 0.00200592 0)
(0.000541359 0.00119761 0)
(8.5504e-05 0.000344193 0)
(-0.0855948 -0.0199915 0)
(-0.0781596 -0.0206746 0)
(-0.070507 -0.0211131 0)
(-0.0627118 -0.0212974 0)
(-0.054852 -0.0212221 0)
(-0.0470075 -0.0208873 0)
(-0.0392594 -0.0202986 0)
(-0.031688 -0.0194668 0)
(-0.0243716 -0.0184087 0)
(-0.0173852 -0.0171463 0)
(-0.0107982 -0.0157064 0)
(-0.00467349 -0.0141201 0)
(0.000934052 -0.0124214 0)
(0.00597928 -0.0106468 0)
(0.0104273 -0.00883342 0)
(0.0142543 -0.00701845 0)
(0.0174483 -0.00523723 0)
(0.0200089 -0.00352238 0)
(0.0219468 -0.00190274 0)
(0.0232836 -0.00040244 0)
(0.0240503 0.000959514 0)
(0.0242863 0.00216991 0)
(0.0240377 0.00322101 0)
(0.0233554 0.00411023 0)
(0.0222943 0.0048395 0)
(0.0209107 0.00541423 0)
(0.0192618 0.00584191 0)
(0.0174042 0.00613046 0)
(0.015394 0.00628635 0)
(0.0132862 0.00631262 0)
(0.0111357 0.0062071 0)
(0.00899823 0.00596104 0)
(0.00693139 0.00555883 0)
(0.00499681 0.00497959 0)
(0.00325996 0.00420169 0)
(0.00178786 0.00321104 0)
(0.000674837 0.0020146 0)
(0.000111635 0.000669652 0)
(-0.105835 -0.0276579 0)
(-0.0977225 -0.0286159 0)
(-0.0893427 -0.0292568 0)
(-0.0807696 -0.0295666 0)
(-0.0720816 -0.029537 0)
(-0.0633605 -0.029166 0)
(-0.0546899 -0.0284583 0)
(-0.0461547 -0.0274256 0)
(-0.0378386 -0.0260867 0)
(-0.0298233 -0.0244675 0)
(-0.0221864 -0.0226002 0)
(-0.0149997 -0.0205229 0)
(-0.00832803 -0.0182782 0)
(-0.00222703 -0.015912 0)
(0.00325738 -0.0134725 0)
(0.0080905 -0.0110082 0)
(0.0122495 -0.00856617 0)
(0.0157237 -0.0061911 0)
(0.0185144 -0.00392331 0)
(0.0206348 -0.00179777 0)
(0.0221091 0.000156881 0)
(0.0229716 0.00191877 0)
(0.023265 0.00347332 0)
(0.023039 0.00481263 0)
(0.0223492 0.00593495 0)
(0.0212547 0.00684353 0)
(0.0198171 0.00754491 0)
(0.0180993 0.00804697 0)
(0.0161644 0.00835651 0)
(0.0140757 0.00847689 0)
(0.0118967 0.00840562 0)
(0.00969153 0.00813269 0)
(0.00752636 0.00763985 0)
(0.00547128 0.00690181 0)
(0.00360088 0.00589007 0)
(0.00199285 0.00457979 0)
(0.000759473 0.00296025 0)
(0.000127316 0.00105423 0)
(-0.127473 -0.035879 0)
(-0.11885 -0.0371665 0)
(-0.109898 -0.0380661 0)
(-0.10069 -0.0385587 0)
(-0.0913029 -0.0386316 0)
(-0.0818195 -0.0382793 0)
(-0.072326 -0.0375045 0)
(-0.0629108 -0.036318 0)
(-0.053663 -0.0347397 0)
(-0.0446708 -0.0327979 0)
(-0.03602 -0.030529 0)
(-0.0277913 -0.0279772 0)
(-0.0200595 -0.0251926 0)
(-0.012891 -0.0222305 0)
(-0.00634269 -0.0191495 0)
(-0.000460407 -0.0160093 0)
(0.00472184 -0.0128693 0)
(0.00918255 -0.00978644 0)
(0.012913 -0.00681351 0)
(0.0159173 -0.00399738 0)
(0.0182114 -0.00137786 0)
(0.0198229 0.00101315 0)
(0.0207896 0.00315209 0)
(0.0211579 0.00502403 0)
(0.0209818 0.00662158 0)
(0.0203209 0.00794385 0)
(0.019239 0.00899473 0)
(0.017803 0.0097805 0)
(0.0160813 0.0103072 0)
(0.0141437 0.0105777 0)
(0.0120606 0.0105887 0)
(0.00990387 0.0103289 0)
(0.0077474 0.00977718 0)
(0.00566951 0.00890332 0)
(0.00375366 0.00767049 0)
(0.00208776 0.00604016 0)
(0.00079823 0.00397934 0)
(0.00013395 0.00147138 0)
(-0.150482 -0.044509 0)
(-0.141474 -0.046191 0)
(-0.132066 -0.0474173 0)
(-0.122327 -0.0481623 0)
(-0.112334 -0.0484076 0)
(-0.102168 -0.0481428 0)
(-0.0919181 -0.0473666 0)
(-0.081676 -0.0460879 0)
(-0.0715362 -0.0443255 0)
(-0.0615937 -0.0421089 0)
(-0.0519426 -0.0394777 0)
(-0.0426734 -0.036481 0)
(-0.0338712 -0.0331757 0)
(-0.0256138 -0.0296259 0)
(-0.0179695 -0.0259002 0)
(-0.010996 -0.0220697 0)
(-0.00473871 -0.0182063 0)
(0.000769777 -0.0143798 0)
(0.00551038 -0.0106559 0)
(0.00947754 -0.00709447 0)
(0.0126789 -0.00374763 0)
(0.0151345 -0.000658665 0)
(0.0168764 0.00213854 0)
(0.0179467 0.0046201 0)
(0.0183965 0.00677124 0)
(0.0182843 0.00858518 0)
(0.0176748 0.0100614 0)
(0.016637 0.0112031 0)
(0.015243 0.0120141 0)
(0.0135676 0.0124958 0)
(0.0116871 0.0126436 0)
(0.00968005 0.0124439 0)
(0.00762743 0.0118727 0)
(0.00561518 0.0108941 0)
(0.00373495 0.00946205 0)
(0.00208352 0.00752283 0)
(0.000796855 0.00501985 0)
(0.000133152 0.00189748 0)
(-0.191517 -0.0477347 0)
(-0.183356 -0.0508014 0)
(-0.174611 -0.0534318 0)
(-0.16533 -0.055582 0)
(-0.15557 -0.0572127 0)
(-0.145394 -0.0582905 0)
(-0.134878 -0.0587898 0)
(-0.124102 -0.0586933 0)
(-0.113155 -0.0579944 0)
(-0.102132 -0.0566975 0)
(-0.0911335 -0.0548191 0)
(-0.0802606 -0.052388 0)
(-0.0696163 -0.0494455 0)
(-0.0593017 -0.0460443 0)
(-0.0494134 -0.0422477 0)
(-0.0400414 -0.0381275 0)
(-0.031267 -0.0337625 0)
(-0.0231603 -0.0292353 0)
(-0.0157795 -0.0246305 0)
(-0.00916868 -0.0200314 0)
(-0.00335794 -0.0155175 0)
(0.00163728 -0.0111627 0)
(0.00581589 -0.00703239 0)
(0.00919056 -0.00318265 0)
(0.011787 0.000341231 0)
(0.0136426 0.00350473 0)
(0.0148053 0.00628414 0)
(0.0153317 0.00866521 0)
(0.0152862 0.0106414 0)
(0.014739 0.0122113 0)
(0.013765 0.0133753 0)
(0.0124426 0.0141321 0)
(0.0108533 0.0144746 0)
(0.00908112 0.0143868 0)
(0.00721366 0.0138406 0)
(0.0053436 0.0127945 0)
(0.00356965 0.0111925 0)
(0.0019956 0.00896618 0)
(0.000762442 0.0060364 0)
(0.00012654 0.0023128 0)
(-0.230722 -0.0469903 0)
(-0.22394 -0.0514813 0)
(-0.216452 -0.0556066 0)
(-0.208279 -0.0593097 0)
(-0.199454 -0.0625363 0)
(-0.190017 -0.0652337 0)
(-0.180015 -0.0673537 0)
(-0.169509 -0.0688539 0)
(-0.158565 -0.0696991 0)
(-0.147265 -0.0698639 0)
(-0.135694 -0.0693335 0)
(-0.12395 -0.0681061 0)
(-0.112136 -0.0661934 0)
(-0.100362 -0.0636216 0)
(-0.0887393 -0.0604317 0)
(-0.0773794 -0.0566785 0)
(-0.0663921 -0.0524303 0)
(-0.0558813 -0.0477664 0)
(-0.0459428 -0.0427752 0)
(-0.0366614 -0.0375512 0)
(-0.0281091 -0.0321922 0)
(-0.0203435 -0.0267959 0)
(-0.0134068 -0.0214569 0)
(-0.007325 -0.0162639 0)
(-0.00210852 -0.0112972 0)
(0.00224766 -0.00662684 0)
(0.00576297 -0.00231116 0)
(0.00847012 0.00160362 0)
(0.0104136 0.0050833 0)
(0.0116482 0.0081048 0)
(0.0122377 0.0106542 0)
(0.0122531 0.0127239 0)
(0.0117712 0.0143098 0)
(0.0108737 0.0154065 0)
(0.00964625 0.0160037 0)
(0.00817799 0.016082 0)
(0.00656208 0.015609 0)
(0.00489709 0.014537 0)
(0.00328743 0.012801 0)
(0.00184196 0.0103188 0)
(0.000702747 0.0069919 0)
(0.000115712 0.00270179 0)
(-0.255209 -0.0533271 0)
(-0.248642 -0.0585552 0)
(-0.241325 -0.0634019 0)
(-0.233271 -0.067804 0)
(-0.2245 -0.0716987 0)
(-0.215041 -0.0750245 0)
(-0.204934 -0.0777232 0)
(-0.194227 -0.0797417 0)
(-0.182981 -0.0810343 0)
(-0.17127 -0.0815645 0)
(-0.159177 -0.0813076 0)
(-0.146799 -0.0802524 0)
(-0.134241 -0.0784032 0)
(-0.121619 -0.0757809 0)
(-0.109051 -0.0724233 0)
(-0.0966621 -0.0683858 0)
(-0.0845749 -0.0637395 0)
(-0.072909 -0.0585703 0)
(-0.0617768 -0.0529757 0)
(-0.0512804 -0.0470623 0)
(-0.0415086 -0.0409417 0)
(-0.0325348 -0.0347273 0)
(-0.0244153 -0.0285301 0)
(-0.0171887 -0.0224556 0)
(-0.0108759 -0.0166003 0)
(-0.00548016 -0.0110501 0)
(-0.000988654 -0.00587791 0)
(0.00262654 -0.0011432 0)
(0.00540685 0.00310802 0)
(0.00740545 0.00684241 0)
(0.00868562 0.0100373 0)
(0.00931916 0.0126781 0)
(0.00938494 0.0147545 0)
(0.00896757 0.0162565 0)
(0.00815649 0.0171694 0)
(0.00704539 0.0174698 0)
(0.00573239 0.0171206 0)
(0.00432096 0.0160683 0)
(0.00291992 0.0142395 0)
(0.00164144 0.0115408 0)
(0.000625686 0.00785839 0)
(0.000102212 0.00305325 0)
(-0.278767 -0.0593779 0)
(-0.272536 -0.0653759 0)
(-0.265525 -0.0709879 0)
(-0.257734 -0.0761441 0)
(-0.249171 -0.080774 0)
(-0.239851 -0.0848068 0)
(-0.229801 -0.0881741 0)
(-0.219057 -0.090811 0)
(-0.207669 -0.0926594 0)
(-0.1957 -0.0936698 0)
(-0.183227 -0.0938048 0)
(-0.170342 -0.0930409 0)
(-0.157149 -0.0913715 0)
(-0.143767 -0.0888086 0)
(-0.130321 -0.0853838 0)
(-0.116947 -0.0811494 0)
(-0.103781 -0.0761774 0)
(-0.0909604 -0.0705578 0)
(-0.0786163 -0.0643967 0)
(-0.0668708 -0.0578122 0)
(-0.0558332 -0.0509307 0)
(-0.0455961 -0.0438823 0)
(-0.0362335 -0.0367964 0)
(-0.0277996 -0.0297973 0)
(-0.020328 -0.0230004 0)
(-0.0138322 -0.0165093 0)
(-0.00830685 -0.0104139 0)
(-0.00372904 -0.00478864 0)
(-6.05073e-05 0.000307016 0)
(0.00275063 0.00482803 0)
(0.00476778 0.00874184 0)
(0.00606404 0.0120255 0)
(0.00672059 0.0146617 0)
(0.0068252 0.0166348 0)
(0.0064711 0.0179254 0)
(0.00575632 0.0185053 0)
(0.00478342 0.0183329 0)
(0.00366005 0.0173489 0)
(0.00249835 0.0154735 0)
(0.00141251 0.0126043 0)
(0.000538872 0.00861715 0)
(8.74818e-05 0.00336023 0)
(-0.300739 -0.0650263 0)
(-0.294968 -0.0718119 0)
(-0.288403 -0.078219 0)
(-0.281031 -0.0841723 0)
(-0.272845 -0.0895943 0)
(-0.263846 -0.0944057 0)
(-0.254044 -0.0985273 0)
(-0.24346 -0.101882 0)
(-0.232127 -0.104399 0)
(-0.220095 -0.106012 0)
(-0.207428 -0.106669 0)
(-0.19421 -0.106332 0)
(-0.18054 -0.104978 0)
(-0.166533 -0.102607 0)
(-0.152321 -0.09924 0)
(-0.138046 -0.0949215 0)
(-0.123858 -0.0897206 0)
(-0.109911 -0.0837289 0)
(-0.0963583 -0.0770585 0)
(-0.0833441 -0.0698382 0)
(-0.071002 -0.0622093 0)
(-0.0594484 -0.0543199 0)
(-0.04878 -0.0463197 0)
(-0.0390706 -0.0383547 0)
(-0.0303706 -0.0305619 0)
(-0.0227067 -0.0230661 0)
(-0.0160833 -0.0159766 0)
(-0.0104837 -0.00938579 0)
(-0.00587339 -0.00336856 0)
(-0.00220159 0.00201661 0)
(0.000595706 0.00672581 0)
(0.00259359 0.0107266 0)
(0.0038763 0.0139941 0)
(0.00453534 0.0165063 0)
(0.0046681 0.0182381 0)
(0.00437706 0.019157 0)
(0.00376912 0.0192166 0)
(0.00295564 0.0183531 0)
(0.00205148 0.0164812 0)
(0.00117205 0.013493 0)
(0.000449191 0.00925826 0)
(7.27969e-05 0.00361975 0)
(-0.320478 -0.070158 0)
(-0.315286 -0.0777302 0)
(-0.309305 -0.0849437 0)
(-0.30251 -0.0917199 0)
(-0.294879 -0.0979756 0)
(-0.286396 -0.103624 0)
(-0.277052 -0.108575 0)
(-0.266849 -0.112742 0)
(-0.255801 -0.116036 0)
(-0.243938 -0.118378 0)
(-0.23131 -0.119697 0)
(-0.217982 -0.119935 0)
(-0.204044 -0.119052 0)
(-0.189604 -0.117029 0)
(-0.174791 -0.11387 0)
(-0.159751 -0.10961 0)
(-0.144646 -0.104308 0)
(-0.129645 -0.0980522 0)
(-0.114921 -0.0909578 0)
(-0.100645 -0.0831618 0)
(-0.086978 -0.0748193 0)
(-0.074065 -0.0660972 0)
(-0.0620307 -0.0571673 0)
(-0.0509747 -0.0482001 0)
(-0.0409697 -0.0393581 0)
(-0.0320603 -0.0307912 0)
(-0.0242644 -0.0226321 0)
(-0.0175744 -0.0149944 0)
(-0.0119609 -0.00797166 0)
(-0.00737484 -0.00163825 0)
(-0.00375148 0.00394882 0)
(-0.00101314 0.00874644 0)
(0.000928401 0.0127211 0)
(0.00216927 0.0158437 0)
(0.00281172 0.0180838 0)
(0.00296322 0.0194041 0)
(0.00273527 0.0197542 0)
(0.00224302 0.0190665 0)
(0.00160387 0.0172524 0)
(0.000934441 0.0142008 0)
(0.000362444 0.00977956 0)
(5.92082e-05 0.00383225 0)
(-0.337392 -0.0746696 0)
(-0.33288 -0.0830057 0)
(-0.327609 -0.0910155 0)
(-0.32154 -0.0986188 0)
(-0.314635 -0.105729 0)
(-0.306861 -0.112253 0)
(-0.29819 -0.118094 0)
(-0.288603 -0.123151 0)
(-0.27809 -0.127325 0)
(-0.26666 -0.130517 0)
(-0.254337 -0.132638 0)
(-0.241169 -0.133608 0)
(-0.227224 -0.133364 0)
(-0.212597 -0.131866 0)
(-0.197409 -0.129095 0)
(-0.181803 -0.125067 0)
(-0.165945 -0.119825 0)
(-0.150017 -0.113451 0)
(-0.13421 -0.106053 0)
(-0.118721 -0.0977755 0)
(-0.10374 -0.0887829 0)
(-0.0894474 -0.0792603 0)
(-0.0760002 -0.0694031 0)
(-0.063531 -0.059409 0)
(-0.0521417 -0.0494701 0)
(-0.0419018 -0.0397657 0)
(-0.0328483 -0.0304574 0)
(-0.0249874 -0.0216849 0)
(-0.0182976 -0.0135644 0)
(-0.0127336 -0.00618974 0)
(-0.00823049 0.000366432 0)
(-0.00470772 0.00604846 0)
(-0.00207251 0.0108132 0)
(-0.00022312 0.0146239 0)
(0.000948818 0.0174446 0)
(0.0015566 0.0192334 0)
(0.00171702 0.0199368 0)
(0.00154955 0.0194846 0)
(0.00117468 0.0177862 0)
(0.000710866 0.01473 0)
(0.000283094 0.0101853 0)
(4.75045e-05 0.00400094 0)
(-0.35099 -0.0784791 0)
(-0.347234 -0.0875339 0)
(-0.342772 -0.0963059 0)
(-0.337551 -0.104716 0)
(-0.331523 -0.112676 0)
(-0.324635 -0.12009 0)
(-0.316841 -0.126856 0)
(-0.308098 -0.132863 0)
(-0.298374 -0.137999 0)
(-0.28765 -0.14215 0)
(-0.275923 -0.145205 0)
(-0.263214 -0.147064 0)
(-0.249565 -0.147636 0)
(-0.23505 -0.146853 0)
(-0.219772 -0.144671 0)
(-0.203862 -0.141078 0)
(-0.187482 -0.136096 0)
(-0.17082 -0.129787 0)
(-0.154081 -0.122251 0)
(-0.137484 -0.113627 0)
(-0.121251 -0.104087 0)
(-0.105596 -0.093831 0)
(-0.0907163 -0.0830771 0)
(-0.0767835 -0.072052 0)
(-0.0639374 -0.060981 0)
(-0.0522805 -0.0500787 0)
(-0.0418769 -0.0395413 0)
(-0.0327531 -0.0295405 0)
(-0.024901 -0.0202215 0)
(-0.0182825 -0.0117021 0)
(-0.0128345 -0.0040745 0)
(-0.00847416 0.0025904 0)
(-0.0051039 0.00823797 0)
(-0.00261543 0.0128233 0)
(-0.000893175 0.0163046 0)
(0.000183268 0.018636 0)
(0.000737189 0.0197614 0)
(0.000893477 0.0196091 0)
(0.000776836 0.0180884 0)
(0.000508869 0.0150891 0)
(0.000214115 0.0104842 0)
(3.81925e-05 0.00413103 0)
(-0.360925 -0.081535 0)
(-0.357968 -0.0912418 0)
(-0.354376 -0.100718 0)
(-0.350092 -0.109888 0)
(-0.345053 -0.118666 0)
(-0.339193 -0.126956 0)
(-0.332448 -0.134653 0)
(-0.324754 -0.14164 0)
(-0.316053 -0.147795 0)
(-0.306299 -0.15299 0)
(-0.295459 -0.157095 0)
(-0.283521 -0.159985 0)
(-0.270497 -0.161544 0)
(-0.256429 -0.161673 0)
(-0.241393 -0.160296 0)
(-0.225499 -0.157365 0)
(-0.208896 -0.152873 0)
(-0.191764 -0.146855 0)
(-0.174316 -0.139389 0)
(-0.156788 -0.130603 0)
(-0.139426 -0.120667 0)
(-0.12248 -0.10979 0)
(-0.106192 -0.0982099 0)
(-0.0907766 -0.0861816 0)
(-0.0764207 -0.0739668 0)
(-0.063269 -0.0618203 0)
(-0.0514226 -0.0499794 0)
(-0.0409371 -0.0386559 0)
(-0.0318256 -0.0280309 0)
(-0.0240628 -0.0182529 0)
(-0.0175912 -0.0094392 0)
(-0.012328 -0.00168001 0)
(-0.00817115 0.00495598 0)
(-0.00500553 0.0104142 0)
(-0.00270722 0.0146465 0)
(-0.00114729 0.0176033 0)
(-0.000194397 0.0192269 0)
(0.000283391 0.0194452 0)
(0.00041669 0.0181689 0)
(0.000332204 0.0152905 0)
(0.000156949 0.0106881 0)
(3.1497e-05 0.0042289 0)
(-0.367033 -0.0838225 0)
(-0.364875 -0.0940959 0)
(-0.362174 -0.104197 0)
(-0.358866 -0.114055 0)
(-0.354881 -0.123592 0)
(-0.350142 -0.132713 0)
(-0.344571 -0.141315 0)
(-0.338084 -0.149279 0)
(-0.330601 -0.156475 0)
(-0.322049 -0.162766 0)
(-0.312362 -0.168006 0)
(-0.301496 -0.172047 0)
(-0.289425 -0.174748 0)
(-0.276153 -0.175976 0)
(-0.261722 -0.175618 0)
(-0.246208 -0.173589 0)
(-0.229735 -0.169842 0)
(-0.212465 -0.164374 0)
(-0.194605 -0.157232 0)
(-0.176395 -0.148519 0)
(-0.158103 -0.138393 0)
(-0.140009 -0.127062 0)
(-0.122395 -0.114776 0)
(-0.105528 -0.101817 0)
(-0.0896445 -0.0884826 0)
(-0.0749428 -0.075071 0)
(-0.0615715 -0.0618676 0)
(-0.0496267 -0.0491324 0)
(-0.0391525 -0.0370915 0)
(-0.0301448 -0.0259329 0)
(-0.022558 -0.0158064 0)
(-0.016313 -0.00682738 0)
(-0.0113057 0.000917192 0)
(-0.00741434 0.00736053 0)
(-0.00450601 0.0124471 0)
(-0.00244187 0.0161235 0)
(-0.00108075 0.018331 0)
(-0.000281664 0.0189983 0)
(9.41436e-05 0.0180383 0)
(0.000180936 0.0153474 0)
(0.000111575 0.0108095 0)
(2.73776e-05 0.00430125 0)
(-0.369344 -0.0853656 0)
(-0.367948 -0.0961068 0)
(-0.366111 -0.106735 0)
(-0.363769 -0.11719 0)
(-0.360848 -0.1274 0)
(-0.357265 -0.137279 0)
(-0.352931 -0.146727 0)
(-0.347749 -0.155627 0)
(-0.34162 -0.163849 0)
(-0.334445 -0.171249 0)
(-0.326131 -0.177669 0)
(-0.316597 -0.182945 0)
(-0.305779 -0.186909 0)
(-0.293642 -0.189398 0)
(-0.28018 -0.190261 0)
(-0.265431 -0.18937 0)
(-0.249478 -0.186632 0)
(-0.232454 -0.181997 0)
(-0.214543 -0.175468 0)
(-0.195979 -0.167111 0)
(-0.177034 -0.157056 0)
(-0.158011 -0.145498 0)
(-0.139229 -0.132689 0)
(-0.121003 -0.118928 0)
(-0.103626 -0.104547 0)
(-0.0873577 -0.0898877 0)
(-0.0724042 -0.0752899 0)
(-0.0589148 -0.0610697 0)
(-0.0469767 -0.0475082 0)
(-0.0366182 -0.0348435 0)
(-0.0278142 -0.0232678 0)
(-0.020496 -0.0129298 0)
(-0.0145611 -0.00394089 0)
(-0.00988297 0.00361571 0)
(-0.00631989 0.00967478 0)
(-0.00372206 0.0141785 0)
(-0.00193666 0.017067 0)
(-0.000811393 0.0182707 0)
(-0.000196814 0.0177056 0)
(5.17847e-05 0.0152722 0)
(7.66659e-05 0.0108602 0)
(2.55594e-05 0.00435439 0)
(-0.36808 -0.0862242 0)
(-0.367373 -0.0973272 0)
(-0.366332 -0.108376 0)
(-0.364897 -0.11932 0)
(-0.362995 -0.130099 0)
(-0.360542 -0.140636 0)
(-0.357443 -0.150839 0)
(-0.353594 -0.160601 0)
(-0.348881 -0.169793 0)
(-0.343187 -0.178271 0)
(-0.336395 -0.185872 0)
(-0.328391 -0.192418 0)
(-0.319074 -0.197724 0)
(-0.308365 -0.201597 0)
(-0.296212 -0.20385 0)
(-0.282602 -0.204313 0)
(-0.26757 -0.202839 0)
(-0.251203 -0.199326 0)
(-0.233651 -0.193721 0)
(-0.21512 -0.186039 0)
(-0.195873 -0.176368 0)
(-0.176222 -0.16487 0)
(-0.15651 -0.151786 0)
(-0.137095 -0.137418 0)
(-0.118327 -0.122124 0)
(-0.100528 -0.106288 0)
(-0.0839754 -0.0903052 0)
(-0.0688818 -0.0745546 0)
(-0.0553918 -0.0593832 0)
(-0.0435792 -0.0450911 0)
(-0.0334513 -0.031925 0)
(-0.0249588 -0.0200776 0)
(-0.018007 -0.00969379 0)
(-0.0124683 -0.000879255 0)
(-0.00819357 0.00628709 0)
(-0.00502172 0.0117409 0)
(-0.00278678 0.0154207 0)
(-0.00132288 0.0172589 0)
(-0.000467161 0.0171749 0)
(-6.1358e-05 0.0150738 0)
(4.97949e-05 0.0108496 0)
(2.55875e-05 0.00439356 0)
(-0.363629 -0.0864875 0)
(-0.36351 -0.0978461 0)
(-0.363165 -0.109204 0)
(-0.362537 -0.120522 0)
(-0.36156 -0.131752 0)
(-0.360153 -0.142829 0)
(-0.358222 -0.153676 0)
(-0.355662 -0.164192 0)
(-0.352352 -0.174262 0)
(-0.348162 -0.183744 0)
(-0.342958 -0.192477 0)
(-0.3366 -0.20028 0)
(-0.328954 -0.206952 0)
(-0.3199 -0.21228 0)
(-0.309337 -0.216045 0)
(-0.2972 -0.218035 0)
(-0.283466 -0.218053 0)
(-0.268169 -0.215936 0)
(-0.251403 -0.21157 0)
(-0.233334 -0.204904 0)
(-0.214197 -0.195966 0)
(-0.19429 -0.18487 0)
(-0.173966 -0.171822 0)
(-0.153614 -0.157114 0)
(-0.133632 -0.141112 0)
(-0.11441 -0.124236 0)
(-0.096295 -0.106932 0)
(-0.0795781 -0.0896481 0)
(-0.0644742 -0.0728056 0)
(-0.0511175 -0.0567792 0)
(-0.0395618 -0.0418841 0)
(-0.0297892 -0.0283708 0)
(-0.0217219 -0.0164289 0)
(-0.0152372 -0.00619595 0)
(-0.0101816 0.00222935 0)
(-0.00638358 0.00877242 0)
(-0.00366309 0.0133687 0)
(-0.00183871 0.0159515 0)
(-0.000731511 0.0164441 0)
(-0.000166814 0.0147556 0)
(2.76039e-05 0.0107835 0)
(2.69416e-05 0.00442249 0)
(-0.356497 -0.0862637 0)
(-0.356851 -0.0977781 0)
(-0.357076 -0.109337 0)
(-0.357125 -0.120914 0)
(-0.356941 -0.132473 0)
(-0.35645 -0.143964 0)
(-0.355567 -0.155324 0)
(-0.354187 -0.166467 0)
(-0.352193 -0.177291 0)
(-0.349452 -0.187665 0)
(-0.345816 -0.197438 0)
(-0.341129 -0.20643 0)
(-0.335233 -0.214436 0)
(-0.32797 -0.221229 0)
(-0.319198 -0.226568 0)
(-0.308797 -0.230203 0)
(-0.296686 -0.231892 0)
(-0.282834 -0.231411 0)
(-0.267272 -0.228577 0)
(-0.250106 -0.223266 0)
(-0.231522 -0.21543 0)
(-0.211787 -0.205115 0)
(-0.191241 -0.192472 0)
(-0.170282 -0.177759 0)
(-0.149349 -0.16133 0)
(-0.128885 -0.143625 0)
(-0.109314 -0.125134 0)
(-0.0910087 -0.106371 0)
(-0.0742682 -0.0878388 0)
(-0.0593022 -0.0699984 0)
(-0.0462273 -0.0532485 0)
(-0.0350712 -0.0379136 0)
(-0.0257853 -0.0242427 0)
(-0.0182603 -0.0124173 0)
(-0.0123435 -0.00256502 0)
(-0.00785526 0.00522334 0)
(-0.00460193 0.0108766 0)
(-0.00238496 0.0143279 0)
(-0.00100695 0.0155032 0)
(-0.000273885 0.0143152 0)
(6.54204e-06 0.0106636 0)
(2.88938e-05 0.00444304 0)
(-0.347259 -0.0856693 0)
(-0.347964 -0.0972515 0)
(-0.348624 -0.108914 0)
(-0.349204 -0.120642 0)
(-0.349657 -0.132412 0)
(-0.349922 -0.14419 0)
(-0.349922 -0.155926 0)
(-0.349566 -0.167555 0)
(-0.348741 -0.178988 0)
(-0.347319 -0.190115 0)
(-0.34515 -0.200797 0)
(-0.342072 -0.210863 0)
(-0.337909 -0.220115 0)
(-0.332477 -0.228322 0)
(-0.325599 -0.23523 0)
(-0.317106 -0.240562 0)
(-0.30686 -0.244035 0)
(-0.294763 -0.245372 0)
(-0.280776 -0.24432 0)
(-0.264932 -0.240676 0)
(-0.247351 -0.234306 0)
(-0.228243 -0.225171 0)
(-0.207913 -0.213342 0)
(-0.186749 -0.199017 0)
(-0.165201 -0.182517 0)
(-0.143759 -0.164274 0)
(-0.122914 -0.144808 0)
(-0.103122 -0.124691 0)
(-0.0847739 -0.104508 0)
(-0.0681706 -0.0848149 0)
(-0.0535076 -0.0661098 0)
(-0.0408756 -0.048808 0)
(-0.0302695 -0.033236 0)
(-0.0216049 -0.0196348 0)
(-0.0147379 -0.00817339 0)
(-0.00948528 0.00103242 0)
(-0.00564088 0.00789938 0)
(-0.00298878 0.0123573 0)
(-0.0013113 0.0143335 0)
(-0.000392455 0.0137429 0)
(-1.72037e-05 0.0104862 0)
(3.07907e-05 0.00445495 0)
(-0.336498 -0.0848186 0)
(-0.337438 -0.0963963 0)
(-0.338401 -0.10808 0)
(-0.339363 -0.119864 0)
(-0.34029 -0.131739 0)
(-0.341133 -0.143683 0)
(-0.341833 -0.155664 0)
(-0.342308 -0.167633 0)
(-0.342462 -0.179524 0)
(-0.342176 -0.191244 0)
(-0.341308 -0.202675 0)
(-0.339697 -0.213664 0)
(-0.337161 -0.224026 0)
(-0.333504 -0.233539 0)
(-0.328519 -0.241943 0)
(-0.322002 -0.248951 0)
(-0.313763 -0.254248 0)
(-0.303641 -0.257512 0)
(-0.291524 -0.258428 0)
(-0.277366 -0.256714 0)
(-0.261205 -0.252142 0)
(-0.243178 -0.244575 0)
(-0.223528 -0.233987 0)
(-0.202603 -0.220488 0)
(-0.180847 -0.204333 0)
(-0.158767 -0.185921 0)
(-0.136906 -0.165775 0)
(-0.115802 -0.144511 0)
(-0.0959386 -0.122787 0)
(-0.0777184 -0.10126 0)
(-0.0614323 -0.0805378 0)
(-0.0472518 -0.0611461 0)
(-0.0352327 -0.0435085 0)
(-0.0253298 -0.0279448 0)
(-0.0174187 -0.0146815 0)
(-0.011319 -0.00387152 0)
(-0.00681579 0.00438161 0)
(-0.00367637 0.00999937 0)
(-0.00166179 0.0129076 0)
(-0.000532085 0.0130223 0)
(-4.72683e-05 0.0102431 0)
(3.20502e-05 0.00445596 0)
(-0.324763 -0.0838149 0)
(-0.325834 -0.0953335 0)
(-0.326979 -0.106973 0)
(-0.328184 -0.118737 0)
(-0.329427 -0.130625 0)
(-0.330674 -0.14263 0)
(-0.331881 -0.154734 0)
(-0.332984 -0.166908 0)
(-0.333904 -0.179104 0)
(-0.334536 -0.191253 0)
(-0.334756 -0.20326 0)
(-0.334411 -0.214996 0)
(-0.333324 -0.226297 0)
(-0.331297 -0.236957 0)
(-0.32811 -0.246728 0)
(-0.323532 -0.255318 0)
(-0.317335 -0.262401 0)
(-0.309302 -0.26762 0)
(-0.299253 -0.270611 0)
(-0.28706 -0.271015 0)
(-0.272675 -0.268517 0)
(-0.256144 -0.262872 0)
(-0.237628 -0.253941 0)
(-0.217411 -0.241721 0)
(-0.195893 -0.226373 0)
(-0.173578 -0.208228 0)
(-0.151037 -0.187782 0)
(-0.12887 -0.165662 0)
(-0.107653 -0.14259 0)
(-0.0878947 -0.119318 0)
(-0.0699941 -0.0965707 0)
(-0.0542219 -0.0750013 0)
(-0.0407134 -0.0551519 0)
(-0.02948 -0.0374436 0)
(-0.0204301 -0.02218 0)
(-0.0133957 -0.00956736 0)
(-0.00815843 0.000258959 0)
(-0.00447123 0.00720481 0)
(-0.00207393 0.0111905 0)
(-0.000701318 0.0121302 0)
(-8.69223e-05 0.00992139 0)
(3.20939e-05 0.00444201 0)
(-0.312532 -0.0827449 0)
(-0.31365 -0.0941676 0)
(-0.314874 -0.105717 0)
(-0.3162 -0.117403 0)
(-0.317618 -0.129234 0)
(-0.319108 -0.141213 0)
(-0.320641 -0.153337 0)
(-0.322172 -0.165594 0)
(-0.323639 -0.177955 0)
(-0.32496 -0.190375 0)
(-0.326029 -0.202783 0)
(-0.326712 -0.215078 0)
(-0.326846 -0.227124 0)
(-0.326239 -0.23874 0)
(-0.324673 -0.249698 0)
(-0.321905 -0.259719 0)
(-0.317679 -0.268475 0)
(-0.31174 -0.275596 0)
(-0.303846 -0.280678 0)
(-0.293797 -0.283305 0)
(-0.281453 -0.283078 0)
(-0.266765 -0.279646 0)
(-0.249796 -0.272746 0)
(-0.230739 -0.262249 0)
(-0.209927 -0.24819 0)
(-0.187823 -0.230797 0)
(-0.164998 -0.210498 0)
(-0.14209 -0.187904 0)
(-0.119753 -0.163765 0)
(-0.0985993 -0.138918 0)
(-0.0791455 -0.114206 0)
(-0.0617764 -0.0904201 0)
(-0.0467268 -0.0682432 0)
(-0.0340836 -0.0482215 0)
(-0.0238045 -0.0307603 0)
(-0.0157462 -0.0161388 0)
(-0.00969478 -0.00453971 0)
(-0.00539295 0.003917 0)
(-0.00256075 0.00913977 0)
(-0.000907305 0.011038 0)
(-0.000138791 0.00950445 0)
(3.05312e-05 0.00440749 0)
(-0.300191 -0.0816757 0)
(-0.301292 -0.0929822 0)
(-0.302514 -0.104413 0)
(-0.303864 -0.115982 0)
(-0.305339 -0.127705 0)
(-0.306934 -0.139594 0)
(-0.308632 -0.151657 0)
(-0.310409 -0.163895 0)
(-0.31222 -0.176299 0)
(-0.314007 -0.188846 0)
(-0.315684 -0.201491 0)
(-0.317142 -0.214162 0)
(-0.318239 -0.226752 0)
(-0.318801 -0.239113 0)
(-0.318621 -0.251046 0)
(-0.317457 -0.262298 0)
(-0.315045 -0.272556 0)
(-0.3111 -0.281448 0)
(-0.305341 -0.288554 0)
(-0.2975 -0.293415 0)
(-0.287358 -0.295562 0)
(-0.274769 -0.294549 0)
(-0.259687 -0.289991 0)
(-0.242201 -0.281617 0)
(-0.222547 -0.269318 0)
(-0.201115 -0.253185 0)
(-0.178443 -0.233537 0)
(-0.155176 -0.210923 0)
(-0.132022 -0.18609 0)
(-0.109684 -0.159928 0)
(-0.0887975 -0.133391 0)
(-0.0698729 -0.107414 0)
(-0.0532626 -0.0828369 0)
(-0.0391499 -0.0603578 0)
(-0.0275608 -0.0405102 0)
(-0.0183919 -0.0236712 0)
(-0.0114442 -0.01009 0)
(-0.00645667 7.37604e-05 0)
(-0.00313244 0.00670789 0)
(-0.00115561 0.00971205 0)
(-0.00020487 0.00897234 0)
(2.70816e-05 0.00434558 0)
(-0.288026 -0.0806543 0)
(-0.289065 -0.0918383 0)
(-0.29023 -0.103138 0)
(-0.291529 -0.114571 0)
(-0.292972 -0.126155 0)
(-0.294562 -0.13791 0)
(-0.296296 -0.149851 0)
(-0.298164 -0.161994 0)
(-0.300142 -0.174343 0)
(-0.302191 -0.186896 0)
(-0.304251 -0.199631 0)
(-0.306238 -0.212506 0)
(-0.308036 -0.225447 0)
(-0.309497 -0.23834 0)
(-0.310432 -0.251023 0)
(-0.310618 -0.263277 0)
(-0.309791 -0.274816 0)
(-0.30766 -0.285288 0)
(-0.303914 -0.29427 0)
(-0.29824 -0.301286 0)
(-0.290349 -0.305815 0)
(-0.280006 -0.307329 0)
(-0.267059 -0.305334 0)
(-0.251479 -0.299416 0)
(-0.233389 -0.289306 0)
(-0.213079 -0.274932 0)
(-0.191014 -0.256466 0)
(-0.167813 -0.234348 0)
(-0.144203 -0.209273 0)
(-0.120958 -0.18215 0)
(-0.0988213 -0.154018 0)
(-0.0784352 -0.12595 0)
(-0.0602844 -0.0989581 0)
(-0.0446688 -0.0739141 0)
(-0.0317039 -0.0515094 0)
(-0.0213442 -0.0322478 0)
(-0.0134193 -0.0164691 0)
(-0.00767302 -0.00439071 0)
(-0.00379636 0.00384313 0)
(-0.00145025 0.00811562 0)
(-0.00028657 0.00830279 0)
(2.15642e-05 0.00424857 0)
(-0.276226 -0.0797088 0)
(-0.277179 -0.0907753 0)
(-0.27825 -0.101945 0)
(-0.279452 -0.113235 0)
(-0.2808 -0.124667 0)
(-0.282306 -0.136264 0)
(-0.283976 -0.148048 0)
(-0.285815 -0.160041 0)
(-0.287814 -0.172263 0)
(-0.289955 -0.184725 0)
(-0.292201 -0.197431 0)
(-0.294493 -0.210362 0)
(-0.296745 -0.223477 0)
(-0.298837 -0.236699 0)
(-0.30061 -0.249906 0)
(-0.301863 -0.26292 0)
(-0.302351 -0.275494 0)
(-0.301789 -0.287308 0)
(-0.299856 -0.297959 0)
(-0.296212 -0.306969 0)
(-0.290515 -0.313792 0)
(-0.282455 -0.317843 0)
(-0.271783 -0.318529 0)
(-0.258354 -0.315308 0)
(-0.242162 -0.307746 0)