/*--------------------------------*- C++ -*----------------------------------*\
  =========                 |
  \\      /  F ield         | OpenFOAM: The Open Source CFD Toolbox
   \\    /   O peration     | Website:  https://openfoam.org
    \\  /    A nd           | Version:  9
     \\/     M anipulation  |
\*---------------------------------------------------------------------------*/
FoamFile
{
    format      ascii;
    class       volScalarField;
    location    "2.25";
    object      p;
}
// * * * * * * * * * * * * * * * * * * * * * * * * * * * * * * * * * * * * * //

dimensions      [0 2 -2 0 0 0 0];

internalField   nonuniform List<scalar> 
10000
(
2.21639e-07
1.55418e-05
2.30043e-05
1.94044e-05
2.42056e-06
-2.84789e-05
-7.26412e-05
-0.000128929
-0.000196089
-0.000272932
-0.000358432
-0.00045177
-0.00055235
-0.000659792
-0.000773909
-0.000894683
-0.00102221
-0.00115668
-0.00129832
-0.00144736
-0.00160397
-0.00176825
-0.0019402
-0.00211965
-0.00230628
-0.00249955
-0.00269871
-0.00290278
-0.0031105
-0.00332037
-0.00353057
-0.00373903
-0.00394338
-0.00414098
-0.00432894
-0.00450414
-0.00466329
-0.00480297
-0.0049197
-0.00501005
-0.00507066
-0.00509843
-0.00509056
-0.00504471
-0.00495906
-0.00483251
-0.0046647
-0.00445615
-0.00420836
-0.00392383
-0.0036061
-0.00325972
-0.00288998
-0.00250398
-0.00210892
-0.00171289
-0.0013245
-0.000952711
-0.000606493
-0.000294627
-2.53894e-05
0.000193722
0.000356258
0.00045707
0.000492514
0.000460612
0.00036114
0.000195659
-3.2535e-05
-0.000318557
-0.000656101
-0.00103766
-0.00145491
-0.00189897
-0.00236077
-0.00283135
-0.00330218
-0.00376545
-0.0042142
-0.00464256
-0.00504576
-0.00542021
-0.00576343
-0.00607399
-0.00635139
-0.00659594
-0.00680855
-0.0069906
-0.00714375
-0.00726979
-0.00737049
-0.00744745
-0.0075021
-0.00753565
-0.00754926
-0.00754438
-0.00752344
-0.00749099
-0.00745426
-0.00742542
-1.47424e-05
5.06261e-07
4.53858e-06
-2.24603e-06
-2.04101e-05
-5.04904e-05
-9.22079e-05
-0.000144831
-0.00020747
-0.000279228
-0.000359295
-0.00044699
-0.000541806
-0.000643404
-0.0007516
-0.000866348
-0.000987712
-0.00111583
-0.00125087
-0.00139302
-0.00154242
-0.00169915
-0.0018632
-0.00203442
-0.00221251
-0.002397
-0.00258721
-0.00278226
-0.00298101
-0.00318209
-0.00338385
-0.00358437
-0.00378146
-0.00397269
-0.00415535
-0.00432651
-0.0044831
-0.00462186
-0.0047395
-0.00483272
-0.0048983
-0.00493323
-0.00493478
-0.00490063
-0.00482896
-0.00471858
-0.00456906
-0.00438077
-0.004155
-0.00389404
-0.00360124
-0.00328075
-0.00293777
-0.0025785
-0.00221006
-0.00184015
-0.00147699
-0.0011291
-0.000805065
-0.000513277
-0.000261657
-5.73791e-05
9.33874e-05
0.000185724
0.00021616
0.000182823
8.55238e-05
-7.42173e-05
-0.000293224
-0.00056679
-0.000888883
-0.00125237
-0.00164929
-0.00207123
-0.00250961
-0.002956
-0.00340238
-0.00384144
-0.00426671
-0.00467273
-0.00505511
-0.00541054
-0.00573676
-0.00603246
-0.00629721
-0.0065313
-0.00673556
-0.00691129
-0.00706001
-0.00718341
-0.00728318
-0.00736094
-0.00741819
-0.00745633
-0.00747675
-0.00748105
-0.00747149
-0.00745163
-0.00742551
-0.00739655
-2.20237e-05
-3.42195e-06
4.64641e-07
-7.31311e-06
-2.58771e-05
-5.54977e-05
-9.58904e-05
-0.000146403
-0.000206272
-0.00027473
-0.000351076
-0.000434708
-0.000525189
-0.000622222
-0.000725647
-0.000835434
-0.000951651
-0.00107444
-0.00120397
-0.00134043
-0.00148398
-0.00163472
-0.00179267
-0.00195772
-0.00212965
-0.00230806
-0.00249235
-0.00268175
-0.00287525
-0.00307158
-0.00326924
-0.00346645
-0.00366115
-0.00385102
-0.00403349
-0.00420574
-0.00436475
-0.00450737
-0.00463032
-0.00473032
-0.00480413
-0.0048487
-0.00486121
-0.00483924
-0.00478085
-0.0046847
-0.00455018
-0.00437747
-0.00416764
-0.00392286
-0.00364635
-0.00334129
-0.00301382
-0.00266952
-0.00231527
-0.00195862
-0.00160768
-0.00127086
-0.000956649
-0.00067337
-0.000428892
-0.000230356
-8.39094e-05
5.53575e-06
3.45084e-05
1.12993e-06
-9.47975e-05
-0.000251768
-0.000466627
-0.000734691
-0.00104995
-0.00140532
-0.00179293
-0.00220443
-0.00263136
-0.00306542
-0.00349879
-0.00392434
-0.00433583
-0.00472803
-0.0050968
-0.00543905
-0.00575276
-0.00603681
-0.00629092
-0.00651551
-0.00671154
-0.00688034
-0.00702349
-0.00714273
-0.00723976
-0.00731623
-0.00737369
-0.00741352
-0.00743704
-0.00744559
-0.00744088
-0.00742536
-0.00739947
-0.00735973
-1.81929e-05
3.43843e-06
7.78734e-06
-4.23744e-07
-1.93202e-05
-4.88499e-05
-8.85809e-05
-0.00013781
-0.000195793
-0.000261808
-0.000335203
-0.000415468
-0.000502191
-0.00059513
-0.000694173
-0.000799332
-0.000910709
-0.00102849
-0.00115288
-0.00128413
-0.00142243
-0.00156795
-0.00172077
-0.00188089
-0.00204816
-0.00222229
-0.00240282
-0.00258908
-0.00278018
-0.00297502
-0.00317219
-0.00337005
-0.00356663
-0.00375972
-0.00394678
-0.00412504
-0.00429149
-0.00444291
-0.00457598
-0.0046873
-0.00477351
-0.00483138
-0.00485793
-0.00485051
-0.00480697
-0.00472575
-0.00460602
-0.00444774
-0.00425182
-0.0040204
-0.00375715
-0.00346223
-0.00314451
-0.00280897
-0.00246222
-0.00211178
-0.00176575
-0.0014326
-0.0011209
-0.000839056
-0.000595068
-0.000396203
-0.000248744
-0.000157737
-0.00012677
-0.000157824
-0.000251167
-0.000405333
-0.000617168
-0.000881956
-0.00119362
-0.00154498
-0.00192806
-0.00233443
-0.00275549
-0.00318289
-0.00360876
-0.00402599
-0.0044284
-0.00481085
-0.00516934
-0.00550093
-0.00580397
-0.0060774
-0.00632121
-0.00653605
-0.00672307
-0.0068838
-0.00701996
-0.00713341
-0.00722596
-0.00729933
-0.00735506
-0.00739447
-0.00741869
-0.00742863
-0.00742534
-0.00741022
-0.00738078
-0.00732861
-5.23843e-07
2.18898e-05
2.58251e-05
1.67648e-05
-2.87327e-06
-3.27706e-05
-7.23445e-05
-0.00012082
-0.000177436
-0.000241494
-0.000312381
-0.000389623
-0.000472885
-0.000561977
-0.000656848
-0.000757575
-0.000864331
-0.000977363
-0.00109697
-0.00122347
-0.00135715
-0.0014983
-0.00164709
-0.00180365
-0.00196796
-0.00213987
-0.00231907
-0.00250504
-0.00269705
-0.0028941
-0.00309494
-0.003298
-0.00350139
-0.00370292
-0.00390006
-0.00408997
-0.00426956
-0.00443548
-0.00458421
-0.00471217
-0.00481574
-0.00489145
-0.00493602
-0.00494655
-0.00492061
-0.00485637
-0.00475275
-0.00460952
-0.00442743
-0.00420786
-0.00395248
-0.00366907
-0.00335912
-0.00302911
-0.00268603
-0.00233752
-0.00199175
-0.00165733
-0.00134296
-0.00105727
-0.000808445
-0.000603993
-0.000450435
-0.000353052
-0.00031566
-0.000340435
-0.000427804
-0.000576411
-0.000783155
-0.00104332
-0.00135075
-0.00169817
-0.00207741
-0.00247985
-0.00289674
-0.00331946
-0.00374001
-0.00415113
-0.00454657
-0.00492118
-0.00527102
-0.00559335
-0.00588633
-0.00614948
-0.00638294
-0.00658757
-0.00676479
-0.00691635
-0.00704423
-0.00715045
-0.00723698
-0.00730563
-0.00735798
-0.00739529
-0.00741848
-0.00742807
-0.00742453
-0.0074084
-0.00737498
-0.00731212
3.20729e-05
5.28563e-05
5.5173e-05
4.45438e-05
2.35626e-05
-7.256e-06
-4.72072e-05
-9.54532e-05
-0.000151212
-0.000213805
-0.000282645
-0.000357313
-0.000437535
-0.000523198
-0.000614331
-0.000711099
-0.000813777
-0.00092272
-0.00103834
-0.00116108
-0.00129138
-0.00142965
-0.00157625
-0.00173146
-0.00189543
-0.0020682
-0.00224963
-0.00243937
-0.00263683
-0.00284115
-0.00305115
-0.00326533
-0.00348181
-0.00369833
-0.00391228
-0.00412067
-0.00432018
-0.00450724
-0.00467804
-0.00482867
-0.0049552
-0.00505381
-0.00512089
-0.00515321
-0.00514804
-0.00510327
-0.00501756
-0.00489047
-0.00472256
-0.00451524
-0.00427067
-0.00399369
-0.0036886
-0.00336128
-0.00301857
-0.00266815
-0.00231831
-0.00197779
-0.00165553
-0.00136038
-0.00110082
-0.000884653
-0.000718752
-0.000608737
-0.000558763
-0.000571326
-0.000647131
-0.000785049
-0.000982134
-0.00123375
-0.00153374
-0.00187473
-0.00224841
-0.00264593
-0.00305826
-0.00347654
-0.00389247
-0.00429852
-0.00468825
-0.00505637
-0.00539886
-0.00571295
-0.00599702
-0.0062506
-0.00647407
-0.00666854
-0.00683567
-0.00697751
-0.00709628
-0.00719424
-0.00727354
-0.00733615
-0.00738371
-0.00741748
-0.00743822
-0.00744615
-0.0074413
-0.00742358
-0.0073868
-0.00731635
7.95896e-05
9.65101e-05
9.59479e-05
8.29187e-05
5.99178e-05
2.75946e-05
-1.32611e-05
-6.17752e-05
-0.000117157
-0.0001788
-0.00024608
-0.000318688
-0.000396419
-0.00047925
-0.000567315
-0.0006609
-0.000760412
-0.000866354
-0.000979302
-0.00109987
-0.00122868
-0.00136636
-0.00151346
-0.00167048
-0.00183779
-0.00201564
-0.00220407
-0.00240292
-0.00261172
-0.00282972
-0.00305577
-0.00328834
-0.00352548
-0.00376479
-0.00400344
-0.00423816
-0.00446533
-0.00468101
-0.00488101
-0.00506102
-0.00521671
-0.00534386
-0.0054385
-0.00549703
-0.00551641
-0.00549425
-0.00542895
-0.00531985
-0.00516728
-0.00497258
-0.00473807
-0.00446775
-0.00416634
-0.00383969
-0.00349465
-0.00313891
-0.00278089
-0.00242949
-0.00209387
-0.00178314
-0.00150613
-0.00127104
-0.00108516
-0.000954575
-0.000883914
-0.000876137
-0.000932386
-0.00105191
-0.00123208
-0.00146847
-0.00175505
-0.00208444
-0.00244824
-0.0028374
-0.00324262
-0.00365471
-0.00406501
-0.00446566
-0.00484987
-0.00521208
-0.00554807
-0.00585494
-0.00613107
-0.00637596
-0.00659018
-0.00677501
-0.00693234
-0.00706447
-0.00717388
-0.00726309
-0.0073345
-0.00739023
-0.00743205
-0.00746125
-0.00747856
-0.007484
-0.00747731
-0.007458
-0.00741901
-0.00734445
0.00014149
0.000152536
0.000147876
0.000131606
0.00010591
7.1527e-05
2.92812e-05
-1.99625e-05
-7.5452e-05
-0.000136578
-0.000202856
-0.00027401
-0.00034994
-0.000430739
-0.000516679
-0.000608197
-0.000705874
-0.000810405
-0.000922577
-0.00104323
-0.00117324
-0.00131347
-0.00146474
-0.0016278
-0.00180329
-0.00199166
-0.00219318
-0.00240781
-0.00263521
-0.00287464
-0.00312493
-0.00338444
-0.00365101
-0.003922
-0.00419422
-0.00446404
-0.00472741
-0.00497992
-0.00521694
-0.00543368
-0.00562537
-0.00578737
-0.00591531
-0.00600524
-0.00605379
-0.00605829
-0.00601687
-0.00592863
-0.00579369
-0.00561323
-0.00538954
-0.00512633
-0.00482825
-0.00450107
-0.00415162
-0.00378762
-0.00341756
-0.00305049
-0.00269575
-0.00236279
-0.00206078
-0.00179839
-0.00158344
-0.00142258
-0.00132109
-0.00128255
-0.00130874
-0.00139948
-0.00155265
-0.00176425
-0.00202852
-0.00233825
-0.00268506
-0.00305978
-0.00345287
-0.00385482
-0.00425657
-0.00464982
-0.00502735
-0.00538321
-0.00571281
-0.006013
-0.00628198
-0.00651919
-0.00672513
-0.00690123
-0.00704954
-0.00717255
-0.00727299
-0.00735361
-0.00741706
-0.00746566
-0.00750136
-0.00752555
-0.00753897
-0.00754161
-0.00753304
-0.00751254
-0.00747274
-0.00739741
0.000216939
0.000220305
0.000210421
0.000190132
0.000161129
0.000124192
8.01217e-05
2.9736e-05
-2.63028e-05
-8.74478e-05
-0.000153323
-0.000223751
-0.00029876
-0.000378588
-0.000463678
-0.000554661
-0.000652336
-0.000757643
-0.000871633
-0.000995433
-0.00113021
-0.00127714
-0.00143734
-0.00161187
-0.00180162
-0.00200729
-0.00222931
-0.00246777
-0.00272237
-0.0029923
-0.00327628
-0.00357241
-0.00387826
-0.00419076
-0.0045063
-0.00482076
-0.00512957
-0.0054278
-0.00571031
-0.0059718
-0.00620704
-0.00641094
-0.00657874
-0.00670614
-0.00678942
-0.00682562
-0.00681261
-0.00674922
-0.0066353
-0.0064718
-0.00626094
-0.00600611
-0.00571178
-0.0053836
-0.0050283
-0.00465354
-0.00426784
-0.00388032
-0.00350053
-0.00313818
-0.00280286
-0.00250375
-0.00224926
-0.00204679
-0.00190236
-0.0018204
-0.00180354
-0.00185241
-0.00196565
-0.00213992
-0.00236998
-0.002649
-0.00296877
-0.00332016
-0.00369348
-0.00407894
-0.00446706
-0.00484906
-0.00521721
-0.00556501
-0.0058874
-0.00618082
-0.00644307
-0.0066734
-0.00687217
-0.00704075
-0.00718123
-0.00729624
-0.00738867
-0.0074615
-0.00751758
-0.00755946
-0.00758927
-0.00760857
-0.00761819
-0.00761816
-0.00760805
-0.00758703
-0.00754784
-0.0074747
0.000304855
0.0002989
0.000282766
0.000257787
0.000224962
0.00018506
0.000138813
8.68692e-05
2.98172e-05
-3.19249e-05
-9.81163e-05
-0.00016872
-0.000243927
-0.00032416
-0.000410074
-0.000502542
-0.000602633
-0.000711587
-0.000830777
-0.000961671
-0.00110579
-0.00126466
-0.00143975
-0.00163242
-0.00184383
-0.00207491
-0.0023262
-0.00259786
-0.00288951
-0.00320021
-0.0035284
-0.00387185
-0.00422768
-0.00459234
-0.00496167
-0.00533098
-0.00569511
-0.00604858
-0.00638568
-0.00670062
-0.00698767
-0.00724132
-0.00745639
-0.00762823
-0.00775276
-0.00782671
-0.00784764
-0.0078141
-0.00772561
-0.00758284
-0.0073878
-0.00714353
-0.00685426
-0.00652541
-0.00616349
-0.00577604
-0.0053715
-0.00495902
-0.00454827
-0.00414922
-0.00377185
-0.00342587
-0.0031204
-0.00286363
-0.00266253
-0.00252255
-0.0024474
-0.0024388
-0.00249643
-0.0026179
-0.00279881
-0.00303295
-0.00331257
-0.00362874
-0.0039718
-0.00433175
-0.00469874
-0.00506351
-0.00541771
-0.00575423
-0.00606736
-0.00635294
-0.0066083
-0.00683222
-0.00702477
-0.00718708
-0.00732119
-0.0074297
-0.0075156
-0.00758198
-0.00763188
-0.00766805
-0.00769281
-0.0077079
-0.00771431
-0.00771219
-0.00770117
-0.00768045
-0.0076432
-0.00757465
0.000403884
0.000387034
0.000363822
0.000333572
0.000296503
0.000253296
0.000204522
0.00015066
9.2101e-05
2.90983e-05
-3.82787e-05
-0.000110178
-0.000186994
-0.00026938
-0.000358253
-0.000454781
-0.000560363
-0.000676595
-0.000805233
-0.000948141
-0.00110724
-0.00128445
-0.00148159
-0.00170034
-0.00194211
-0.00220798
-0.00249857
-0.00281396
-0.00315363
-0.00351636
-0.00390021
-0.00430247
-0.00471972
-0.00514781
-0.00558198
-0.00601688
-0.00644675
-0.00686551
-0.00726689
-0.00764457
-0.00799236
-0.00830428
-0.00857476
-0.00879875
-0.00897185
-0.0090904
-0.00915164
-0.00915376
-0.00909595
-0.00897853
-0.00880315
-0.00857248
-0.00829041
-0.00796201
-0.00759352
-0.00719221
-0.00676634
-0.00632499
-0.00587788
-0.00543515
-0.00500713
-0.00460407
-0.00423577
-0.00391134
-0.0036388
-0.00342482
-0.00327438
-0.00319059
-0.00317449
-0.00322498
-0.00333884
-0.00351084
-0.003734
-0.00399991
-0.00429912
-0.00462161
-0.00495727
-0.00529634
-0.00562986
-0.00594999
-0.00625027
-0.00652575
-0.00677307
-0.00699038
-0.00717725
-0.00733443
-0.00746364
-0.00756736
-0.00764851
-0.00771022
-0.00775563
-0.00778763
-0.00780871
-0.00782078
-0.00782502
-0.00782175
-0.00781071
-0.0077912
-0.00775704
-0.00769491
0.000512308
0.000483169
0.000452077
0.000416112
0.000374486
0.000327709
0.000276122
0.000219937
0.000159302
9.42485e-05
2.46239e-05
-4.99532e-05
-0.00013013
-0.000216845
-0.00031133
-0.00041511
-0.000529974
-0.000657936
-0.000801188
-0.000962042
-0.00114286
-0.00134595
-0.00157351
-0.0018275
-0.00210952
-0.00242073
-0.00276171
-0.00313239
-0.00353195
-0.00395876
-0.00441038
-0.00488353
-0.00537412
-0.00587737
-0.00638779
-0.00689941
-0.0074058
-0.00790026
-0.00837597
-0.00882608
-0.00924389
-0.00962301
-0.00995743
-0.0102417
-0.0104711
-0.0106415
-0.0107498
-0.0107939
-0.0107725
-0.0106856
-0.0105344
-0.010321
-0.0100491
-0.00972311
-0.00934901
-0.00893367
-0.00848505
-0.00801201
-0.00752419
-0.00703182
-0.00654546
-0.00607581
-0.00563336
-0.00522812
-0.00486923
-0.0045647
-0.00432102
-0.00414292
-0.00403313
-0.0039922
-0.0040185
-0.0041082
-0.0042555
-0.00445286
-0.00469139
-0.0049613
-0.00525237
-0.00555449
-0.00585807
-0.00615449
-0.0064364
-0.00669794
-0.00693483
-0.0071444
-0.00732546
-0.00747817
-0.00760376
-0.00770438
-0.00778271
-0.0078418
-0.00788475
-0.00791452
-0.00793371
-0.00794438
-0.00794787
-0.00794467
-0.00793468
-0.00791735
-0.00788726
-0.00783277
0.000628041
0.00058529
0.000545652
0.000503634
0.000457221
0.000406662
0.000351975
0.000293022
0.00022964
0.000161578
8.84084e-05
9.46164e-06
-7.62166e-05
-0.000169908
-0.000273227
-0.000388116
-0.000516812
-0.000661809
-0.000825787
-0.00101154
-0.00122187
-0.00145952
-0.00172698
-0.00202646
-0.00235966
-0.00272773
-0.00313109
-0.00356937
-0.00404132
-0.00454479
-0.00507672
-0.00563314
-0.00620926
-0.00679955
-0.0073978
-0.00799734
-0.00859107
-0.00917168
-0.00973175
-0.0102639
-0.010761
-0.0112161
-0.0116229
-0.0119754
-0.0122686
-0.012498
-0.0126602
-0.0127525
-0.0127733
-0.0127222
-0.0125998
-0.012408
-0.0121496
-0.011829
-0.0114513
-0.011023
-0.0105516
-0.0100456
-0.0095144
-0.00896817
-0.00841754
-0.00787351
-0.00734714
-0.00684927
-0.00639015
-0.00597917
-0.00562446
-0.00533258
-0.00510823
-0.00495401
-0.00487028
-0.00485509
-0.0049043
-0.00501173
-0.00516948
-0.00536835
-0.00559835
-0.00584915
-0.00611065
-0.00637344
-0.00662922
-0.00687105
-0.00709354
-0.00729295
-0.00746711
-0.00761533
-0.00773814
-0.00783709
-0.00791446
-0.00797304
-0.00801575
-0.00804549
-0.00806489
-0.00807607
-0.00808049
-0.00807882
-0.0080711
-0.00805691
-0.00803167
-0.00798549
0.000748525
0.000690939
0.000642209
0.000593894
0.000542534
0.00048801
0.000429911
0.000367662
0.00030072
0.000228487
0.000150201
6.4846e-05
-2.89052e-05
-0.000132738
-0.000248713
-0.000379256
-0.000527118
-0.000695316
-0.000887058
-0.00110563
-0.0013543
-0.00163616
-0.001954
-0.00231013
-0.0027063
-0.00314347
-0.00362179
-0.00414045
-0.00469766
-0.0052906
-0.00591549
-0.00656759
-0.00724133
-0.00793037
-0.00862777
-0.0093261
-0.0100176
-0.0106943
-0.0113482
-0.0119714
-0.0125562
-0.0130954
-0.0135821
-0.01401
-0.0143738
-0.0146685
-0.0148904
-0.0150365
-0.0151049
-0.0150946
-0.0150057
-0.0148397
-0.014599
-0.0142872
-0.0139089
-0.01347
-0.0129775
-0.0124393
-0.0118643
-0.0112625
-0.0106442
-0.0100207
-0.0094034
-0.00880367
-0.00823282
-0.00770153
-0.0072196
-0.00679552
-0.00643619
-0.00614655
-0.00592939
-0.00578514
-0.00571185
-0.00570528
-0.0057591
-0.00586521
-0.00601423
-0.00619599
-0.00640008
-0.0066164
-0.00683565
-0.00704969
-0.00725187
-0.00743713
-0.00760206
-0.00774482
-0.00786497
-0.00796323
-0.00804126
-0.00810131
-0.008146
-0.00817802
-0.00819987
-0.00821365
-0.00822089
-0.00822234
-0.00821816
-0.00820806
-0.00818826
-0.00815059
0.000870684
0.000797179
0.000738904
0.000684131
0.000627718
0.000569043
0.000507163
0.000440974
0.000369481
0.000291672
0.000206386
0.0001122
7.34872e-06
-0.000110329
-0.000243405
-0.000394849
-0.000567975
-0.000766371
-0.000993786
-0.00125401
-0.00155071
-0.0018873
-0.00226675
-0.0026914
-0.00316287
-0.00368184
-0.00424801
-0.00486
-0.00551533
-0.00621043
-0.00694066
-0.00770047
-0.0084834
-0.00928229
-0.0100894
-0.0108965
-0.0116952
-0.0124768
-0.0132327
-0.0139545
-0.0146342
-0.0152639
-0.0158364
-0.0163454
-0.0167848
-0.0171497
-0.017436
-0.0176404
-0.0177607
-0.0177953
-0.017744
-0.017608
-0.0173891
-0.0170901
-0.0167152
-0.0162695
-0.0157592
-0.0151916
-0.014575
-0.0139188
-0.0132329
-0.0125285
-0.0118168
-0.0111099
-0.0104195
-0.00975764
-0.00913551
-0.00856353
-0.00805088
-0.00760506
-0.00723162
-0.00693383
-0.00671253
-0.00656605
-0.00649027
-0.00647889
-0.00652374
-0.0066153
-0.00674322
-0.00689694
-0.00706626
-0.0072418
-0.00741547
-0.00758067
-0.00773247
-0.00786757
-0.00798426
-0.00808213
-0.00816192
-0.00822516
-0.00827391
-0.00831044
-0.00833701
-0.00835557
-0.00836757
-0.00837379
-0.00837447
-0.00836936
-0.00835541
-0.00832605
0.000990916
0.000900523
0.000832365
0.000771052
0.000709499
0.000646455
0.000580336
0.000509415
0.000432165
0.000347102
0.000252597
0.00014675
2.72926e-05
-0.000108479
-0.000263713
-0.000441978
-0.000647198
-0.000883547
-0.00115531
-0.00146675
-0.0018219
-0.00222437
-0.00267721
-0.00318267
-0.00374205
-0.00435563
-0.00502249
-0.00574054
-0.00650648
-0.00731587
-0.00816315
-0.00904181
-0.00994449
-0.0108631
-0.0117891
-0.0127135
-0.013627
-0.0145204
-0.0153845
-0.0162105
-0.0169898
-0.0177142
-0.0183765
-0.0189697
-0.0194878
-0.0199257
-0.020279
-0.0205444
-0.0207194
-0.0208019
-0.020791
-0.0206887
-0.0204956
-0.0202139
-0.0198469
-0.0193992
-0.0188761
-0.0182841
-0.0176307
-0.0169244
-0.0161747
-0.0153919
-0.0145872
-0.0137724
-0.0129598
-0.012162
-0.0113915
-0.0106604
-0.00998009
-0.00936057
-0.0088104
-0.00833604
-0.00794163
-0.00762874
-0.00739622
-0.00724035
-0.00715494
-0.00713184
-0.00716133
-0.00723284
-0.00733548
-0.00745875
-0.00759302
-0.00772996
-0.00786283
-0.00798658
-0.00809782
-0.00819472
-0.00827674
-0.00834441
-0.00839896
-0.00844207
-0.00847553
-0.00850096
-0.00851966
-0.00853231
-0.0085391
-0.00853982
-0.00853202
-0.0085105
0.00110502
0.000996956
0.000918688
0.000850798
0.00078402
0.000716329
0.000645388
0.000568762
0.000484319
0.000390026
0.000283726
0.000162976
2.4932e-05
-0.000133715
-0.000316747
-0.000528381
-0.00077317
-0.00105588
-0.0013813
-0.00175411
-0.0021786
-0.0026585
-0.00319676
-0.00379538
-0.00445523
-0.00517595
-0.0059559
-0.00679212
-0.00768036
-0.00861517
-0.00958998
-0.0105972
-0.0116286
-0.012675
-0.0137271
-0.0147749
-0.0158085
-0.0168181
-0.017794
-0.0187269
-0.0196078
-0.0204284
-0.0211812
-0.0218593
-0.0224565
-0.0229677
-0.0233885
-0.0237154
-0.0239458
-0.0240775
-0.0241084
-0.0240434
-0.0238794
-0.0236189
-0.0232646
-0.0228204
-0.0222907
-0.0216811
-0.0209981
-0.0202492
-0.0194429
-0.0185886
-0.0176969
-0.016779
-0.0158472
-0.0149143
-0.0139935
-0.0130982
-0.0122415
-0.0114361
-0.0106932
-0.0100227
-0.00943254
-0.00892796
-0.00851159
-0.00818313
-0.00793934
-0.00777432
-0.00767985
-0.00764597
-0.00766164
-0.00771547
-0.00779638
-0.00789419
-0.00800009
-0.00810694
-0.00820931
-0.00830351
-0.00838739
-0.00846011
-0.00852178
-0.00857319
-0.00861547
-0.00864976
-0.00867698
-0.00869761
-0.00871174
-0.00871907
-0.00871761
-0.0087033
0.00120824
0.00108194
0.000993436
0.00091897
0.000846852
0.000774149
0.000697658
0.000614151
0.000520818
0.000415015
0.000293988
0.000154685
-6.37821e-06
-0.000193176
-0.000410174
-0.00066226
-0.000954625
-0.0012926
-0.00168144
-0.00212612
-0.00263109
-0.00320005
-0.0038357
-0.00453959
-0.005312
-0.00615178
-0.00705636
-0.00802179
-0.00904271
-0.0101126
-0.0112236
-0.0123673
-0.013534
-0.0147139
-0.0158965
-0.0170711
-0.0182272
-0.0193543
-0.0204423
-0.0214815
-0.0224629
-0.023378
-0.0242193
-0.0249799
-0.0256538
-0.026236
-0.0267221
-0.0271087
-0.0273932
-0.0275744
-0.0276523
-0.0276222
-0.0274886
-0.0272524
-0.0269153
-0.0264802
-0.0259509
-0.0253317
-0.0246281
-0.0238464
-0.0229939
-0.0220788
-0.0211107
-0.0200998
-0.0190578
-0.0179971
-0.016931
-0.0158736
-0.0148393
-0.0138427
-0.0128976
-0.0120173
-0.0112133
-0.0104952
-0.00986988
-0.00934141
-0.00891047
-0.0085745
-0.00832784
-0.00816213
-0.00806694
-0.00803054
-0.00804068
-0.00808539
-0.00815364
-0.00823583
-0.00832414
-0.00841256
-0.00849688
-0.00857448
-0.00864399
-0.00870502
-0.00875774
-0.0088026
-0.00884
-0.00887007
-0.00889266
-0.00890733
-0.00891236
-0.00890457
0.00129534
0.00115044
0.00105167
0.00097065
0.000893031
0.000814838
0.000731902
0.00064012
0.000535939
0.000416042
0.000277013
0.000115125
-7.38006e-05
-0.000294457
-0.000552022
-0.000852067
-0.0012004
-0.00160287
-0.00206509
-0.00259226
-0.00318882
-0.00385824
-0.00460282
-0.0054235
-0.00631972
-0.00728939
-0.00832887
-0.00943299
-0.0105952
-0.0118077
-0.0130614
-0.0143467
-0.0156528
-0.0169688
-0.0182833
-0.0195849
-0.0208625
-0.022105
-0.023302
-0.0244438
-0.0255212
-0.0265259
-0.0274505
-0.0282884
-0.0290339
-0.0296822
-0.0302293
-0.0306719
-0.0310077
-0.0312353
-0.0313543
-0.0313628
-0.0312618
-0.0310525
-0.0307366
-0.0303161
-0.0297939
-0.0291735
-0.0284592
-0.027656
-0.0267699
-0.0258078
-0.0247776
-0.0236884
-0.0225505
-0.0213755
-0.0201762
-0.0189665
-0.0177614
-0.0165766
-0.015428
-0.0143317
-0.0133028
-0.0123551
-0.0115003
-0.0107473
-0.0101017
-0.00956552
-0.00913691
-0.00881035
-0.00857715
-0.0084261
-0.00834441
-0.00831859
-0.0083354
-0.00838259
-0.00844951
-0.00852739
-0.00860945
-0.0086908
-0.00876816
-0.00883957
-0.00890396
-0.00896083
-0.00900985
-0.00905065
-0.00908271
-0.00910541
-0.0091171
-0.00911524
0.0013606
0.00119697
0.00108802
0.00100046
0.000917113
0.000832824
0.000742369
0.000640697
0.000523454
0.000386589
0.000225968
3.71325e-05
-0.000184845
-0.000445408
-0.000750464
-0.00110625
-0.00151916
-0.00199545
-0.00254103
-0.00316111
-0.00385999
-0.00464074
-0.00550504
-0.00645301
-0.00748307
-0.008592
-0.00977487
-0.0110252
-0.012335
-0.0136952
-0.0150954
-0.0165246
-0.0179709
-0.0194224
-0.0208668
-0.0222921
-0.0236866
-0.025039
-0.0263388
-0.0275761
-0.0287421
-0.0298287
-0.0308288
-0.0317363
-0.032546
-0.0332534
-0.0338551
-0.0343481
-0.0347305
-0.035001
-0.0351589
-0.0352033
-0.0351347
-0.0349538
-0.0346618
-0.0342604
-0.0337516
-0.0331381
-0.032423
-0.0316101
-0.030704
-0.02971
-0.0286344
-0.0274847
-0.0262696
-0.0249991
-0.0236848
-0.0223397
-0.0209786
-0.0196173
-0.018273
-0.0169638
-0.0157076
-0.0145222
-0.0134241
-0.0124273
-0.0115434
-0.0107797
-0.0101395
-0.0096218
-0.00922093
-0.00892754
-0.00872928
-0.0086118
-0.00855992
-0.00855872
-0.0085944
-0.00865496
-0.0087305
-0.00881329
-0.00889765
-0.00897957
-0.0090564
-0.00912635
-0.00918819
-0.00924086
-0.00928336
-0.00931467
-0.00933328
-0.00933691
0.00139792
0.00121572
0.00109673
0.00100265
0.000913266
0.000822138
0.000722907
0.000609518
0.000476763
0.000319802
0.000133732
-8.66844e-05
-0.000347162
-0.000653912
-0.00101356
-0.00143299
-0.00191907
-0.00247841
-0.00311701
-0.00383999
-0.00465126
-0.00555332
-0.00654701
-0.00763139
-0.00880371
-0.0100594
-0.011392
-0.0127937
-0.0142549
-0.015765
-0.0173123
-0.0188844
-0.0204684
-0.0220514
-0.0236204
-0.0251628
-0.0266665
-0.0281202
-0.0295134
-0.0308366
-0.0320812
-0.0332396
-0.0343054
-0.035273
-0.0361377
-0.0368957
-0.0375442
-0.0380807
-0.0385036
-0.0388119
-0.039005
-0.0390825
-0.0390447
-0.0388922
-0.0386258
-0.0382467
-0.0377563
-0.0371566
-0.0364497
-0.0356383
-0.0347254
-0.0337149
-0.0326115
-0.0314207
-0.0301494
-0.0288056
-0.0273991
-0.0259414
-0.0244459
-0.0229279
-0.0214046
-0.019895
-0.018419
-0.0169976
-0.0156513
-0.0143995
-0.0132596
-0.0122455
-0.0113667
-0.010628
-0.0100287
-0.0095628
-0.00921993
-0.00898594
-0.00884442
-0.00877799
-0.00876962
-0.00880366
-0.00886653
-0.00894705
-0.0090365
-0.00912833
-0.00921782
-0.00930158
-0.00937716
-0.00944266
-0.00949644
-0.00953705
-0.00956282
-0.0095718
0.00140097
0.00120059
0.00107183
0.000971203
0.000875383
0.000776534
0.000667099
0.000539973
0.000389049
0.000208657
-6.9219e-06
-0.000263739
-0.000568316
-0.000927632
-0.00134901
-0.00183989
-0.00240755
-0.00305877
-0.00379953
-0.00463462
-0.0055674
-0.00659953
-0.0077308
-0.00895904
-0.0102801
-0.0116877
-0.0131741
-0.0147294
-0.0163428
-0.018002
-0.0196939
-0.0214047
-0.0231207
-0.024828
-0.026513
-0.0281628
-0.0297653
-0.0313092
-0.0327844
-0.0341817
-0.0354931
-0.0367119
-0.0378322
-0.0388491
-0.0397588
-0.0405582
-0.0412448
-0.041817
-0.0422736
-0.0426139
-0.0428376
-0.0429446
-0.0429351
-0.0428098
-0.0425692
-0.0422143
-0.041746
-0.0411655
-0.0404742
-0.0396737
-0.0387659
-0.0377533
-0.0366387
-0.035426
-0.0341199
-0.0327264
-0.031253
-0.0297091
-0.028106
-0.0264574
-0.0247796
-0.023091
-0.0214126
-0.019767
-0.018178
-0.0166697
-0.015265
-0.0139844
-0.012845
-0.0118584
-0.0110307
-0.0103612
-0.00984325
-0.00946458
-0.0092087
-0.0090565
-0.00898789
-0.00898335
-0.00902513
-0.00909796
-0.00918936
-0.00928961
-0.00939136
-0.00948924
-0.00957924
-0.00965837
-0.00972422
-0.0097748
-0.00980817
-0.00982262
0.00136328
0.00114539
0.00100718
0.000899969
0.000797219
0.000689635
0.000568415
0.00042537
0.00025346
4.61523e-05
-0.000203118
-0.000501242
-0.000855548
-0.00127376
-0.00176385
-0.00233371
-0.00299091
-0.00374226
-0.00459349
-0.00554888
-0.006611
-0.00778046
-0.00905578
-0.0104333
-0.0119072
-0.0134696
-0.0151109
-0.0168196
-0.018583
-0.0203872
-0.022218
-0.0240603
-0.0258995
-0.0277209
-0.0295108
-0.0312561
-0.0329449
-0.0345661
-0.0361102
-0.0375687
-0.0389345
-0.0402014
-0.0413646
-0.0424199
-0.0433643
-0.0441955
-0.0449116
-0.0455117
-0.0459949
-0.0463611
-0.0466103
-0.0467426
-0.0467584
-0.0466582
-0.0464426
-0.0461124
-0.0456681
-0.0451104
-0.0444401
-0.0436579
-0.0427649
-0.0417621
-0.040651
-0.0394338
-0.0381131
-0.0366928
-0.0351779
-0.0335754
-0.031894
-0.030145
-0.0283426
-0.0265039
-0.024649
-0.0228009
-0.0209854
-0.0192297
-0.0175616
-0.0160081
-0.0145935
-0.0133378
-0.0122549
-0.0113517
-0.0106272
-0.0100732
-0.0096749
-0.00941262
-0.00926391
-0.0092055
-0.0092151
-0.00927272
-0.00936143
-0.00946755
-0.0095805
-0.00969234
-0.00979715
-0.00989057
-0.00996924
-0.0100305
-0.0100721
-0.0100924
0.0012784
0.00104394
0.000896682
0.000782808
0.000672551
0.000555103
0.00042039
0.000259123
6.33082e-05
-0.000174475
-0.000461654
-0.000805965
-0.00121553
-0.00169877
-0.00226421
-0.00292012
-0.00367417
-0.00453303
-0.00550198
-0.00658458
-0.00778235
-0.00909464
-0.0105184
-0.0120484
-0.013677
-0.0153943
-0.0171889
-0.0190476
-0.0209558
-0.0228983
-0.0248594
-0.0268232
-0.0287742
-0.0306976
-0.0325794
-0.0344066
-0.0361677
-0.0378525
-0.0394519
-0.0409585
-0.0423658
-0.0436689
-0.0448636
-0.0459467
-0.0469161
-0.0477701
-0.0485076
-0.0491281
-0.0496315
-0.0500177
-0.0502873
-0.0504405
-0.050478
-0.0504003
-0.0502081
-0.0499018
-0.0494819
-0.0489488
-0.0483027
-0.047544
-0.0466726
-0.0456889
-0.044593
-0.0433856
-0.0420676
-0.0406409
-0.0391081
-0.0374735
-0.0357431
-0.0339253
-0.0320313
-0.0300757
-0.0280766
-0.0260561
-0.0240397
-0.0220565
-0.0201377
-0.0183155
-0.0166213
-0.0150832
-0.0137243
-0.0125606
-0.0115993
-0.0108383
-0.0102669
-0.00986679
-0.00961439
-0.00948323
-0.00944648
-0.00947894
-0.00955847
-0.00966665
-0.00978889
-0.00991403
-0.0100338
-0.010142
-0.0102342
-0.0103069
-0.0103575
-0.0103846
0.0011401
0.000890261
0.000734419
0.000613764
0.000495345
0.000366811
0.00021681
3.49485e-05
-0.000187728
-0.000459536
-0.000788777
-0.00118401
-0.00165412
-0.00220816
-0.0028551
-0.00360343
-0.00446079
-0.00543348
-0.00652613
-0.00774131
-0.00907932
-0.010538
-0.0121125
-0.0137958
-0.0155782
-0.017448
-0.0193916
-0.0213941
-0.0234393
-0.0255106
-0.0275911
-0.0296642
-0.031714
-0.0337255
-0.0356849
-0.0375797
-0.039399
-0.0411334
-0.0427747
-0.0443165
-0.0457535
-0.0470815
-0.0482973
-0.0493988
-0.0503844
-0.0512533
-0.0520049
-0.0526394
-0.0531569
-0.053558
-0.0538433
-0.0540133
-0.0540689
-0.0540108
-0.0538395
-0.0535555
-0.0531592
-0.0526509
-0.0520304
-0.0512977
-0.0504523
-0.0494937
-0.0484213
-0.0472345
-0.0459329
-0.0445164
-0.0429858
-0.0413426
-0.0395902
-0.0377337
-0.0357812
-0.0337438
-0.0316366
-0.029479
-0.0272951
-0.0251137
-0.0229674
-0.0208921
-0.0189246
-0.0171012
-0.015454
-0.0140092
-0.0127841
-0.0117855
-0.0110093
-0.010441
-0.0100578
-0.00983139
-0.00973071
-0.00972522
-0.00978693
-0.00989183
-0.0100204
-0.0101576
-0.0102921
-0.0104156
-0.010522
-0.010607
-0.0106675
-0.0107024
0.00094247
0.00067871
0.00051481