/*--------------------------------*- C++ -*----------------------------------*\
  =========                 |
  \\      /  F ield         | OpenFOAM: The Open Source CFD Toolbox
   \\    /   O peration     | Website:  https://openfoam.org
    \\  /    A nd           | Version:  9
     \\/     M anipulation  |
\*---------------------------------------------------------------------------*/
FoamFile
{
    format      ascii;
    class       surfaceScalarField;
    location    "2.25";
    object      phi;
}
// * * * * * * * * * * * * * * * * * * * * * * * * * * * * * * * * * * * * * //

dimensions      [0 3 -1 0 0 0 0];

internalField   nonuniform List<scalar> 
19800
(
9.48475e-11
-9.65998e-11
8.04293e-10
-7.09454e-10
1.99124e-09
-1.18694e-09
3.42464e-09
-1.43342e-09
4.92389e-09
-1.49924e-09
6.36091e-09
-1.43702e-09
7.64979e-09
-1.28887e-09
8.73653e-09
-1.08674e-09
9.59013e-09
-8.53611e-10
1.01955e-08
-6.05346e-10
1.05478e-08
-3.52373e-10
1.06489e-08
-1.01023e-10
1.05031e-08
1.45783e-10
1.01156e-08
3.87502e-10
9.49017e-09
6.25414e-10
8.62807e-09
8.62097e-10
7.52712e-09
1.10095e-09
6.18139e-09
1.34574e-09
4.58111e-09
1.60027e-09
2.71303e-09
1.86809e-09
5.60859e-10
2.15218e-09
-1.89399e-09
2.45484e-09
-4.67155e-09
2.77755e-09
-7.79242e-09
3.12088e-09
-1.12768e-08
3.48443e-09
-1.51437e-08
3.86686e-09
-1.94096e-08
4.2659e-09
-2.40879e-08
4.67831e-09
-2.91879e-08
5.09994e-09
-3.47136e-08
5.52571e-09
-4.06632e-08
5.94966e-09
-4.70282e-08
6.36495e-09
-5.37921e-08
6.76393e-09
-6.09303e-08
7.1382e-09
-6.8409e-08
7.47871e-09
-7.61849e-08
7.77589e-09
-8.42047e-08
8.01982e-09
-9.24051e-08
8.20039e-09
-1.00713e-07
8.30756e-09
-1.09044e-07
8.3316e-09
-1.17308e-07
8.26332e-09
-1.25402e-07
8.09436e-09
-1.33219e-07
7.81749e-09
-1.40646e-07
7.42685e-09
-1.47565e-07
6.91828e-09
-1.53854e-07
6.28952e-09
-1.59395e-07
5.54049e-09
-1.64068e-07
4.67346e-09
-1.67762e-07
3.69357e-09
-1.70371e-07
2.60949e-09
-1.71803e-07
1.43182e-09
-1.71979e-07
1.76527e-10
-1.70818e-07
-1.16194e-09
-1.68285e-07
-2.53266e-09
-1.64353e-07
-3.93135e-09
-1.59021e-07
-5.33227e-09
-1.52311e-07
-6.71001e-09
-1.44273e-07
-8.03808e-09
-1.34984e-07
-9.2894e-09
-1.24547e-07
-1.0437e-08
-1.13092e-07
-1.14547e-08
-1.00774e-07
-1.23184e-08
-8.77671e-08
-1.30065e-08
-7.4266e-08
-1.3501e-08
-6.04777e-08
-1.37884e-08
-4.66174e-08
-1.38603e-08
-3.29034e-08
-1.3714e-08
-1.95504e-08
-1.3353e-08
-6.76353e-09
-1.27869e-08
5.26804e-09
-1.20316e-08
1.63761e-08
-1.11081e-08
2.64178e-08
-1.00417e-08
3.52806e-08
-8.86272e-09
4.28838e-08
-7.60321e-09
4.91804e-08
-6.29668e-09
5.41568e-08
-4.97637e-09
5.78309e-08
-3.67406e-09
6.02497e-08
-2.41878e-09
6.14854e-08
-1.23577e-09
6.16312e-08
-1.45766e-10
6.07957e-08
8.3554e-10
5.90979e-08
1.69775e-09
5.66621e-08
2.43579e-09
5.36131e-08
3.04904e-09
5.00717e-08
3.54135e-09
4.61516e-08
3.92012e-09
4.19563e-08
4.1953e-09
3.75779e-08
4.37841e-09
3.30967e-08
4.48119e-09
2.85825e-08
4.51423e-09
2.40973e-08
4.48521e-09
1.97004e-08
4.39692e-09
1.54554e-08
4.24501e-09
1.14398e-08
4.01557e-09
7.75682e-09
3.68297e-09
4.5473e-09
3.20951e-09
1.99621e-09
2.55109e-09
3.20139e-10
1.67608e-09
-3.05794e-10
6.25933e-10
-3.05794e-10
7.10219e-10
-8.0682e-10
2.61908e-09
-2.61829e-09
5.34894e-09
-3.9168e-09
8.51584e-09
-4.60031e-09
1.17813e-08
-4.76469e-09
1.48762e-08
-4.53194e-09
1.76012e-08
-4.01384e-09
1.9817e-08
-3.3026e-09
2.14326e-08
-2.46916e-09
2.23925e-08
-1.56525e-09
2.26665e-08
-6.26362e-10
2.2241e-08
3.24419e-10
2.11109e-08
1.2759e-09
1.92741e-08
2.22426e-09
1.67275e-08
3.17207e-09
1.34631e-08
4.12646e-09
9.46673e-09
5.09732e-09
4.71654e-09
6.09594e-09
-8.1686e-10
7.13367e-09
-7.16966e-09
8.22088e-09
-1.43835e-08
9.36606e-09
-2.25038e-08
1.05751e-08
-3.15772e-08
1.18509e-08
-4.16493e-08
1.3193e-08
-5.27622e-08
1.45973e-08
-6.49515e-08
1.60562e-08
-7.82442e-08
1.75586e-08
-9.26556e-08
1.90897e-08
-1.08187e-07
2.06314e-08
-1.24824e-07
2.21624e-08
-1.42532e-07
2.36583e-08
-1.61259e-07
2.50919e-08
-1.80929e-07
2.64335e-08
-2.01442e-07
2.76514e-08
-2.22676e-07
2.87124e-08
-2.44482e-07
2.95823e-08
-2.66689e-07
3.02266e-08
-2.891e-07
3.06118e-08
-3.11498e-07
3.07055e-08
-3.33644e-07
3.04776e-08
-3.55283e-07
2.99015e-08
-3.76143e-07
2.89544e-08
-3.95944e-07
2.76187e-08
-4.14399e-07
2.58822e-08
-4.3122e-07
2.37394e-08
-4.46122e-07
2.11917e-08
-4.5883e-07
1.82481e-08
-4.69082e-07
1.49254e-08
-4.76638e-07
1.12493e-08
-4.81284e-07
7.25584e-09
-4.82842e-07
2.98958e-09
-4.81158e-07
-1.50695e-09
-4.76123e-07
-6.19688e-09
-4.67677e-07
-1.09788e-08
-4.55812e-07
-1.57964e-08
-4.4057e-07
-2.05745e-08
-4.22047e-07
-2.52334e-08
-4.00394e-07
-2.96909e-08
-3.75819e-07
-3.38643e-08
-3.48584e-07
-3.76721e-08
-3.19002e-07
-4.10364e-08
-2.87435e-07
-4.38855e-08
-2.54286e-07
-4.61557e-08
-2.19993e-07
-4.7794e-08
-1.85021e-07
-4.87605e-08
-1.49851e-07
-4.903e-08
-1.14971e-07
-4.85939e-08
-8.08629e-08
-4.7461e-08
-4.79915e-08
-4.56582e-08
-1.67929e-08
-4.32302e-08
1.23375e-08
-4.02384e-08
3.90545e-08
-3.67587e-08
6.30709e-08
-3.28791e-08
8.41656e-08
-2.86979e-08
1.02187e-07
-2.43183e-08
1.17056e-07
-1.98451e-08
1.28763e-07
-1.53807e-08
1.37365e-07
-1.10215e-08
1.42984e-07
-6.85434e-09
1.45792e-07
-2.95344e-09
1.46006e-07
6.2102e-10
1.43878e-07
3.82535e-09
1.39682e-07
6.6318e-09
1.33704e-07
9.02771e-09
1.2623e-07
1.10151e-08
1.17541e-07
1.26086e-08
1.07905e-07
1.38322e-08
9.7567e-08
1.4716e-08
8.67558e-08
1.52924e-08
7.56792e-08
1.55909e-08
6.45317e-08
1.56327e-08
5.35034e-08
1.54252e-08
4.27932e-08
1.49552e-08
3.26244e-08
1.41844e-08
2.32612e-08
1.30461e-08
1.50203e-08
1.14504e-08
8.26571e-09
9.30573e-09
3.37275e-09
6.56904e-09
6.45678e-10
3.353e-09
3.39884e-10
1.19656e-09
-2.00337e-09
3.93695e-09
-5.35871e-09
7.62525e-09
-7.60509e-09
1.1762e-08
-8.73708e-09
1.5921e-08
-8.92368e-09
1.97564e-08
-8.36736e-09
2.30018e-08
-7.25923e-09
2.54612e-08
-5.76202e-09
2.69971e-08
-4.00506e-09
2.75174e-08
-2.08555e-09
2.69625e-08
-7.14748e-11
2.52961e-08
1.99085e-09
2.24933e-08
4.07869e-09
1.85351e-08
6.18246e-09
1.34017e-08
8.30548e-09
7.06849e-09
1.04597e-08
-4.96524e-10
1.26623e-08
-9.33398e-09
1.49334e-08
-1.9493e-08
1.72927e-08
-3.10298e-08
1.97577e-08
-4.40059e-08
2.23421e-08
-5.84844e-08
2.50537e-08
-7.45273e-08
2.78938e-08
-9.21911e-08
3.08567e-08
-1.11523e-07
3.39289e-08
-1.32555e-07
3.7089e-08
-1.55305e-07
4.03083e-08
-1.79766e-07
4.35507e-08
-2.05908e-07
4.67728e-08
-2.3367e-07
4.99251e-08
-2.62964e-07
5.29521e-08
-2.93665e-07
5.57931e-08
-3.25616e-07
5.83837e-08
-3.58621e-07
6.06564e-08
-3.92451e-07
6.25424e-08
-4.26841e-07
6.39727e-08
-4.61495e-07
6.48802e-08
-4.96084e-07
6.52011e-08
-5.30255e-07
6.48769e-08
-5.63633e-07
6.38557e-08
-5.95826e-07
6.20945e-08
-6.26432e-07
5.95601e-08
-6.55044e-07
5.62306e-08
-6.81259e-07
5.20968e-08
-7.04682e-07
4.71624e-08
-7.24936e-07
4.14457e-08
-7.41666e-07
3.49789e-08
-7.5455e-07
2.78092e-08
-7.63299e-07
1.99983e-08
-7.6767e-07
1.16269e-08
-7.67491e-07
2.81018e-09
-7.6256e-07
-6.43809e-09
-7.52827e-07
-1.59298e-08
-7.3826e-07
-2.55454e-08
-7.18898e-07
-3.51585e-08
-6.94844e-07
-4.46288e-08
-6.66268e-07
-5.38095e-08
-6.33408e-07
-6.25511e-08
-5.96567e-07
-7.07047e-08
-5.56115e-07
-7.81247e-08
-5.12478e-07
-8.46726e-08
-4.66143e-07
-9.02209e-08
-4.17642e-07
-9.46565e-08
-3.67551e-07
-9.7885e-08
-3.16478e-07
-9.98341e-08
-2.6505e-07
-1.00457e-07
-2.13909e-07
-9.97355e-08
-1.63689e-07
-9.76812e-08
-1.15009e-07
-9.43377e-08
-6.84597e-08
-8.97799e-08
-2.45854e-08
-8.41128e-08
1.61249e-08
-7.74691e-08
5.32511e-08
-7.00053e-08
8.64491e-08
-6.18959e-08
1.15461e-07
-5.33305e-08
1.4012e-07
-4.45033e-08
1.60347e-07
-3.56085e-08
1.76158e-07
-2.68325e-08
1.87652e-07
-1.83478e-08
1.95005e-07
-1.0307e-08
1.98465e-07
-2.83879e-09
1.98335e-07
3.95565e-09
1.94958e-07
1.00084e-08
1.88712e-07
1.52744e-08
1.79986e-07
1.97407e-08
1.69176e-07
2.34185e-08
1.56669e-07
2.6339e-08
1.42838e-07
2.85474e-08
1.28035e-07
3.00951e-08
1.12595e-07
3.10308e-08
9.68373e-08
3.13905e-08
8.10757e-08
3.11868e-08
6.56322e-08
3.03987e-08
5.08528e-08
2.89638e-08
3.71222e-08
2.67767e-08
2.48727e-08
2.36999e-08
1.45781e-08
1.96004e-08
6.725e-09
1.44221e-08
1.75218e-09
8.32583e-09
2.09206e-09
1.45625e-09
-3.45963e-09
4.64276e-09
-8.54522e-09
8.77847e-09
-1.17408e-08
1.32645e-08
-1.32231e-08
1.76144e-08
-1.32735e-08
2.14381e-08
-1.21911e-08
2.44313e-08
-1.02525e-08
2.63635e-08
-7.69419e-09
2.70649e-08
-4.70641e-09
2.64134e-08
-1.43407e-09
2.4323e-08
2.01892e-09
2.07301e-08
5.58368e-09
1.55871e-08
9.22171e-09
8.85176e-09
1.29178e-08
4.82112e-10
1.66751e-08
-9.56807e-09
2.05098e-08
-2.13518e-08
2.44461e-08
-3.49301e-08
2.85116e-08
-5.03707e-08
3.27333e-08
-6.77466e-08
3.71337e-08
-8.71327e-08
4.17281e-08
-1.08601e-07
4.65222e-08
-1.32218e-07
5.15102e-08
-1.58034e-07
5.66736e-08
-1.86087e-07
6.19813e-08
-2.16387e-07
6.73889e-08
-2.48918e-07
7.28392e-08
-2.8363e-07
7.82632e-08
-3.20438e-07
8.35805e-08
-3.59214e-07
8.8701e-08
-3.99788e-07
9.35262e-08
-4.41946e-07
9.79512e-08
-4.85429e-07
1.01867e-07
-5.29933e-07
1.05161e-07
-5.75114e-07
1.07723e-07
-6.20588e-07
1.09447e-07
-6.65938e-07
1.1023e-07
-7.10718e-07
1.09981e-07
-7.5446e-07
1.08619e-07
-7.96681e-07
1.06078e-07
-8.36894e-07
1.02307e-07
-8.7461e-07
9.72756e-08
-9.09349e-07
9.09699e-08
-9.4065e-07
8.33978e-08
-9.68075e-07
7.45875e-08
-9.91217e-07
6.45882e-08
-1.00971e-06
5.34702e-08
-1.02322e-06
4.13244e-08
-1.03149e-06
2.82605e-08
-1.03426e-06
1.43961e-08
-1.03147e-06
2.81377e-11
-1.02285e-06
-1.50628e-08
-1.00846e-06
-3.03207e-08
-9.88304e-07
-4.56988e-08
-9.62475e-07
-6.09881e-08
-9.31125e-07
-7.59781e-08
-8.94481e-07
-9.04538e-08
-8.52834e-07
-1.04198e-07
-8.06544e-07
-1.16995e-07
-7.56034e-07
-1.28635e-07
-7.01788e-07
-1.38918e-07
-6.44349e-07
-1.4766e-07
-5.8431e-07
-1.54696e-07
-5.22308e-07
-1.59887e-07
-4.59017e-07
-1.63125e-07
-3.95139e-07
-1.64335e-07
-3.31388e-07
-1.63486e-07
-2.68484e-07
-1.60585e-07
-2.07135e-07
-1.55687e-07
-1.48025e-07
-1.4889e-07
-9.18001e-08
-1.40338e-07
-3.90527e-08
-1.30216e-07
9.6896e-09
-1.18748e-07
5.39786e-08
-1.06185e-07
9.34512e-08
-9.2803e-08
1.27842e-07
-7.88939e-08
1.56984e-07
-6.47511e-08
1.80815e-07
-5.06633e-08
1.99371e-07
-3.69034e-08
2.12783e-07
-2.37194e-08
2.21271e-07
-1.13264e-08
2.25135e-07
9.18271e-11
2.24726e-07
1.04168e-08
2.20459e-07
1.95414e-08
2.12776e-07
2.74241e-08
2.02139e-07
3.40555e-08
1.89018e-07
3.94602e-08
1.73878e-07
4.36871e-08
1.57175e-07
4.67987e-08
1.39348e-07
4.88575e-08
1.20827e-07
4.99116e-08
1.02035e-07
4.99786e-08
8.34017e-08
4.90319e-08
6.53755e-08
4.699e-08
4.84373e-08
4.37149e-08
3.31101e-08
3.90271e-08
1.99627e-08
3.27478e-08
9.60606e-09
2.47787e-08
2.69439e-09
1.52375e-08
4.78645e-09
1.53233e-09
-4.99194e-09
4.80505e-09
-1.1818e-08
8.91897e-09
-1.58547e-08
1.32034e-08
-1.75076e-08
1.7132e-08
-1.72021e-08
2.02901e-08
-1.53492e-08
2.23538e-08
-1.23162e-08
2.30731e-08
-8.41345e-09
2.2257e-08
-3.89032e-09
1.97606e-08
1.06232e-09
1.5473e-08
6.30653e-09
9.30591e-09
1.17507e-08
1.1854e-09
1.73422e-08
-8.95633e-09
2.30595e-08
-2.11863e-08
2.89051e-08
-3.55748e-08
3.48983e-08
-5.21971e-08
4.10684e-08
-7.11337e-08
4.74482e-08
-9.24686e-08
5.40682e-08
-1.16286e-07
6.09515e-08
-1.42668e-07
6.81094e-08
-1.71683e-07
7.5538e-08
-2.03389e-07
8.32159e-08
-2.37819e-07
9.1103e-08
-2.74977e-07
9.91395e-08
-3.14834e-07
1.07246e-07
-3.57322e-07
1.15327e-07
-4.02324e-07
1.23266e-07
-4.49679e-07
1.30935e-07
-4.99171e-07
1.38193e-07
-5.50533e-07
1.44888e-07
-6.03446e-07
1.50865e-07
-6.57542e-07
1.55963e-07
-7.12405e-07
1.60024e-07
-7.67579e-07
1.62897e-07
-8.22571e-07
1.64439e-07
-8.76864e-07
1.64523e-07
-9.2992e-07
1.63036e-07
-9.81191e-07
1.5989e-07
-1.03013e-06
1.55016e-07
-1.07619e-06
1.48373e-07
-1.11886e-06
1.39945e-07
-1.15764e-06
1.29744e-07
-1.19205e-06
1.1781e-07
-1.22167e-06
1.04208e-07
-1.24611e-06
8.90312e-08
-1.26504e-06
7.23975e-08
-1.27816e-06
5.44485e-08
-1.28525e-06
3.53488e-08
-1.28615e-06
1.52904e-08
-1.28062e-06
-5.50288e-09
-1.26877e-06
-2.6904e-08
-1.25052e-06
-4.85784e-08
-1.22592e-06
-7.02973e-08
-1.1951e-06
-9.18026e-08
-1.15826e-06
-1.12823e-07
-1.11563e-06
-1.33081e-07
-1.06753e-06
-1.52297e-07
-1.01433e-06
-1.70192e-07
-9.56474e-07
-1.86496e-07
-8.94445e-07
-2.00947e-07
-8.28799e-07
-2.13306e-07
-7.60142e-07
-2.23353e-07
-6.89127e-07
-2.30902e-07
-6.16449e-07
-2.35803e-07
-5.42835e-07
-2.37949e-07
-4.69037e-07
-2.37284e-07
-3.95817e-07
-2.33805e-07
-3.23938e-07
-2.27566e-07
-2.54148e-07
-2.1868e-07
-1.87166e-07
-2.0732e-07
-1.23668e-07
-1.93715e-07
-6.42705e-08
-1.78145e-07
-9.51971e-09
-1.60936e-07
4.01246e-08
-1.42447e-07
8.42943e-08
-1.23063e-07
1.22724e-07
-1.03181e-07
1.55257e-07
-8.31958e-08
1.81842e-07
-6.34889e-08
2.02538e-07
-4.44149e-08
2.17502e-07
-2.62911e-08
2.26982e-07
-9.38835e-09
2.31319e-07
6.07985e-09
2.30909e-07
1.99521e-08
2.26206e-07
3.21265e-08
2.17705e-07
4.25563e-08
2.05924e-07
5.12419e-08
1.9139e-07
5.82211e-08
1.74634e-07
6.35546e-08
1.56182e-07
6.73094e-08
1.36554e-07
6.95393e-08
1.16268e-07
7.02649e-08
9.5845e-08
6.94549e-08
7.58228e-08
6.70122e-08
5.67667e-08
6.27709e-08
3.92841e-08
5.65097e-08
2.40403e-08
4.79916e-08
1.17827e-08
3.70363e-08
3.38739e-09
2.36328e-08
8.17383e-09
1.46658e-09
-6.45852e-09
4.51009e-09
-1.48615e-08
8.17825e-09
-1.95229e-08
1.17638e-08
-2.10931e-08
1.47222e-08
-2.01605e-08
1.66302e-08
-1.72572e-08
1.71576e-08
-1.28436e-08
1.60456e-08
-7.30147e-09
1.30906e-08
-9.35326e-10
8.12995e-09
6.02296e-09
1.03158e-09
1.34049e-08
-8.31683e-09
2.10992e-08
-2.00154e-08
2.90408e-08
-3.41583e-08
3.72025e-08
-5.08386e-08
4.55854e-08
-7.01504e-08
5.42102e-08
-9.21903e-08
6.31083e-08
-1.17056e-07
7.23134e-08
-1.44841e-07
8.18542e-08
-1.75637e-07
9.1747e-08
-2.09518e-07
1.01991e-07
-2.46543e-07
1.12563e-07
-2.86743e-07
1.23415e-07
-3.30115e-07
1.34475e-07
-3.76615e-07
1.4564e-07
-4.26155e-07
1.56786e-07
-4.78592e-07
1.67763e-07
-5.33727e-07
1.78401e-07
-5.91304e-07
1.88512e-07
-6.51006e-07
1.97895e-07
-7.12461e-07
2.06343e-07
-7.75241e-07
2.13645e-07
-8.3887e-07
2.19592e-07
-9.0283e-07
2.23984e-07
-9.66571e-07
2.26637e-07
-1.02952e-06
2.27385e-07
-1.09108e-06
2.26086e-07
-1.15067e-06
2.22625e-07
-1.2077e-06
2.16919e-07
-1.2616e-06
2.08916e-07
-1.31183e-06
1.98601e-07
-1.35787e-06
1.85988e-07
-1.39925e-06
1.71128e-07
-1.43555e-06
1.54102e-07
-1.46636e-06
1.35023e-07
-1.49136e-06
1.14032e-07
-1.51026e-06
9.12966e-08
-1.52282e-06
6.70095e-08
-1.52886e-06
4.13874e-08
-1.52824e-06
1.46746e-08
-1.52086e-06
-1.2886e-08
-1.50673e-06
-4.10376e-08
-1.48584e-06
-6.94607e-08
-1.45828e-06
-9.78576e-08
-1.42417e-06
-1.25913e-07
-1.3837e-06
-1.53302e-07
-1.33709e-06
-1.79689e-07
-1.28465e-06
-2.04739e-07
-1.22672e-06
-2.28115e-07
-1.16373e-06
-2.49486e-07
-1.09615e-06
-2.68532e-07
-1.0245e-06
-2.84954e-07
-9.49374e-07
-2.98477e-07
-8.71415e-07
-3.08861e-07
-7.91313e-07
-3.15905e-07
-7.098e-07
-3.19463e-07
-6.27642e-07
-3.19442e-07
-5.45629e-07
-3.15818e-07
-4.64563e-07
-3.08632e-07
-3.85242e-07
-2.98001e-07
-3.08447e-07
-2.84114e-07
-2.34929e-07
-2.67233e-07
-1.65387e-07
-2.47687e-07
-1.00458e-07
-2.25864e-07
-4.07024e-08
-2.02203e-07
1.34121e-08
-1.77178e-07
6.15181e-08
-1.51287e-07
1.03355e-07
-1.25033e-07
1.38778e-07
-9.89112e-08
1.67752e-07
-7.33895e-08
1.90358e-07
-4.88966e-08
2.06778e-07
-2.58081e-08
2.17296e-07
-4.43792e-09
2.22276e-07
1.49716e-08
2.22157e-07
3.22453e-08
2.17435e-07
4.7279e-08
2.08645e-07
6.00311e-08
1.96356e-07
7.05109e-08
1.81147e-07
7.87627e-08
1.63611e-07
8.48455e-08
1.4434e-07
8.88104e-08
1.2393e-07
9.06753e-08
1.02982e-07
9.04024e-08
8.21145e-08
8.788e-08
6.19709e-08
8.29146e-08
4.32416e-08
7.5239e-08
2.66898e-08
6.45434e-08
1.3195e-08
5.05311e-08
3.82545e-09
3.30023e-08
1.19993e-08
1.28854e-09
-7.74708e-09
3.82975e-09
-1.74027e-08
6.67181e-09
-2.2365e-08
9.10702e-09
-2.35284e-08
1.0596e-08
-2.16495e-08
1.0723e-08
-1.73842e-08
9.16301e-09
-1.12836e-08
5.6573e-09
-3.79576e-09
-4.5263e-12
4.72649e-09
-7.99705e-09
1.40155e-08
-1.84721e-08
2.38799e-08
-3.15644e-08
3.41914e-08
-4.7399e-08
4.48754e-08
-6.6096e-08
5.58995e-08
-8.77731e-08
6.72625e-08
-1.12547e-07
7.89837e-08
-1.40531e-07
9.10923e-08
-1.71834e-07
1.03617e-07
-2.06556e-07
1.16576e-07
-2.4478e-07
1.29971e-07
-2.86567e-07
1.43778e-07
-3.31947e-07
1.57942e-07
-3.80909e-07
1.72378e-07
-4.33399e-07
1.86965e-07
-4.89308e-07
2.01549e-07
-5.48467e-07
2.15945e-07
-6.10645e-07
2.29941e-07
-6.75546e-07
2.43302e-07
-7.42812e-07
2.55777e-07
-8.12018e-07
2.67102e-07
-8.82689e-07
2.77014e-07
-9.54296e-07
2.85251e-07
-1.02627e-06
2.91566e-07
-1.09802e-06
2.95729e-07
-1.16892e-06
2.97537e-07
-1.23835e-06
2.96815e-07
-1.30569e-06
2.93428e-07
-1.37034e-06
2.87275e-07
-1.43171e-06
2.78296e-07
-1.48927e-06
2.66474e-07
-1.5425e-06
2.5183e-07
-1.59093e-06
2.34421e-07
-1.63415e-06
2.14343e-07
-1.67177e-06
1.91726e-07
-1.70348e-06
1.66728e-07
-1.72898e-06
1.39537e-07
-1.74805e-06
1.10367e-07
-1.7605e-06
7.94543e-08
-1.76617e-06
4.70586e-08
-1.76496e-06
1.34672e-08
-1.7568e-06
-2.1047e-08
-1.74168e-06
-5.6162e-08
-1.7196e-06
-9.15341e-08
-1.69064e-06
-1.26821e-07
-1.65489e-06
-1.61661e-07
-1.61251e-06
-1.95683e-07
-1.5637e-06
-2.28502e-07
-1.50871e-06
-2.59729e-07
-1.44785e-06
-2.88972e-07
-1.3815e-06
-3.15842e-07
-1.31007e-06
-3.39959e-07
-1.23406e-06
-3.6096e-07
-1.15403e-06
-3.7851e-07
-1.07059e-06
-3.92304e-07
-9.84405e-07
-4.02088e-07
-8.9621e-07
-4.07658e-07
-8.06774e-07
-4.08877e-07
-7.16909e-07
-4.05683e-07
-6.27447e-07
-3.98094e-07
-5.39236e-07
-3.86212e-07
-4.53117e-07
-3.70233e-07
-3.69914e-07
-3.50437e-07
-2.90409e-07
-3.27192e-07
-2.15333e-07
-3.0094e-07
-1.45345e-07
-2.72191e-07
-8.1016e-08
-2.41507e-07
-2.28203e-08
-2.09483e-07
2.88781e-08
-1.76732e-07
7.38305e-08
-1.43864e-07
1.11908e-07
-1.11467e-07
1.431e-07
-8.0089e-08
1.67514e-07
-5.02223e-08
1.85365e-07
-2.22892e-08
1.96972e-07
3.36504e-09
2.02734e-07
2.64828e-08
2.03131e-07
4.68819e-08
1.987e-07
6.44623e-08
1.90023e-07
7.9188e-08
1.77715e-07
9.10709e-08
1.62412e-07
1.00149e-07
1.44764e-07
1.06459e-07
1.25431e-07
1.10008e-07
1.05085e-07
1.10749e-07
8.44143e-08
1.0855e-07
6.41394e-08
1.03189e-07
4.50306e-08
9.43478e-08
2.79439e-08
8.16302e-08
1.38729e-08
6.46021e-08
4.02987e-09
4.28453e-08
1.60292e-08
1.01718e-09
-8.76426e-09
2.81625e-09
-1.92017e-08
4.48906e-09
-2.40378e-08
5.36169e-09
-2.4401e-08
4.92398e-09
-2.12117e-08
2.78416e-09
-1.52444e-08
-1.36636e-09
-7.1331e-09
-7.77836e-09
2.61623e-09
-1.66635e-08
1.36116e-08
-2.82071e-08
2.55591e-08
-4.25762e-08
3.8249e-08
-5.99266e-08
5.15418e-08
-8.0407e-08
6.53558e-08
-1.04161e-07
7.96537e-08
-1.31329e-07
9.443e-08
-1.62044e-07
1.09699e-07
-1.96433e-07
1.25481e-07
-2.34608e-07
1.41792e-07
-2.76663e-07
1.58631e-07
-3.22665e-07
1.75973e-07
-3.72644e-07
1.93757e-07
-4.26586e-07
2.11885e-07
-4.84427e-07
2.30219e-07
-5.4604e-07
2.48578e-07
-6.11235e-07
2.66744e-07
-6.79753e-07
2.84463e-07
-7.51262e-07
3.01451e-07
-8.25365e-07
3.17405e-07
-9.01597e-07
3.32009e-07
-9.79437e-07
3.44942e-07
-1.05831e-06
3.55891e-07
-1.13762e-06
3.64558e-07
-1.21672e-06
3.70668e-07
-1.29497e-06
3.73981e-07
-1.37173e-06
3.74293e-07
-1.44636e-06
3.71442e-07
-1.51825e-06
3.65316e-07
-1.58682e-06
3.55845e-07
-1.65153e-06
3.4301e-07
-1.71189e-06
3.26836e-07
-1.76745e-06
3.07388e-07
-1.8178e-06
2.84773e-07
-1.86259e-06
2.59132e-07
-1.9015e-06
2.30639e-07
-1.93427e-06
1.99496e-07
-1.96066e-06
1.65928e-07
-1.98048e-06
1.30186e-07
-1.99357e-06
9.25408e-08
-1.99979e-06
5.32834e-08
-1.99906e-06
1.27323e-08
-1.99129e-06
-2.88137e-08
-1.97646e-06
-7.09912e-08
-1.95456e-06
-1.13434e-07
-1.92562e-06
-1.55765e-07
-1.88969e-06
-1.97586e-07
-1.84689e-06
-2.38485e-07
-1.79736e-06
-2.78033e-07
-1.7413e-06
-3.15793e-07
-1.67895e-06
-3.51318e-07
-1.61063e-06
-3.84162e-07
-1.53671e-06
-4.13883e-07
-1.45762e-06
-4.40051e-07
-1.37386e-06
-4.62261e-07
-1.28603e-06
-4.80141e-07
-1.19475e-06
-4.93364e-07
-1.10075e-06
-5.01663e-07
-1.00479e-06
-5.0484e-07
-9.0769e-07
-5.02779e-07
-8.10327e-07
-4.95456e-07
-7.1359e-07
-4.8295e-07
-6.18383e-07
-4.6544e-07
-5.25604e-07
-4.43216e-07
-4.36126e-07
-4.16669e-07
-3.50778e-07
-3.86288e-07
-2.70322e-07
-3.52647e-07
-1.95442e-07
-3.16387e-07
-1.26721e-07
-2.78204e-07
-6.46341e-08
-2.38818e-07
-9.53646e-09
-1.98961e-07
3.8343e-08
-1.59346e-07
7.89019e-08
-1.20648e-07
1.12164e-07
-8.34841e-08
1.38274e-07
-4.8399e-08
1.57488e-07
-1.58492e-08
1.70168e-07
1.38029e-08
1.7676e-07
4.02895e-08
1.77789e-07
6.3433e-08
1.73841e-07
8.31366e-08
1.65547e-07
9.93649e-08
1.53575e-07
1.1212e-07
1.38619e-07
1.21414e-07
1.21393e-07
1.27235e-07
1.02627e-07
1.29514e-07
8.30764e-08
1.281e-07
6.35312e-08
1.22735e-07
4.48368e-08
1.13042e-07
2.79306e-08
9.85364e-08
1.38949e-08
7.86378e-08
4.03282e-09
5.27074e-08
2.0062e-08
6.63279e-10
-9.42754e-09
1.50402e-09
-2.00425e-08
1.69413e-09
-2.42279e-08
6.25656e-10
-2.33325e-08
-2.15859e-09
-1.84275e-08
-7.00996e-09
-1.0393e-08
-1.42099e-08
6.68422e-11
-2.3994e-08
1.24003e-08
-3.65713e-08
2.61889e-08
-5.21335e-08
4.11214e-08
-7.08623e-08
5.69777e-08
-9.29324e-08
7.36119e-08
-1.18513e-07
9.09369e-08
-1.4777e-07
1.0891e-07
-1.80858e-07
1.27519e-07
-2.17925e-07
1.46766e-07
-2.591e-07
1.66656e-07
-3.0449e-07
1.87182e-07
-3.54171e-07
2.08313e-07
-4.08179e-07
2.29981e-07
-4.665e-07
2.52078e-07
-5.29063e-07
2.74447e-07
-5.95729e-07
2.96885e-07
-6.66291e-07
3.1914e-07
-7.40464e-07
3.40918e-07
-8.1789e-07
3.61888e-07
-8.98136e-07
3.81697e-07
-9.80703e-07
3.99972e-07
-1.06503e-06
4.16339e-07
-1.15052e-06
4.3043e-07
-1.23653e-06
4.41897e-07
-1.32239e-06
4.50421e-07
-1.40744e-06
4.55723e-07
-1.49103e-06
4.57568e-07
-1.57251e-06
4.55773e-07
-1.65128e-06
4.50209e-07
-1.72676e-06
4.40799e-07
-1.79844e-06
4.27521e-07
-1.86583e-06
4.10401e-07
-1.9285e-06
3.89512e-07
-1.98608e-06
3.64968e-07
-2.03823e-06
3.36921e-07
-2.08465e-06
3.05552e-07
-2.12508e-06
2.71072e-07
-2.1593e-06
2.33716e-07
-2.18712e-06
1.9374e-07
-2.20835e-06
1.5142e-07
-2.22286e-06
1.0705e-07
-2.23052e-06
6.09415e-08
-2.23122e-06
1.34324e-08
-2.22488e-06
-3.51554e-08
-2.21143e-06
-8.44368e-08
-2.19084e-06
-1.34027e-07
-2.16308e-06
-1.83521e-07
-2.12818e-06
-2.32493e-07
-2.08616e-06
-2.80496e-07
-2.03713e-06
-3.27065e-07
-1.98121e-06
-3.71715e-07
-1.91858e-06
-4.13951e-07
-1.84947e-06
-4.53268e-07
-1.77419e-06
-4.8916e-07
-1.69312e-06
-5.2113e-07
-1.60668e-06
-5.48695e-07
-1.51541e-06
-5.71407e-07
-1.41992e-06
-5.88859e-07
-1.32088e-06
-6.00702e-07
-1.21906e-06
-6.06664e-07
-1.11528e-06
-6.06557e-07
-1.01044e-06
-6.00298e-07
-9.05466e-07
-5.87919e-07
-8.01337e-07
-5.69569e-07
-6.99027e-07
-5.45526e-07
-5.99502e-07
-5.16194e-07
-5.03699e-07
-4.82092e-07
-4.12495e-07
-4.4385e-07
-3.26695e-07
-4.02188e-07
-2.47004e-07
-3.57895e-07
-1.74017e-07
-3.11806e-07
-1.08202e-07
-2.64776e-07
-4.98975e-08
-2.17651e-07
6.98059e-10
-1.71243e-07
4.35228e-08
-1.26309e-07
7.86459e-08
-8.35221e-08
1.06263e-07
-4.34663e-08
1.26686e-07
-6.62035e-09
1.4033e-07
2.66461e-08
1.47697e-07
5.60652e-08
1.49369e-07
8.14646e-08
1.45987e-07
1.02747e-07
1.3824e-07
1.19867e-07
1.26856e-07
1.32799e-07
1.12592e-07
1.41499e-07
9.62325e-08
1.45874e-07
7.85912e-08
1.45742e-07
6.0521e-08
1.40805e-07
4.29343e-08
1.30629e-07
2.68349e-08
1.14636e-07
1.33655e-08
9.21072e-08
3.87103e-09
6.22019e-08
2.3933e-08
2.32519e-10
-9.66005e-09
-8.64975e-11
-1.97235e-08
-1.66776e-09
-2.26466e-08
-5.0261e-09
-1.99742e-08
-1.05424e-08
-1.29112e-08
-1.85112e-08
-2.42419e-09
-2.91751e-08
1.07308e-08
-4.27502e-08
2.59754e-08
-5.94379e-08
4.28766e-08
-7.94346e-08
6.11181e-08
-1.02934e-07
8.04771e-08
-1.30128e-07
1.00806e-07
-1.61203e-07
1.22012e-07
-1.9634e-07
1.44047e-07
-2.35707e-07
1.66885e-07
-2.79454e-07
1.90512e-07
-3.27704e-07
2.14906e-07
-3.80547e-07
2.40025e-07
-4.38028e-07
2.65794e-07
-5.00137e-07
2.9209e-07
-5.66804e-07
3.18744e-07
-6.37882e-07
3.45526e-07
-7.13151e-07
3.72155e-07
-7.9231e-07
3.98299e-07
-8.74976e-07
4.23583e-07
-9.60689e-07
4.47602e-07
-1.04892e-06
4.6993e-07
-1.13909e-06
4.90138e-07
-1.23055e-06
5.07803e-07
-1.32265e-06
5.22527e-07
-1.4147e-06
5.33947e-07
-1.50602e-06
5.41743e-07
-1.59595e-06
5.4565e-07
-1.68384e-06
5.45462e-07
-1.7691e-06
5.41032e-07
-1.85117e-06
5.32277e-07
-1.92954e-06
5.19167e-07
-2.00375e-06
5.01732e-07
-2.0734e-06
4.80048e-07
-2.13812e-06
4.54235e-07
-2.1976e-06
4.24449e-07
-2.25156e-06
3.9088e-07
-2.29975e-06
3.53744e-07
-2.34196e-06
3.1328e-07
-2.37799e-06
2.69747e-07
-2.40767e-06
2.23421e-07
-2.43085e-06
1.74593e-07
-2.44737e-06
1.23573e-07
-2.45711e-06
7.06847e-08
-2.45995e-06
1.62736e-08
-2.45579e-06
-3.93166e-08
-2.44453e-06
-9.56949e-08
-2.4261e-06
-1.52461e-07
-2.40043e-06
-2.09193e-07
-2.36748e-06
-2.65442e-07
-2.32724e-06
-3.20735e-07
-2.27973e-06
-3.74575e-07
-2.22501e-06
-4.2644e-07
-2.16317e-06
-4.75787e-07
-2.09438e-06
-5.22059e-07
-2.01885e-06
-5.64686e-07
-1.93688e-06
-6.031e-07
-1.84883e-06
-6.36743e-07
-1.75516e-06
-6.65078e-07
-1.65641e-06
-6.87609e-07
-1.55322e-06
-7.03894e-07
-1.44632e-06
-7.13567e-07
-1.33652e-06
-7.16351e-07
-1.22474e-06
-7.12082e-07
-1.11194e-06
-7.00719e-07
-9.99146e-07
-6.82362e-07
-8.87419e-07
-6.57253e-07
-7.77826e-07
-6.25787e-07
-6.71419e-07
-5.88499e-07
-5.69206e-07
-5.46063e-07
-4.72126e-07
-4.99268e-07
-3.81023e-07
-4.48997e-07
-2.9663e-07
-3.96199e-07
-2.19544e-07
-3.41861e-07
-1.50222e-07
-2.86973e-07
-8.897e-08
-2.32495e-07
-3.59446e-08
-1.79334e-07
8.84632e-09
-1.28313e-07
4.55347e-08
-8.01547e-08
7.4382e-08
-3.54677e-08
9.57688e-08
5.25922e-09
1.10177e-07
4.16568e-08
1.1818e-07
7.34623e-08
1.20422e-07
1.00505e-07
1.17611e-07
1.22678e-07
1.10504e-07
1.39906e-07
9.98952e-08
1.52108e-07
8.66158e-08
1.59153e-07
7.15323e-08
1.60825e-07
5.55542e-08
1.56783e-07
3.96499e-08
1.46533e-07
2.48739e-08
1.29412e-07
1.24029e-08
1.04578e-07
3.58329e-09
7.10215e-08
2.75163e-08
-2.73229e-10
-9.38681e-09
-1.93905e-09
-1.80577e-08
-5.56317e-09
-1.90225e-08
-1.15336e-08
-1.40037e-08
-2.01334e-08
-4.31144e-09
-3.15853e-08
9.02774e-09
-4.60849e-08
2.52304e-08
-6.38209e-08
4.37114e-08
-8.49852e-08
6.40409e-08
-1.09776e-07
8.59093e-08
-1.38398e-07
1.09099e-07
-1.71056e-07
1.33463e-07
-2.07951e-07
1.58907e-07
-2.49273e-07
1.85369e-07
-2.95192e-07
2.12805e-07
-3.45854e-07
2.41174e-07
-4.01364e-07
2.70416e-07
-4.61782e-07
3.00443e-07
-5.27108e-07
3.31119e-07
-5.97273e-07
3.62256e-07
-6.72135e-07
3.93605e-07
-7.51464e-07
4.24855e-07
-8.34949e-07
4.55639e-07
-9.22189e-07
4.85539e-07
-1.01271e-06
5.141e-07
-1.10595e-06
5.40845e-07
-1.20131e-06
5.65288e-07
-1.29812e-06
5.86953e-07
-1.39571e-06
6.0539e-07
-1.49337e-06
6.2019e-07
-1.59042e-06
6.30993e-07
-1.68618e-06
6.37502e-07
-1.78001e-06
6.39484e-07
-1.87133e-06
6.36776e-07
-1.95957e-06
6.29281e-07
-2.04426e-06
6.16967e-07
-2.12496e-06
5.9986e-07
-2.20126e-06
5.78037e-07
-2.27284e-06
5.51623e-07
-2.33938e-06
5.2078e-07
-2.40063e-06
4.85701e-07
-2.45636e-06
4.46607e-07
-2.50636e-06
4.03739e-07
-2.55043e-06
3.57357e-07
-2.58842e-06
3.07737e-07
-2.62017e-06
2.55166e-07
-2.64553e-06
1.99949e-07
-2.66435e-06
1.424e-07
-2.67652e-06
8.28504e-08
-2.68189e-06
2.16477e-08
-2.68036e-06
-4.08499e-08
-2.6718e-06
-1.04253e-07
-2.65611e-06
-1.68154e-07
-2.63318e-06
-2.3212e-07
-2.60293e-06
-2.95691e-07
-2.56529e-06
-3.58377e-07
-2.52021e-06
-4.19657e-07
-2.46767e-06
-4.78979e-07
-2.40769e-06
-5.35764e-07
-2.34034e-06
-5.89405e-07
-2.26575e-06
-6.39279e-07
-2.1841e-06
-6.84746e-07
-2.09568e-06
-7.25171e-07
-2.00083e-06
-7.59928e-07
-1.90001e-06
-7.88422e-07
-1.7938e-06
-8.10105e-07
-1.68287e-06
-8.24501e-07
-1.568e-06
-8.31225e-07
-1.45007e-06
-8.30004e-07
-1.33009e-06
-8.20701e-07
-1.20912e-06
-8.03333e-07
-1.08829e-06
-7.78082e-07
-9.68774e-07
-7.45305e-07
-8.51741e-07
-7.05532e-07
-7.38346e-07
-6.59459e-07
-6.29683e-07
-6.07932e-07
-5.26757e-07
-5.51922e-07
-4.30461e-07
-4.92495e-07
-3.41547e-07
-4.30776e-07
-2.60612e-07
-3.67908e-07
-1.88088e-07
-3.05019e-07
-1.24239e-07
-2.43184e-07
-6.91595e-08
-1.83392e-07
-2.27879e-08
-1.26526e-07
1.50868e-08
-7.33423e-08
4.48088e-08
-2.44628e-08
6.68418e-08
1.96238e-08
8.1751e-08
5.85532e-08
9.01884e-08
9.20675e-08
9.28779e-08
1.19988e-07
9.06024e-08
1.42182e-07
8.41931e-08
1.58517e-07
7.45239e-08
1.68822e-07
6.25087e-08
1.7284e-07
4.91067e-08
1.70185e-07
3.53329e-08
1.60307e-07
2.22773e-08
1.42467e-07
1.11296e-08
1.15726e-07
3.20861e-09
7.89425e-08
3.07249e-08
-8.517e-10
-8.53511e-09
-4.04636e-09
-1.4863e-08
-9.96467e-09
-1.31042e-08
-1.88424e-08
-5.12603e-09
-3.0843e-08
7.68922e-09
-4.61036e-08
2.42883e-08
-6.47633e-08
4.38901e-08
-8.69795e-08
6.59276e-08
-1.12932e-07
8.9993e-08
-1.42818e-07
1.15796e-07
-1.76851e-07
1.43132e-07
-2.15246e-07
1.71858e-07
-2.5821e-07
2.01872e-07
-3.05938e-07
2.33096e-07
-3.58594e-07
2.65461e-07
-4.16305e-07
2.98885e-07
-4.79147e-07
3.33259e-07
-5.47137e-07
3.68433e-07
-6.20217e-07
4.04199e-07
-6.98248e-07
4.40287e-07
-7.81004e-07
4.76361e-07
-8.68166e-07
5.12017e-07
-9.59326e-07
5.46799e-07
-1.05399e-06
5.80204e-07
-1.15159e-06
6.11703e-07
-1.2515e-06
6.40755e-07
-1.35305e-06
6.6683e-07
-1.45552e-06
6.89425e-07
-1.55821e-06
7.08082e-07
-1.66042e-06
7.224e-07
-1.76147e-06
7.32045e-07
-1.86073e-06
7.36757e-07
-1.95759e-06
7.36351e-07
-2.05154e-06
7.30717e-07
-2.14207e-06
7.19814e-07
-2.22876e-06
7.03664e-07
-2.31125e-06
6.82344e-07
-2.38919e-06
6.55981e-07
-2.46231e-06
6.2474e-07
-2.53035e-06
5.88819e-07
-2.59309e-06
5.48444e-07
-2.65034e-06
5.03858e-07
-2.70193e-06
4.55324e-07
-2.74769e-06
4.03119e-07
-2.78748e-06
3.4753e-07
-2.82117e-06
2.88855e-07
-2.84863e-06
2.27404e-07
-2.86972e-06
1.63494e-07
-2.88433e-06
9.74594e-08
-2.89233e-06
2.96447e-08
-2.89359e-06
-3.9587e-08
-2.88799e-06
-1.09851e-07
-2.8754e-06
-1.80743e-07
-2.85569e-06
-2.5183e-07
-2.82873e-06
-3.2265e-07
-2.7944e-06
-3.92705e-07
-2.75259e-06
-4.61466e-07
-2.70321e-06
-5.28362e-07
-2.64619e-06
-5.92788e-07
-2.58149e-06
-6.54101e-07
-2.50914e-06
-7.11629e-07
-2.42921e-06
-7.64675e-07
-2.34186e-06
-8.12525e-07
-2.24732e-06
-8.54466e-07
-2.14594e-06
-8.898e-07
-2.03818e-06
-9.17865e-07
-1.92462e-06
-9.3806e-07
-1.80598e-06
-9.49867e-07
-1.6831e-06
-9.52883e-07
-1.55696e-06
-9.46843e-07
-1.42865e-06
-9.31648e-07
-1.29935e-06
-9.07382e-07
-1.17032e-06
-8.74329e-07
-1.04287e-06
-8.3298e-07
-9.18304e-07
-7.84028e-07
-7.97881e-07
-7.28354e-07
-6.828e-07
-6.67003e-07
-5.74142e-07
-6.01153e-07
-4.72846e-07
-5.32072e-07
-3.79683e-07
-4.61071e-07
-2.9524e-07
-3.89462e-07
-2.19911e-07
-3.18513e-07
-1.539e-07
-2.49404e-07
-9.72247e-08