/*--------------------------------*- C++ -*----------------------------------*\
  =========                 |
  \\      /  F ield         | OpenFOAM: The Open Source CFD Toolbox
   \\    /   O peration     | Website:  https://openfoam.org
    \\  /    A nd           | Version:  9
     \\/     M anipulation  |
\*---------------------------------------------------------------------------*/
FoamFile
{
    format      ascii;
    class       volVectorField;
    location    "2.25";
    object      U;
}
// * * * * * * * * * * * * * * * * * * * * * * * * * * * * * * * * * * * * * //

dimensions      [0 1 -1 0 0 0 0];

internalField   nonuniform List<vector> 
10000
(
(-4.08002e-06 3.97506e-06 0)
(3.12312e-05 -2.01184e-05 0)
(0.000132598 -3.99537e-05 0)
(0.000267924 -5.00117e-05 0)
(0.000417537 -5.28305e-05 0)
(0.000566592 -5.09591e-05 0)
(0.000704459 -4.62338e-05 0)
(0.000824253 -3.9925e-05 0)
(0.000921871 -3.28733e-05 0)
(0.000995133 -2.56155e-05 0)
(0.00104314 -1.84791e-05 0)
(0.00106583 -1.16491e-05 0)
(0.00106356 -5.18804e-06 0)
(0.00103687 9.14496e-07 0)
(0.000986225 6.72553e-06 0)
(0.00091191 1.23527e-05 0)
(0.000813889 1.79288e-05 0)
(0.000691761 2.35971e-05 0)
(0.00054474 2.95018e-05 0)
(0.000371664 3.57781e-05 0)
(0.000171043 4.25447e-05 0)
(-5.88853e-05 4.98998e-05 0)
(-0.000320072 5.79181e-05 0)
(-0.00061457 6.66477e-05 0)
(-0.000944444 7.61103e-05 0)
(-0.00131167 8.63022e-05 0)
(-0.00171806 9.71935e-05 0)
(-0.00216511 0.000108728 0)
(-0.00265399 0.000120823 0)
(-0.00318538 0.000133369 0)
(-0.00375942 0.000146228 0)
(-0.00437559 0.000159235 0)
(-0.00503268 0.000172191 0)
(-0.00572863 0.000184871 0)
(-0.00646054 0.000197021 0)
(-0.00722455 0.000208357 0)
(-0.00801584 0.000218572 0)
(-0.00882857 0.000227341 0)
(-0.00965589 0.000234322 0)
(-0.01049 0.000239166 0)
(-0.011322 0.000241525 0)
(-0.0121423 0.00024106 0)
(-0.0129404 0.000237451 0)
(-0.0137052 0.00023041 0)
(-0.0144251 0.000219689 0)
(-0.0150881 0.000205094 0)
(-0.0156822 0.000186496 0)
(-0.0161953 0.000163838 0)
(-0.0166158 0.000137168 0)
(-0.0169329 0.000106677 0)
(-0.0171367 7.26231e-05 0)
(-0.0172185 3.51748e-05 0)
(-0.0171703 -4.72308e-06 0)
(-0.016986 -4.71005e-05 0)
(-0.0166629 -9.10753e-05 0)
(-0.0161992 -0.000135771 0)
(-0.0155961 -0.000180301 0)
(-0.0148572 -0.000223718 0)
(-0.0139887 -0.00026503 0)
(-0.0129998 -0.000303233 0)
(-0.0119021 -0.000337339 0)
(-0.0107099 -0.000366419 0)
(-0.0094397 -0.000389642 0)
(-0.00811008 -0.00040631 0)
(-0.00674115 -0.000415898 0)
(-0.00535416 -0.000418082 0)
(-0.00397088 -0.000412765 0)
(-0.00261308 -0.000400087 0)
(-0.00130186 -0.000380435 0)
(-5.70352e-05 -0.000354439 0)
(0.00110334 -0.000322916 0)
(0.00216365 -0.000286823 0)
(0.00311111 -0.000247321 0)
(0.00393598 -0.000205604 0)
(0.00463187 -0.000162891 0)
(0.00519574 -0.000120362 0)
(0.00562783 -7.91123e-05 0)
(0.00593144 -4.01065e-05 0)
(0.00611262 -4.14181e-06 0)
(0.00617972 2.81718e-05 0)
(0.00614293 5.64202e-05 0)
(0.00601374 8.03904e-05 0)
(0.00580442 0.000100057 0)
(0.00552751 0.000115545 0)
(0.0051954 0.000127127 0)
(0.00481987 0.000135183 0)
(0.00441183 0.000140166 0)
(0.00398109 0.000142564 0)
(0.00353627 0.000142862 0)
(0.00308483 0.000141488 0)
(0.00263328 0.000138756 0)
(0.00218758 0.000134791 0)
(0.00175371 0.000129429 0)
(0.00133852 0.000122098 0)
(0.000950876 0.00011167 0)
(0.000602912 9.63556e-05 0)
(0.000311008 7.38509e-05 0)
(9.49946e-05 4.21593e-05 0)
(-2.28829e-05 2.70632e-06 0)
(-2.71806e-05 -2.73774e-05 0)
(2.01668e-05 -3.13881e-05 0)
(0.000140412 -0.000140184 0)
(0.000382886 -0.000222307 0)
(0.000687597 -0.000265861 0)
(0.00101624 -0.000277659 0)
(0.00133966 -0.000266099 0)
(0.00163466 -0.00023841 0)
(0.00188447 -0.00020029 0)
(0.00207783 -0.000155958 0)
(0.00220768 -0.000108393 0)
(0.00226997 -5.9587e-05 0)
(0.0022627 -1.07661e-05 0)
(0.00218508 3.74681e-05 0)
(0.00203687 8.49745e-05 0)
(0.0018179 0.000131962 0)
(0.00152767 0.000178887 0)
(0.00116512 0.000226362 0)
(0.000728446 0.000275074 0)
(0.000215082 0.000325719 0)
(-0.000378275 0.000378941 0)
(-0.00105556 0.000435285 0)
(-0.00182117 0.000495161 0)
(-0.00267977 0.000558824 0)
(-0.00363604 0.000626351 0)
(-0.00469442 0.000697638 0)
(-0.00585886 0.000772395 0)
(-0.00713256 0.000850149 0)
(-0.00851769 0.000930242 0)
(-0.0100151 0.00101184 0)
(-0.0116243 0.00109392 0)
(-0.0133428 0.00117531 0)
(-0.0151664 0.00125465 0)
(-0.0170885 0.00133044 0)
(-0.0191006 0.00140104 0)
(-0.0211915 0.00146469 0)
(-0.0233476 0.00151956 0)
(-0.0255529 0.00156373 0)
(-0.027789 0.0015953 0)
(-0.0300352 0.00161237 0)
(-0.0322685 0.00161312 0)
(-0.0344642 0.00159586 0)
(-0.0365958 0.00155909 0)
(-0.0386357 0.00150151 0)
(-0.0405554 0.00142213 0)
(-0.0423259 0.00132027 0)
(-0.0439187 0.00119565 0)
(-0.0453053 0.00104838 0)
(-0.046459 0.000879063 0)
(-0.0473545 0.000688774 0)
(-0.0479689 0.000479245 0)
(-0.0482827 0.00025246 0)
(-0.0482792 9.92091e-06 0)
(-0.0479447 -0.000243126 0)
(-0.0472711 -0.000504284 0)
(-0.0462548 -0.000769552 0)
(-0.0448974 -0.00103447 0)
(-0.0432059 -0.00129434 0)
(-0.0411927 -0.00154429 0)
(-0.0388756 -0.00177935 0)
(-0.0362783 -0.00199459 0)
(-0.0334295 -0.00218528 0)
(-0.0303632 -0.00234702 0)
(-0.0271177 -0.00247591 0)
(-0.0237352 -0.0025687 0)
(-0.0202611 -0.00262295 0)
(-0.0167428 -0.00263714 0)
(-0.0132292 -0.00261077 0)
(-0.00976892 -0.00254445 0)
(-0.00640952 -0.00243988 0)
(-0.00319629 -0.00229989 0)
(-0.000171073 -0.00212827 0)
(0.00262883 -0.00192966 0)
(0.00517164 -0.00170946 0)
(0.00743186 -0.00147357 0)
(0.00939076 -0.00122814 0)
(0.0110367 -0.000979318 0)
(0.0123653 -0.000733009 0)
(0.0133791 -0.000494674 0)
(0.0140871 -0.00026911 0)
(0.0145042 -6.03092e-05 0)
(0.01465 0.000128644 0)
(0.0145484 0.000295624 0)
(0.0142257 0.000439529 0)
(0.0137102 0.000560047 0)
(0.0130309 0.00065773 0)
(0.0122162 0.000733809 0)
(0.0112937 0.000790014 0)
(0.0102892 0.000828373 0)
(0.00922634 0.000850983 0)
(0.00812693 0.000859728 0)
(0.00701092 0.000855965 0)
(0.00589729 0.000840161 0)
(0.00480515 0.000811502 0)
(0.00375523 0.000767503 0)
(0.00277163 0.00070372 0)
(0.00188344 0.000613873 0)
(0.00112503 0.000491096 0)
(0.000533096 0.000331355 0)
(0.00014561 0.000142572 0)
(3.9434e-06 -2.2703e-05 0)
(4.047e-05 -0.000133156 0)
(0.000224012 -0.00038309 0)
(0.00055964 -0.000557414 0)
(0.000964312 -0.000648605 0)
(0.00138843 -0.000668841 0)
(0.00179542 -0.00063385 0)
(0.00215506 -0.000558475 0)
(0.00244435 -0.000455229 0)
(0.00264693 -0.000333925 0)
(0.00275162 -0.000201832 0)
(0.00275111 -6.40231e-05 0)
(0.00264086 7.62888e-05 0)
(0.00241799 0.000217323 0)
(0.00208048 0.000358502 0)
(0.0016265 0.000500145 0)
(0.00105392 0.000643204 0)
(0.000359949 0.000789032 0)
(-0.000459034 0.000939179 0)
(-0.00140753 0.00109521 0)
(-0.00249086 0.00125854 0)
(-0.00371497 0.0014303 0)
(-0.00508618 0.00161128 0)
(-0.00661083 0.00180178 0)
(-0.00829493 0.00200163 0)
(-0.0101438 0.00221014 0)
(-0.0121615 0.00242609 0)
(-0.0143506 0.00264772 0)
(-0.0167117 0.00287277 0)
(-0.0192431 0.00309849 0)
(-0.0219403 0.00332162 0)
(-0.024796 0.0035385 0)
(-0.0277994 0.00374506 0)
(-0.0309366 0.00393689 0)
(-0.0341898 0.0041093 0)
(-0.0375378 0.00425743 0)
(-0.040956 0.00437631 0)
(-0.0444161 0.004461 0)
(-0.0478869 0.00450668 0)
(-0.051334 0.00450883 0)
(-0.054721 0.00446328 0)
(-0.0580094 0.00436641 0)
(-0.0611593 0.00421524 0)
(-0.0641301 0.00400752 0)
(-0.0668811 0.00374191 0)
(-0.0693723 0.00341799 0)
(-0.0715648 0.00303635 0)
(-0.0734221 0.00259871 0)
(-0.0749099 0.00210789 0)
(-0.0759975 0.00156789 0)
(-0.0766583 0.000984037 0)
(-0.0768718 0.00036259 0)
(-0.0766187 -0.000291625 0)
(-0.0758862 -0.000966803 0)
(-0.0746706 -0.0016547 0)
(-0.072972 -0.00234575 0)
(-0.0707975 -0.00302932 0)
(-0.0681608 -0.00369429 0)
(-0.0650822 -0.00432924 0)
(-0.0615889 -0.00492273 0)
(-0.0577147 -0.00546359 0)
(-0.0534993 -0.00594113 0)
(-0.0489887 -0.00634552 0)
(-0.0442338 -0.00666807 0)
(-0.0392903 -0.00690153 0)
(-0.0342176 -0.0070404 0)
(-0.0290777 -0.00708121 0)
(-0.0239343 -0.00702269 0)
(-0.0188514 -0.00686596 0)
(-0.0138922 -0.0066146 0)
(-0.0091172 -0.0062746 0)
(-0.00458356 -0.00585424 0)
(-0.000343251 -0.00536389 0)
(0.00355798 -0.00481562 0)
(0.00708172 -0.00422287 0)
(0.0101978 -0.0036 0)
(0.0128847 -0.00296163 0)
(0.0151303 -0.00232218 0)
(0.0169314 -0.00169531 0)
(0.0182938 -0.00109347 0)
(0.0192314 -0.000527477 0)
(0.0197658 -6.19214e-06 0)
(0.0199247 0.000463669 0)
(0.0197408 0.000877798 0)
(0.0192505 0.00123383 0)
(0.0184924 0.0015316 0)
(0.017506 0.0017727 0)
(0.0163309 0.00196016 0)
(0.015005 0.00209789 0)
(0.0135647 0.00219019 0)
(0.0120444 0.00224102 0)
(0.0104766 0.00225325 0)
(0.00889273 0.00222785 0)
(0.00732415 0.00216309 0)
(0.00580392 0.00205388 0)
(0.0043683 0.00189158 0)
(0.0030583 0.00166478 0)
(0.00191928 0.00136239 0)
(0.000996918 0.000980046 0)
(0.000343773 0.000533571 0)
(4.60397e-05 9.96206e-05 0)
(5.13165e-05 -0.000270162 0)
(0.000269631 -0.000689649 0)
(0.000653197 -0.000962758 0)
(0.00110017 -0.00109676 0)
(0.00155267 -0.00111326 0)
(0.00196967 -0.00103687 0)
(0.00231707 -0.000890818 0)
(0.00256827 -0.000694993 0)
(0.00270354 -0.000465358 0)
(0.00270863 -0.000214011 0)
(0.00257341 5.04211e-05 0)
(0.00229067 0.000322322 0)
(0.00185505 0.000598509 0)
(0.00126223 0.000877801 0)
(0.000508131 0.00116054 0)
(-0.000411577 0.00144815 0)
(-0.00150182 0.00174274 0)
(-0.00276828 0.00204673 0)
(-0.00421745 0.00236253 0)
(-0.00585643 0.00269222 0)
(-0.0076927 0.00303737 0)
(-0.00973373 0.0033988 0)
(-0.0119865 0.00377646 0)
(-0.0144572 0.00416936 0)
(-0.0171501 0.00457551 0)
(-0.0200679 0.00499189 0)
(-0.0232103 0.0054145 0)
(-0.0265743 0.00583836 0)
(-0.0301531 0.0062576 0)
(-0.0339362 0.00666552 0)
(-0.0379086 0.0070547 0)
(-0.0420514 0.00741708 0)
(-0.0463406 0.00774415 0)
(-0.0507483 0.00802711 0)
(-0.0552418 0.00825704 0)
(-0.0597848 0.00842511 0)
(-0.0643369 0.00852282 0)
(-0.0688549 0.00854223 0)
(-0.0732929 0.00847615 0)
(-0.0776032 0.00831842 0)
(-0.0817371 0.00806404 0)
(-0.0856454 0.00770938 0)
(-0.0892797 0.00725234 0)
(-0.0925927 0.00669245 0)
(-0.0955392 0.00603095 0)
(-0.0980768 0.00527085 0)
(-0.100167 0.00441696 0)
(-0.101774 0.00347589 0)
(-0.102868 0.00245587 0)
(-0.103425 0.00136643 0)
(-0.103426 0.000219431 0)
(-0.102857 -0.000967339 0)
(-0.101706 -0.0021845 0)
(-0.099977 -0.00341558 0)
(-0.0976744 -0.00464341 0)
(-0.0948104 -0.00585031 0)
(-0.0914041 -0.00701811 0)
(-0.0874814 -0.00812841 0)
(-0.0830749 -0.00916292 0)
(-0.0782239 -0.0101038 0)
(-0.0729738 -0.0109342 0)
(-0.067376 -0.0116384 0)
(-0.0614875 -0.0122026 0)
(-0.05537 -0.0126153 0)
(-0.0490891 -0.0128674 0)
(-0.042714 -0.0129531 0)
(-0.0363156 -0.01287 0)
(-0.029966 -0.0126191 0)
(-0.0237368 -0.0122057 0)
(-0.0176979 -0.0116385 0)
(-0.0119161 -0.0109302 0)
(-0.00645381 -0.0100968 0)
(-0.00136717 -0.00915732 0)
(0.00329462 -0.00813327 0)
(0.00749074 -0.00704785 0)
(0.0111897 -0.00592533 0)
(0.0143698 -0.00478997 0)
(0.0170194 -0.00366533 0)
(0.0191373 -0.00257342 0)
(0.0207319 -0.00153393 0)
(0.0218211 -0.000563648 0)
(0.022431 0.000323983 0)
(0.0225946 0.00111891 0)
(0.0223506 0.00181519 0)
(0.021742 0.00241017 0)
(0.0208146 0.00290438 0)
(0.0196151 0.00330098 0)
(0.0181906 0.003605 0)
(0.0165873 0.0038224 0)
(0.0148499 0.00395892 0)
(0.0130218 0.00401887 0)
(0.0111455 0.0040038 0)
(0.00926319 0.00391128 0)
(0.00741854 0.00373402 0)
(0.00565771 0.00345974 0)
(0.00403107 0.00307258 0)
(0.00259267 0.00255725 0)
(0.00139678 0.00190708 0)
(0.000514183 0.00113838 0)
(8.11111e-05 0.000327069 0)
(5.50326e-05 -0.000422839 0)
(0.000282656 -0.00102054 0)
(0.000671739 -0.00138615 0)
(0.00110906 -0.00154823 0)
(0.00153122 -0.00154157 0)
(0.00189445 -0.00140135 0)
(0.00216261 -0.00115965 0)
(0.00230721 -0.00084382 0)
(0.00230653 -0.00047591 0)
(0.00214411 -7.27802e-05 0)
(0.00180742 0.000353405 0)
(0.00128675 0.000794584 0)
(0.000574196 0.00124616 0)
(-0.000337179 0.0017063 0)
(-0.001454 0.00217531 0)
(-0.00278305 0.00265498 0)
(-0.0043316 0.00314806 0)
(-0.00610745 0.00365765 0)
(-0.00811889 0.00418675 0)
(-0.0103745 0.00473778 0)
(-0.0128825 0.00531226 0)
(-0.0156508 0.00591048 0)
(-0.0186858 0.00653133 0)
(-0.0219921 0.00717216 0)
(-0.0255718 0.00782871 0)
(-0.0294239 0.00849511 0)
(-0.0335436 0.00916395 0)
(-0.0379217 0.00982636 0)
(-0.0425444 0.0104721 0)
(-0.0473929 0.01109 0)
(-0.0524432 0.0116675 0)
(-0.0576658 0.0121918 0)
(-0.0630263 0.0126495 0)
(-0.0684854 0.013027 0)
(-0.0739993 0.0133112 0)
(-0.0795204 0.0134892 0)
(-0.0849981 0.0135495 0)
(-0.0903792 0.0134814 0)
(-0.0956093 0.0132761 0)
(-0.100633 0.0129265 0)
(-0.105397 0.0124276 0)
(-0.109846 0.0117766 0)
(-0.11393 0.0109731 0)
(-0.1176 0.0100191 0)
(-0.120812 0.00891898 0)
(-0.123524 0.00767971 0)
(-0.125699 0.0063105 0)
(-0.127308 0.00482284 0)
(-0.128323 0.00323029 0)
(-0.128725 0.00154809 0)
(-0.128495 -0.000205818 0)
(-0.127627 -0.00200775 0)
(-0.12612 -0.00384217 0)
(-0.123975 -0.00568585 0)
(-0.1212 -0.00751506 0)
(-0.117811 -0.0093055 0)
(-0.11383 -0.0110324 0)
(-0.109285 -0.0126707 0)
(-0.10421 -0.0141956 0)
(-0.0986463 -0.0155831 0)
(-0.0926392 -0.01681 0)
(-0.0862417 -0.0178552 0)
(-0.0795116 -0.0186996 0)
(-0.0725121 -0.0193269 0)
(-0.0653107 -0.0197245 0)
(-0.0579786 -0.0198834 0)
(-0.0505901 -0.0197994 0)
(-0.0432211 -0.019473 0)
(-0.0359482 -0.0189098 0)
(-0.0288471 -0.0181208 0)
(-0.0219916 -0.017122 0)
(-0.0154518 -0.0159342 0)
(-0.00929257 -0.0145829 0)
(-0.0035724 -0.0130972 0)
(0.001658 -0.0115088 0)
(0.00635699 -0.00985171 0)
(0.0104928 -0.00816033 0)
(0.0140442 -0.00646887 0)
(0.0170007 -0.00480987 0)
(0.0193628 -0.00321324 0)
(0.0211413 -0.00170533 0)
(0.0223568 -0.000308143 0)
(0.023039 0.000960933 0)
(0.023225 0.00209003 0)
(0.0229578 0.00307212 0)
(0.0222852 0.00390482 0)
(0.0212581 0.0045898 0)
(0.0199291 0.00513179 0)
(0.0183514 0.0055373 0)
(0.0165778 0.00581307 0)
(0.0146608 0.00596436 0)
(0.012652 0.0059932 0)
(0.0106032 0.00589669 0)
(0.00856696 0.00566587 0)
(0.00659824 0.00528551 0)
(0.0047557 0.00473563 0)
(0.00310179 0.00399586 0)
(0.00170043 0.00305326 0)
(0.0006414 0.001915 0)
(0.000105949 0.000636147 0)
(5.37989e-05 -0.000575535 0)
(0.000269477 -0.00134326 0)
(0.000625901 -0.00178495 0)
(0.00100654 -0.00195329 0)
(0.00134558 -0.00189876 0)
(0.00159798 -0.00166837 0)
(0.00172702 -0.00130348 0)
(0.00170353 -0.000838786 0)
(0.00150474 -0.000302099 0)
(0.00111266 0.00028531 0)
(0.000512805 0.000908007 0)
(-0.000306826 0.00155576 0)
(-0.00135668 0.00222263 0)
(-0.00264635 0.00290617 0)
(-0.00418511 0.00360659 0)
(-0.00598227 0.00432593 0)
(-0.00804737 0.00506732 0)
(-0.0103902 0.00583423 0)
(-0.0130204 0.00662977 0)
(-0.0159474 0.00745614 0)
(-0.0191795 0.00831408 0)
(-0.0227237 0.00920252 0)
(-0.0265846 0.0101183 0)
(-0.0307638 0.0110561 0)
(-0.0352591 0.0120082 0)
(-0.0400642 0.0129646 0)
(-0.0451674 0.0139133 0)
(-0.0505518 0.0148403 0)
(-0.0561947 0.01573 0)
(-0.0620675 0.0165655 0)
(-0.0681356 0.0173287 0)
(-0.0743589 0.0180014 0)
(-0.0806921 0.0185649 0)
(-0.0870852 0.0190011 0)
(-0.0934846 0.019293 0)
(-0.0998337 0.0194248 0)
(-0.106074 0.0193824 0)
(-0.112147 0.0191542 0)
(-0.117992 0.0187311 0)
(-0.123552 0.0181067 0)
(-0.128772 0.0172778 0)
(-0.133598 0.0162439 0)
(-0.13798 0.0150079 0)
(-0.141874 0.0135758 0)
(-0.145238 0.0119562 0)
(-0.148036 0.0101609 0)
(-0.150237 0.00820417 0)
(-0.151814 0.00610281 0)
(-0.152748 0.00387604 0)
(-0.153021 0.00154542 0)
(-0.152622 -0.000865702 0)
(-0.151545 -0.00333486 0)
(-0.149793 -0.00583265 0)
(-0.147368 -0.00833151 0)
(-0.14428 -0.0108025 0)
(-0.140545 -0.0132155 0)
(-0.136184 -0.01554 0)
(-0.131223 -0.0177448 0)
(-0.125695 -0.0197991 0)
(-0.119639 -0.0216729 0)
(-0.113098 -0.0233373 0)
(-0.106123 -0.0247651 0)
(-0.0987697 -0.0259318 0)
(-0.0910999 -0.0268164 0)
(-0.0831801 -0.0274015 0)
(-0.0750816 -0.0276746 0)
(-0.0668797 -0.0276286 0)
(-0.0586523 -0.0272623 0)
(-0.0504793 -0.0265809 0)
(-0.0424409 -0.0255962 0)
(-0.0346166 -0.0243264 0)
(-0.0270832 -0.0227965 0)
(-0.0199136 -0.0210371 0)
(-0.013175 -0.019084 0)
(-0.00692763 -0.0169774 0)
(-0.00122316 -0.0147602 0)
(0.00389633 -0.0124773 0)
(0.00839926 -0.0101734 0)
(0.0122653 -0.00789235 0)
(0.0154853 -0.00567513 0)
(0.0180617 -0.00355881 0)
(0.0200078 -0.00157542 0)
(0.0213471 0.000248999 0)
(0.0221124 0.00189445 0)
(0.0223442 0.00334769 0)
(0.0220894 0.00460154 0)
(0.0214001 0.00565437 0)
(0.0203318 0.00650892 0)
(0.0189422 0.00717084 0)
(0.01729 0.00764672 0)
(0.0154347 0.00794206 0)
(0.0134354 0.00805894 0)
(0.0113521 0.00799399 0)
(0.00924533 0.00773682 0)
(0.00717786 0.00726949 0)
(0.00521636 0.00656773 0)
(0.00343185 0.00560455 0)
(0.00189841 0.0043568 0)
(0.000722944 0.002815 0)
(0.000121003 0.00100175 0)
(4.90047e-05 -0.000715631 0)
(0.000235004 -0.00162863 0)
(0.000524931 -0.00211929 0)
(0.000806355 -0.00226498 0)
(0.00101424 -0.00213298 0)
(0.00110398 -0.00178276 0)
(0.00103954 -0.00126497 0)
(0.000792088 -0.000621291 0)
(0.000338576 0.00011523 0)
(-0.000340027 0.000919437 0)
(-0.00125981 0.00177319 0)
(-0.00243485 0.0026644 0)
(-0.00387805 0.00358603 0)
(-0.00560158 0.00453508 0)
(-0.00761727 0.00551158 0)
(-0.00993684 0.00651763 0)
(-0.0125719 0.00755638 0)
(-0.0155336 0.00863112 0)
(-0.0188325 0.00974446 0)
(-0.022478 0.0108975 0)
(-0.0264774 0.0120893 0)
(-0.0308354 0.0133164 0)
(-0.0355533 0.0145723 0)
(-0.0406281 0.0158477 0)
(-0.0460515 0.0171302 0)
(-0.05181 0.0184045 0)
(-0.0578836 0.0196528 0)
(-0.064246 0.020855 0)
(-0.0708643 0.0219891 0)
(-0.0776994 0.023032 0)
(-0.0847062 0.02396 0)
(-0.0918341 0.0247493 0)
(-0.0990281 0.0253766 0)
(-0.10623 0.0258202 0)
(-0.113378 0.0260602 0)
(-0.12041 0.0260792 0)
(-0.127264 0.0258627 0)
(-0.133879 0.0253996 0)
(-0.140194 0.0246823 0)
(-0.146154 0.023707 0)
(-0.151706 0.0224736 0)
(-0.1568 0.0209857 0)
(-0.161392 0.0192505 0)
(-0.165442 0.0172784 0)
(-0.168916 0.0150832 0)
(-0.171782 0.0126814 0)
(-0.174015 0.0100922 0)
(-0.175595 0.00733725 0)
(-0.176503 0.00444064 0)
(-0.176728 0.00142857 0)
(-0.17626 -0.00167109 0)
(-0.175095 -0.00482994 0)
(-0.173233 -0.00801535 0)
(-0.170679 -0.0111947 0)
(-0.16744 -0.0143339 0)
(-0.163528 -0.0173979 0)
(-0.158963 -0.0203507 0)
(-0.153766 -0.0231559 0)
(-0.147965 -0.0257769 0)
(-0.141595 -0.0281779 0)
(-0.134694 -0.030324 0)
(-0.12731 -0.032182 0)
(-0.119495 -0.0337216 0)
(-0.111306 -0.0349159 0)
(-0.102808 -0.0357422 0)
(-0.0940715 -0.0361835 0)
(-0.0851713 -0.0362285 0)
(-0.0761868 -0.0358732 0)
(-0.0672004 -0.035121 0)
(-0.0582965 -0.0339832 0)
(-0.0495599 -0.0324792 0)
(-0.0410741 -0.0306365 0)
(-0.0329199 -0.0284902 0)
(-0.0251735 -0.0260819 0)
(-0.0179046 -0.0234594 0)
(-0.0111752 -0.0206743 0)
(-0.0050378 -0.0177815 0)
(0.000465334 -0.0148366 0)
(0.0053034 -0.011895 0)
(0.00945743 -0.00900912 0)
(0.0129205 -0.00622777 0)
(0.0156975 -0.00359402 0)
(0.0178047 -0.00114435 0)
(0.0192691 0.00109204 0)
(0.0201269 0.00309375 0)
(0.0204224 0.0048471 0)
(0.0202068 0.00634533 0)
(0.0195364 0.00758745 0)
(0.0184714 0.00857667 0)
(0.0170746 0.00931814 0)
(0.0154104 0.00981655 0)
(0.0135445 0.0100734 0)
(0.0115433 0.0100845 0)
(0.00947453 0.00983786 0)
(0.00740838 0.00931277 0)
(0.00541917 0.00848006 0)
(0.00358634 0.00730472 0)
(0.00199369 0.00575052 0)
(0.000761692 0.00378686 0)
(0.000127624 0.0013991 0)
(4.14433e-05 -0.00083295 0)
(0.000182562 -0.00185111 0)
(0.000375798 -0.00235303 0)
(0.000519331 -0.0024401 0)
(0.000552089 -0.00219639 0)
(0.000431686 -0.00169365 0)
(0.000124081 -0.000991379 0)
(-0.000398279 -0.000137546 0)
(-0.00115816 0.000830356 0)
(-0.00217513 0.00188402 0)
(-0.00346664 0.00300323 0)
(-0.00504871 0.00417448 0)
(-0.00693649 0.00538988 0)
(-0.00914456 0.00664597 0)
(-0.0116871 0.00794248 0)
(-0.0145779 0.00928119 0)
(-0.01783 0.0106648 0)
(-0.0214556 0.0120957 0)
(-0.025465 0.0135751 0)
(-0.0298666 0.015102 0)
(-0.0346653 0.0166727 0)
(-0.0398624 0.0182798 0)
(-0.0454539 0.0199124 0)
(-0.0514306 0.0215558 0)
(-0.0577768 0.0231917 0)
(-0.06447 0.0247982 0)
(-0.0714806 0.0263509 0)
(-0.0787723 0.0278226 0)
(-0.0863016 0.029185 0)
(-0.0940192 0.0304088 0)
(-0.10187 0.0314647 0)
(-0.109795 0.0323244 0)
(-0.117732 0.0329614 0)
(-0.125616 0.0333516 0)
(-0.133383 0.0334741 0)
(-0.140968 0.0333119 0)
(-0.148309 0.0328517 0)
(-0.155346 0.032085 0)
(-0.162023 0.0310075 0)
(-0.168289 0.0296192 0)
(-0.174095 0.0279245 0)
(-0.1794 0.0259315 0)
(-0.184165 0.0236523 0)
(-0.188357 0.0211019 0)
(-0.191947 0.0182987 0)
(-0.19491 0.0152636 0)
(-0.197224 0.01202 0)
(-0.198872 0.00859358 0)
(-0.19984 0.00501203 0)
(-0.200116 0.00130511 0)
(-0.199691 -0.00249564 0)
(-0.198561 -0.00635755 0)
(-0.196724 -0.0102452 0)
(-0.19418 -0.0141222 0)
(-0.190934 -0.0179502 0)
(-0.186994 -0.0216899 0)
(-0.182373 -0.0253006 0)
(-0.177088 -0.0287408 0)
(-0.17116 -0.0319685 0)
(-0.164619 -0.0349421 0)
(-0.157497 -0.0376204 0)
(-0.149835 -0.039964 0)
(-0.14168 -0.0419359 0)
(-0.133086 -0.0435026 0)
(-0.124115 -0.0446354 0)
(-0.114833 -0.0453109 0)
(-0.105316 -0.0455129 0)
(-0.0956434 -0.0452327 0)
(-0.0858996 -0.0444705 0)
(-0.076173 -0.0432358 0)
(-0.066554 -0.0415476 0)
(-0.057133 -0.0394349 0)
(-0.0479992 -0.0369358 0)
(-0.039238 -0.0340972 0)
(-0.0309294 -0.0309733 0)
(-0.0231463 -0.0276245 0)
(-0.0159524 -0.0241152 0)
(-0.00940082 -0.0205121 0)
(-0.00353341 -0.0168821 0)
(0.00162047 -0.0132901 0)
(0.00604421 -0.00979712 0)
(0.00973392 -0.00645831 0)
(0.0126981 -0.00332176 0)
(0.0149572 -0.000427176 0)
(0.0165422 0.00219446 0)
(0.0174939 0.00452124 0)
(0.0178612 0.00653961 0)
(0.0177001 0.00824326 0)
(0.0170716 0.00963136 0)
(0.0160411 0.0107062 0)
(0.0146769 0.0114706 0)
(0.0130494 0.0119245 0)
(0.0112309 0.0120622 0)
(0.0092954 0.0118699 0)
(0.00731987 0.0113235 0)
(0.00538585 0.0103885 0)
(0.0035806 0.00902079 0)
(0.00199638 0.00716969 0)
(0.000763005 0.00478203 0)
(0.000127326 0.00180618 0)
(3.14958e-05 -0.000918819 0)
(0.000114157 -0.00198808 0)
(0.000183291 -0.0024535 0)
(0.000153489 -0.00243921 0)
(-2.92939e-05 -0.00204519 0)
(-0.000403412 -0.00135456 0)
(-0.000999587 -0.000434667 0)
(-0.00184323 0.000661357 0)
(-0.00295624 0.00189256 0)
(-0.00435847 0.00322845 0)
(-0.00606846 0.00464735 0)
(-0.00810397 0.0061349 0)
(-0.0104822 0.00768259 0)
(-0.0132199 0.00928646 0)
(-0.0163333 0.0109457 0)
(-0.0198374 0.0126614 0)
(-0.0237464 0.014435 0)
(-0.0280723 0.0162671 0)
(-0.0328244 0.0181566 0)
(-0.0380085 0.020099 0)
(-0.0436259 0.0220864 0)
(-0.0496727 0.0241063 0)
(-0.0561385 0.0261419 0)
(-0.0630062 0.028172 0)
(-0.0702511 0.0301709 0)
(-0.0778412 0.0321097 0)
(-0.0857367 0.0339564 0)
(-0.0938909 0.0356771 0)
(-0.102251 0.037237 0)
(-0.110758 0.0386014 0)
(-0.119349 0.0397366 0)
(-0.12796 0.0406115 0)
(-0.136522 0.0411978 0)
(-0.144971 0.0414712 0)
(-0.15324 0.0414118 0)
(-0.161268 0.0410049 0)
(-0.168994 0.0402405 0)
(-0.176365 0.0391138 0)
(-0.183329 0.0376252 0)
(-0.189843 0.0357793 0)
(-0.195864 0.0335854 0)
(-0.201358 0.0310564 0)
(-0.206293 0.0282086 0)
(-0.210642 0.0250615 0)
(-0.214379 0.0216371 0)
(-0.217485 0.0179598 0)
(-0.21994 0.0140562 0)
(-0.22173 0.00995476 0)
(-0.222841 0.00568574 0)
(-0.22326 0.00128137 0)
(-0.222979 -0.00322428 0)
(-0.22199 -0.00779581 0)
(-0.220289 -0.0123954 0)
(-0.217871 -0.0169835 0)
(-0.214736 -0.0215188 0)
(-0.210888 -0.0259581 0)
(-0.206333 -0.0302565 0)
(-0.201081 -0.0343679 0)
(-0.195148 -0.0382452 0)
(-0.188555 -0.0418407 0)
(-0.181328 -0.045107 0)
(-0.1735 -0.0479979 0)
(-0.165113 -0.0504692 0)
(-0.156215 -0.05248 0)
(-0.146862 -0.053994 0)
(-0.137118 -0.0549807 0)
(-0.127057 -0.0554169 0)
(-0.116756 -0.055288 0)
(-0.106303 -0.0545892 0)
(-0.0957901 -0.0533262 0)
(-0.0853117 -0.0515162 0)
(-0.074966 -0.049188 0)
(-0.0648508 -0.0463816 0)
(-0.0550618 -0.0431478 0)
(-0.0456902 -0.0395469 0)
(-0.0368207 -0.0356472 0)
(-0.0285292 -0.0315227 0)
(-0.0208812 -0.0272515 0)
(-0.0139302 -0.0229123 0)
(-0.00771659 -0.0185832 0)
(-0.00226734 -0.014338 0)
(0.00240442 -0.0102453 0)
(0.00629918 -0.00636555 0)
(0.00943045 -0.00275051 0)
(0.0118239 0.0005581 0)
(0.013516 0.00352862 0)
(0.0145532 0.00613925 0)
(0.0149899 0.0083768 0)
(0.0148877 0.010235 0)
(0.0143133 0.0117119 0)
(0.0133379 0.0128071 0)
(0.0120359 0.013518 0)
(0.0104844 0.0138369 0)
(0.00876314 0.0137472 0)
(0.00695513 0.013221 0)
(0.00514852 0.0122181 0)
(0.00343734 0.010685 0)
(0.00192065 0.0085566 0)
(0.0007334 0.00575807 0)
(0.000121602 0.00220457 0)
(1.93036e-05 -0.000965338 0)
(3.08998e-05 -0.00201882 0)
(-4.94431e-05 -0.00239071 0)
(-0.000285331 -0.00222604 0)
(-0.000720842 -0.00163917 0)
(-0.00138854 -0.000723004 0)
(-0.00231451 0.000448902 0)
(-0.00352123 0.00181967 0)
(-0.00502933 0.00334623 0)
(-0.00685856 0.00499694 0)
(-0.00902841 0.00674949 0)
(-0.0115582 0.00858906 0)
(-0.0144668 0.0105067 0)
(-0.0177729 0.0124979 0)
(-0.021494 0.014561 0)
(-0.0256461 0.0166954 0)
(-0.0302431 0.0189007 0)
(-0.0352959 0.0211748 0)
(-0.0408116 0.0235125 0)
(-0.0467921 0.0259048 0)
(-0.0532335 0.0283382 0)
(-0.0601253 0.0307937 0)
(-0.0674494 0.0332471 0)
(-0.0751795 0.0356696 0)
(-0.0832814 0.0380278 0)
(-0.091713 0.0402847 0)
(-0.100425 0.0424013 0)
(-0.10936 0.0443371 0)
(-0.118459 0.046052 0)
(-0.127654 0.0475071 0)
(-0.136879 0.0486663 0)
(-0.146065 0.0494973 0)
(-0.155144 0.0499722 0)
(-0.164051 0.0500686 0)
(-0.172723 0.0497698 0)
(-0.181103 0.0490645 0)
(-0.189138 0.0479477 0)
(-0.196777 0.0464193 0)
(-0.20398 0.0444847 0)
(-0.210707 0.0421536 0)
(-0.216924 0.0394396 0)
(-0.222602 0.0363599 0)
(-0.227715 0.0329348 0)
(-0.23224 0.0291869 0)
(-0.236156 0.025141 0)
(-0.239445 0.0208241 0)
(-0.242091 0.0162647 0)
(-0.244079 0.011493 0)
(-0.245394 0.00654113 0)
(-0.246026 0.00144274 0)
(-0.245961 -0.00376664 0)
(-0.245192 -0.00904971 0)
(-0.243708 -0.0143669 0)
(-0.241504 -0.0196765 0)
(-0.238573 -0.0249346 0)
(-0.234913 -0.030095 0)
(-0.230524 -0.0351093 0)
(-0.22541 -0.0399272 0)
(-0.219579 -0.0444964 0)
(-0.213043 -0.0487639 0)
(-0.205821 -0.0526759 0)
(-0.197938 -0.056179 0)
(-0.189428 -0.0592213 0)
(-0.18033 -0.0617537 0)
(-0.170695 -0.0637314 0)
(-0.160582 -0.0651151 0)
(-0.15006 -0.0658734 0)
(-0.139204 -0.0659835 0)
(-0.128103 -0.0654338 0)
(-0.11685 -0.0642242 0)
(-0.105545 -0.0623678 0)
(-0.0942935 -0.0598915 0)
(-0.0832015 -0.0568353 0)
(-0.0723759 -0.0532527 0)
(-0.0619204 -0.0492091 0)
(-0.0519331 -0.04478 0)
(-0.0425036 -0.0400491 0)
(-0.0337114 -0.0351057 0)
(-0.0256234 -0.0300415 0)
(-0.0182925 -0.0249481 0)
(-0.0117571 -0.0199137 0)
(-0.00604026 -0.015021 0)
(-0.00115018 -0.0103446 0)
(0.00291953 -0.00594929 0)
(0.00618882 -0.00188908 0)
(0.00869011 0.00179339 0)
(0.0104669 0.0050666 0)
(0.0115723 0.00790915 0)
(0.0120675 0.0103079 0)
(0.0120206 0.0122556 0)
(0.0115051 0.0137473 0)
(0.0105986 0.014777 0)
(0.0093826 0.0153337 0)
(0.00794182 0.0153977 0)
(0.00636484 0.014937 0)
(0.00474552 0.0139053 0)
(0.00318349 0.01224 0)
(0.00178283 0.00986282 0)
(0.000679938 0.00668011 0)
(0.000111907 0.00257968 0)
(4.91168e-06 -0.000964963 0)
(-6.66529e-05 -0.00192396 0)
(-0.000320307 -0.00213673 0)
(-0.000792596 -0.00176708 0)
(-0.00151497 -0.000941502 0)
(-0.00251242 0.000239634 0)
(-0.00380524 0.00169867 0)
(-0.00541223 0.00337688 0)
(-0.00735227 0.00523065 0)
(-0.00964487 0.00722838 0)
(-0.0123102 0.00934789 0)
(-0.015369 0.0115743 0)
(-0.0188415 0.0138984 0)
(-0.0227476 0.0163147 0)
(-0.0271055 0.01882 0)
(-0.0319313 0.0214117 0)
(-0.0372376 0.024086 0)
(-0.0430331 0.0268369 0)
(-0.049321 0.029654 0)
(-0.0560982 0.0325222 0)
(-0.0633542 0.0354209 0)
(-0.0710705 0.0383233 0)
(-0.0792203 0.0411971 0)
(-0.0877677 0.0440049 0)
(-0.0966687 0.0467051 0)
(-0.105872 0.0492534 0)
(-0.115318 0.0516039 0)
(-0.124944 0.0537108 0)
(-0.134682 0.0555301 0)
(-0.144462 0.0570208 0)
(-0.154215 0.0581463 0)
(-0.163872 0.0588753 0)
(-0.173368 0.0591824 0)
(-0.18264 0.0590489 0)
(-0.191632 0.0584624 0)
(-0.20029 0.057417 0)
(-0.20857 0.0559124 0)
(-0.216429 0.0539542 0)
(-0.223831 0.0515525 0)
(-0.230744 0.0487213 0)
(-0.23714 0.0454787 0)
(-0.242994 0.041845 0)
(-0.248285 0.0378435 0)
(-0.252992 0.0334991 0)
(-0.257099 0.0288388 0)
(-0.260589 0.023891 0)
(-0.263447 0.0186855 0)
(-0.265659 0.0132536 0)
(-0.267211 0.00762825 0)
(-0.26809 0.00184391 0)
(-0.268285 -0.00406313 0)
(-0.267782 -0.0100544 0)
(-0.266572 -0.0160894 0)
(-0.264642 -0.022125 0)
(-0.261985 -0.0281155 0)
(-0.258591 -0.0340126 0)
(-0.254455 -0.0397649 0)
(-0.249574 -0.0453187 0)
(-0.243947 -0.0506175 0)
(-0.237578 -0.055603 0)
(-0.230478 -0.0602154 0)
(-0.22266 -0.0643943 0)
(-0.214149 -0.0680799 0)
(-0.204976 -0.0712143 0)
(-0.195181 -0.073743 0)
(-0.184816 -0.0756169 0)
(-0.173941 -0.0767944 0)
(-0.162631 -0.0772428 0)
(-0.150969 -0.0769411 0)
(-0.13905 -0.075881 0)
(-0.126975 -0.074069 0)
(-0.114858 -0.0715273 0)
(-0.102811 -0.068294 0)
(-0.0909551 -0.0644232 0)
(-0.0794057 -0.0599838 0)
(-0.0682762 -0.0550577 0)
(-0.0576725 -0.0497381 0)
(-0.0476902 -0.0441255 0)
(-0.0384119 -0.0383252 0)
(-0.0299056 -0.0324437 0)
(-0.022223 -0.026585 0)
(-0.0153989 -0.0208474 0)
(-0.00945116 -0.0153212 0)
(-0.00438129 -0.010086 0)
(-0.000175333 -0.00520964 0)
(0.00319483 -0.000747179 0)
(0.00577 0.00325878 0)
(0.00760201 0.00677729 0)
(0.00875211 0.00978719 0)
(0.00928947 0.0122745 0)
(0.00928973 0.0142289 0)
(0.00883384 0.01564 0)
(0.00800717 0.0164928 0)
(0.00689907 0.0167638 0)
(0.00560307 0.0164165 0)
(0.00421795 0.0153987 0)
(0.00284777 0.0136399 0)
(0.00160004 0.0110504 0)
(0.000609807 0.00752155 0)
(9.96412e-05 0.00292088 0)
(-1.1781e-05 -0.000910323 0)
(-0.000178139 -0.00168507 0)
(-0.000627551 -0.00166543 0)
(-0.0013644 -0.00103146 0)
(-0.00240471 8.1302e-05 0)
(-0.00376432 0.00156795 0)
(-0.00545666 0.00334944 0)
(-0.00749619 0.00536749 0)
(-0.00989975 0.00757976 0)
(-0.0126864 0.0099559 0)
(-0.0158768 0.0124747 0)
(-0.0194927 0.0151215 0)
(-0.0235553 0.0178866 0)
(-0.0280852 0.0207632 0)
(-0.0331005 0.0237459 0)
(-0.038616 0.0268288 0)
(-0.0446424 0.0300039 0)
(-0.0511844 0.0332595 0)
(-0.0582402 0.0365788 0)
(-0.0658003 0.0399392 0)
(-0.0738465 0.0433116 0)
(-0.0823516 0.0466607 0)
(-0.0912792 0.049945 0)
(-0.100584 0.0531186 0)
(-0.110213 0.0561319 0)
(-0.120105 0.0589338 0)
(-0.130196 0.0614729 0)
(-0.140415 0.0637 0)
(-0.150691 0.065569 0)
(-0.160954 0.0670389 0)
(-0.171134 0.0680746 0)
(-0.181165 0.0686477 0)
(-0.190986 0.0687373 0)
(-0.20054 0.0683295 0)
(-0.209775 0.0674172 0)