/*--------------------------------*- C++ -*----------------------------------*\
  =========                 |
  \\      /  F ield         | OpenFOAM: The Open Source CFD Toolbox
   \\    /   O peration     | Website:  https://openfoam.org
    \\  /    A nd           | Version:  9
     \\/     M anipulation  |
\*---------------------------------------------------------------------------*/
FoamFile
{
    format      ascii;
    class       volScalarField;
    location    "1";
    object      p;
}
// * * * * * * * * * * * * * * * * * * * * * * * * * * * * * * * * * * * * * //

dimensions      [0 2 -2 0 0 0 0];

internalField   nonuniform List<scalar> 
1260
(
-0.0814782
-0.0795352
-0.077517
-0.075443
-0.0733316
-0.0712
-0.0690627
-0.066931
-0.0648109
-0.0627027
-0.0605989
-0.0584839
-0.0563325
-0.0541105
-0.0517756
-0.0492805
-0.0465793
-0.0436374
-0.0404473
-0.0370463
-0.0335342
-0.0300804
-0.0269103
-0.0242642
-0.0223327
-0.0211928
-0.0207748
-0.0208877
-0.0213442
-0.0220836
-0.0822818
-0.0803055
-0.0782523
-0.0761425
-0.0739958
-0.0718307
-0.0696636
-0.0675078
-0.0653719
-0.0632589
-0.0611645
-0.0590761
-0.0569717
-0.0548199
-0.05258
-0.0502047
-0.047645
-0.044859
-0.0418263
-0.038566
-0.0351567
-0.0317483
-0.0285564
-0.0258275
-0.0237766
-0.0225151
-0.0220038
-0.0220654
-0.0225104
-0.0232725
-0.0828989
-0.0808932
-0.0788092
-0.0766677
-0.0744894
-0.072294
-0.0700994
-0.0679209
-0.0657693
-0.0636502
-0.0615623
-0.0594959
-0.0574325
-0.0553433
-0.0531902
-0.0509268
-0.0485025
-0.0458705
-0.0429996
-0.0398933
-0.0366093
-0.0332769
-0.0300975
-0.0273181
-0.025172
-0.0238025
-0.023202
-0.0232112
-0.0236419
-0.024423
-0.0833215
-0.0812908
-0.0791802
-0.0770111
-0.0748052
-0.0725832
-0.0703642
-0.0681652
-0.0659992
-0.0638739
-0.0617907
-0.0597432
-0.0577156
-0.0556826
-0.0536085
-0.0514489
-0.049153
-0.0466706
-0.0439628
-0.041019
-0.037878
-0.0346477
-0.0315125
-0.028714
-0.026498
-0.0250363
-0.0243531
-0.0243102
-0.0247241
-0.0255208
-0.0835439
-0.0814921
-0.079359
-0.0771668
-0.0749374
-0.0726927
-0.0704529
-0.0682363
-0.0660577
-0.063927
-0.0618481
-0.0598172
-0.0578217
-0.0558393
-0.0538374
-0.0517737
-0.0495986
-0.0472599
-0.0447131
-0.0419362
-0.0389509
-0.0358443
-0.0327812
-0.0299935
-0.0277338
-0.0261975
-0.0254401
-0.0253469
-0.0257425
-0.0265516
-0.0835621
-0.081493
-0.0793415
-0.0771302
-0.0748816
-0.0726182
-0.0703614
-0.0681305
-0.0659419
-0.0638074
-0.0617331
-0.0597176
-0.0577514
-0.0558151
-0.0538792
-0.0519041
-0.0498418
-0.0476399
-0.04525
-0.0426411
-0.0398199
-0.0368537
-0.0338869
-0.0311377
-0.0288599
-0.027268
-0.0264466
-0.0263062
-0.0266827
-0.0275013
-0.0833741
-0.0812913
-0.0791252
-0.0768988
-0.0746351
-0.0723571
-0.0700871
-0.0678455
-0.0656499
-0.0635137
-0.0614448
-0.0594446
-0.0575057
-0.0556119
-0.0537367
-0.0518433
-0.0498861
-0.0478134
-0.0455744
-0.0431316
-0.0404791
-0.0376657
-0.0348152
-0.0321295
-0.0298585
-0.0282302
-0.0273564
-0.0271733
-0.0275309
-0.0283565
-0.0829801
-0.0808867
-0.0787096
-0.0764719
-0.0741969
-0.0719084
-0.0696291
-0.0673804
-0.0651809
-0.0630454
-0.0609836
-0.0589988
-0.0570862
-0.055232
-0.0534128
-0.051595
-0.0497353
-0.0477838
-0.0456889
-0.0434081
-0.0409253
-0.038273
-0.0355549
-0.0329543
-0.0307132
-0.0290682
-0.0281543
-0.0279341
-0.0282737
-0.0291045
-0.0823822
-0.0802813
-0.0780964
-0.0758507
-0.0735682
-0.0712728
-0.0689881
-0.0667358
-0.0645357
-0.0624036
-0.0603508
-0.0583821
-0.0564951
-0.0546785
-0.0529115
-0.0511635
-0.0493942
-0.0475558
-0.045597
-0.0434723
-0.0411574
-0.0386709
-0.036097
-0.0336
-0.0314099
-0.029767
-0.0288261
-0.0285753
-0.0288985
-0.0297334
-0.0815845
-0.0794786
-0.0772889
-0.0750386
-0.072752
-0.0704534
-0.0681668
-0.0659142
-0.0637168
-0.0615909
-0.059549
-0.0575976
-0.055736
-0.0539552
-0.0522371
-0.0505539
-0.0488682
-0.0471348
-0.0453036
-0.0433276
-0.0411766
-0.0388569
-0.0364355
-0.0340568
-0.0319363
-0.0303135
-0.0293588
-0.0290843
-0.0293937
-0.0302321
-0.080593
-0.0784847
-0.0762928
-0.0740409
-0.0717534
-0.0694548
-0.0671696
-0.0649204
-0.0627286
-0.0606115
-0.0585827
-0.0566497
-0.0548136
-0.0530674
-0.0513952
-0.0497721
-0.0481636
-0.0465272
-0.0448147
-0.042979
-0.0409856
-0.038831
-0.0365665
-0.0343172
-0.0322822
-0.0306959
-0.0297403
-0.0294498
-0.0297485
-0.0305908
-0.0794156
-0.0773071
-0.0751157
-0.0728649
-0.0705793
-0.068284
-0.0660032
-0.0637605
-0.0615772
-0.0594716
-0.0574578
-0.0555446
-0.0537342
-0.0520214
-0.0503925
-0.048825
-0.0472875
-0.0457403
-0.0441375
-0.0424327
-0.0405889
-0.0385949
-0.0364883
-0.0343758
-0.0324392
-0.0309042
-0.02996
-0.0296612
-0.0299527
-0.0308
-0.0780621
-0.0759556
-0.0737669
-0.0715197
-0.069239
-0.0669496
-0.0646764
-0.062443
-0.060271
-0.0581792
-0.0561823
-0.0542898
-0.0525051
-0.0508253
-0.049237
-0.047721
-0.0462484
-0.0447825
-0.0432801
-0.0416961
-0.0399924
-0.0381521
-0.0362011
-0.0342295
-0.0324008
-0.0309296
-0.0300082
-0.0297087
-0.0299972
-0.0308515
-0.0765438
-0.0744413
-0.0722576
-0.0700167
-0.0677434
-0.0654628
-0.0631998
-0.0609782
-0.05882
-0.0567441
-0.0547657
-0.052895
-0.0511364
-0.0494874
-0.0479378
-0.0464693
-0.0450557
-0.0436632
-0.0422516
-0.0407778
-0.0392034
-0.0375076
-0.0357071
-0.0338765
-0.0321619
-0.0307645
-0.0298761
-0.0295833
-0.0298731
-0.0307372
-0.074874
-0.0727775
-0.0706012
-0.068369
-0.0661056
-0.0638362
-0.061586
-0.0593787
-0.0572363
-0.0551781
-0.0532196
-0.0513713
-0.0496384
-0.0480194
-0.0465052
-0.0450806
-0.04372
-0.042393
-0.0410624
-0.0396874
-0.0382303
-0.0366681
-0.0350097
-0.0333169
-0.031719
-0.0304026
-0.0295556
-0.0292761
-0.0295719
-0.0304495
-0.0665915
-0.0643405
-0.0620848
-0.0598496
-0.0576587
-0.0555341
-0.0534951
-0.0515572
-0.0497317
-0.0480239
-0.0464332
-0.0449521
-0.043566
-0.0422526
-0.0409832
-0.0397235
-0.0384355
-0.0370827
-0.035641
-0.0341137
-0.0325519
-0.0310694
-0.029838
-0.0290388
-0.0287786
-0.0290849
-0.0299806
-0.0647013
-0.062465
-0.0602253
-0.0580072
-0.0558345
-0.0537291
-0.0517103
-0.0497938
-0.0479907
-0.046307
-0.0447426
-0.0432911
-0.041939
-0.0406661
-0.0394461
-0.0382468
-0.0370332
-0.0357706
-0.0344347
-0.033025
-0.0315837
-0.0302114
-0.0290653
-0.028318
-0.0280815
-0.0284028
-0.029322
-0.0627171
-0.0604977
-0.0582761
-0.0560771
-0.0539241
-0.0518391
-0.0498411
-0.0479457
-0.0461644
-0.0445031
-0.0429624
-0.0415366
-0.0402132
-0.0389737
-0.0377951
-0.036645
-0.0354924
-0.0343048
-0.0330581
-0.0317497
-0.030415
-0.0291435
-0.0280792
-0.0273848
-0.0271748
-0.0275151
-0.0284641
-0.0606589
-0.0584589
-0.0562574
-0.054079
-0.0519471
-0.0498831
-0.047906
-0.0460312
-0.0442702
-0.0426291
-0.0411087
-0.039704
-0.0384037
-0.0371905
-0.0360421
-0.0349305
-0.0338251
-0.032696
-0.0315204
-0.0302943
-0.0290487
-0.0278643
-0.0268736
-0.0262296
-0.026047
-0.0264095
-0.0273956
-0.0585488
-0.0563702
-0.0541907
-0.0520344
-0.0499243
-0.0478815
-0.0459249
-0.0440695
-0.0423266
-0.0407026
-0.0391985
-0.0378095
-0.0365254
-0.0353299
-0.0342016
-0.0331167
-0.0320431
-0.0309549
-0.0298303
-0.028665
-0.0274872
-0.0263715
-0.0254416
-0.0248415
-0.0246843
-0.0250712
-0.0261024
-0.0564095
-0.0542546
-0.0520988
-0.0499656
-0.0478777
-0.045856
-0.0439186
-0.0420807
-0.0403531
-0.0387422
-0.0372491
-0.0358697
-0.0345941
-0.033407
-0.0322884
-0.0312145
-0.0301574
-0.0290911
-0.0279955
-0.026867
-0.025732
-0.0246617
-0.0237742
-0.0232068
-0.0230699
-0.0234819
-0.0245671
-0.0542652
-0.052136
-0.0500051
-0.0478958
-0.0458301
-0.0438285
-0.0419087
-0.0400854
-0.0383693
-0.0367666
-0.0352785
-0.0339012
-0.0326251
-0.0314358
-0.0303142
-0.0292369
-0.0281784
-0.0271132
-0.0260226
-0.0249036
-0.0237824
-0.0227292
-0.0218602
-0.0213086
-0.0211829
-0.0216185
-0.0227674
-0.0521404
-0.0500385
-0.0479337
-0.0458485
-0.0438046
-0.0418216
-0.0399169
-0.0381046
-0.0363952
-0.0347947
-0.0333043
-0.0319203
-0.0306335
-0.02943
-0.0282911
-0.0271942
-0.0261146
-0.0250277
-0.0239154
-0.0227757
-0.0216353
-0.0205655
-0.0196843
-0.0191257
-0.0189973
-0.0194522
-0.0206755
-0.0500596
-0.0479865
-0.0459084
-0.0438473
-0.041824
-0.0398574
-0.0379645
-0.0361587
-0.0344502
-0.0328448
-0.0313436
-0.0299428
-0.0286335
-0.027402
-0.0262299
-0.0250948
-0.0239723
-0.0228382
-0.0216749
-0.0204805
-0.0192834
-0.0181573
-0.0172265
-0.016631
-0.0164804
-0.0169469
-0.0182559
-0.0480469
-0.0460037
-0.0439527
-0.0419149
-0.0399104
-0.0379575
-0.0360722
-0.0342676
-0.0325532
-0.0309345
-0.0294124
-0.0279832
-0.0266378
-0.0253626
-0.0241391
-0.0229447
-0.0217547
-0.020545
-0.0192974
-0.0180104
-0.0167138
-0.0154857
-0.0144601
-0.0137898
-0.0135911
-0.014057
-0.0154642
-0.0461252
-0.0441125
-0.0420883
-0.0400726
-0.0380846
-0.0361418
-0.0342593
-0.0324494
-0.0307212
-0.0290796
-0.0275254
-0.0260543
-0.0246574
-0.0233205
-0.0220247
-0.0207469
-0.0194615
-0.0181434
-0.0167739
-0.0153513
-0.0139066
-0.0125235
-0.0113497
-0.0105577
-0.0102773
-0.0107256
-0.0122444
-0.0443155
-0.0423335
-0.0403353
-0.0383399
-0.0363654
-0.0344283
-0.0325429
-0.0307205
-0.0289695
-0.0272942
-0.0256949
-0.0241669
-0.0227007
-0.0212815
-0.0198895
-0.0185004
-0.0170873
-0.0156234
-0.0140888
-0.0124812
-0.0108326
-0.00923353
-0.00784853
-0.00687765
-0.00647312
-0.0068812
-0.0085258
-0.0426362
-0.0406845
-0.0387109
-0.0367333
-0.0347688
-0.0328325
-0.0309375
-0.0290945
-0.0273107
-0.0255897
-0.0239309
-0.022329
-0.0207734
-0.0192484
-0.0177326
-0.0162001
-0.0146215
-0.0129681
-0.0112181
-0.00936801
-0.0074512
-0.00556518
-0.00389488
-0.00267593
-0.00209434
-0.00243373
-0.00421885
-0.0411021
-0.0391796
-0.0372288
-0.035266
-0.0333071
-0.0313659
-0.0294544
-0.0275817
-0.0257542
-0.0239742
-0.02224
-0.0205451
-0.0188776
-0.0172199
-0.0155487
-0.0138352
-0.0120472
-0.010153
-0.00812827
-0.00596811
-0.00370738
-0.00145145
0.000591716
0.00214267
0.00296712
0.00273116
0.000791512
-0.039724
-0.0378291
-0.0358983
-0.0339468
-0.0319887
-0.0300364
-0.0281005
-0.0261886
-0.0243054
-0.022452
-0.020625
-0.0188161
-0.0170114
-0.0151906
-0.0133274
-0.0113894
-0.00934039
-0.00714466
-0.00477465
-0.00222392
0.000470807
0.00319494
0.00571538
0.00770076
0.00885038
0.00875985
0.0066555
-0.0385076
-0.036638
-0.0347241
-0.0327796
-0.0308169
-0.0288469
-0.0268782
-0.0249168
-0.0229655
-0.0210232
-0.0190846
-0.0171385
-0.0151682
-0.0131499
-0.0110529
-0.00883976
-0.00646905
-0.00389972
-0.00110013
0.00193757
0.00517547
0.00848593
0.0116089
0.0141549
0.0157345
0.0158418
0.0135727
-0.0374532
-0.0356058
-0.0337051
-0.0317628
-0.0297898
-0.0277949
-0.0257847
-0.0237631
-0.0217304
-0.0196831
-0.0176124
-0.015504
-0.0133369
-0.0110822
-0.00870348
-0.00615666
-0.00339306
-0.000364708
0.00296537
0.00660726
0.0105205
0.0145628
0.0184396
0.0217036
0.0238496
0.0242246
0.0218117
-0.0365552
-0.0347263
-0.0328344
-0.0308892
-0.0288997
-0.0268726
-0.024812
-0.0227191
-0.0205913
-0.0184216
-0.0161973
-0.0138992
-0.0115007
-0.00896625
-0.00625145
-0.00330345
-6.39655e-05
0.00352417
0.00750538
0.0118932
0.0166411
0.0215971
0.0264171
0.0305977
0.0334895
0.0342327
0.0317356
-0.0358018
-0.0339871
-0.0320992
-0.0301457
-0.0281334
-0.0260664
-0.0239463
-0.0217709
-0.0195339
-0.0172239
-0.0148229
-0.0123057
-0.00963801
-0.00677552
-0.00366344
-0.000237211
0.00357408
0.00783996
0.0126151
0.017918
0.0236967
0.0297754
0.0358053
0.0411518
0.0450215
0.0462856
0.0438298
-0.0351757
-0.0333705
-0.0314815
-0.029514
-0.0274723
-0.025358
-0.0231692
-0.0208998
-0.0185392
-0.0160702
-0.0134685
-0.0107007
-0.00772283
-0.00447928
-0.000901801
0.00308947
0.00758205
0.0126621
0.0183986
0.0248172
0.031856
0.0393113
0.0469154
0.0537336
0.058887
0.0609146
0.0587297
-0.0346546
-0.032854
-0.0309585
-0.0289713
-0.0268939
-0.0247248
-0.0224581
-0.0200835
-0.0175845
-0.0149375
-0.0121098
-0.00905815
-0.00572652
-0.00204474
0.0020725
0.00672465
0.0120209
0.0180698
0.0249606
0.0327316
0.0413254
0.0505361
0.0599478
0.0687298
0.0756087
0.0787835
0.0772484
-0.0342131
-0.0324121
-0.0305051
-0.0284926
-0.0263733
-0.0241419
-0.0217885
-0.0192973
-0.0166454
-0.013801
-0.0107217
-0.00735204
-0.00362124
0.000558718
0.00529439
0.0107099
0.0169423
0.0241297
0.03239
0.0417842
0.0522646
0.0636054
0.0753112
0.0865876
0.0958053
0.100718
0.100408
-0.0338249
-0.0320189
-0.0300955
-0.0280525
-0.0258854
-0.023585
-0.0211364
-0.0185178
-0.0156987
-0.0126381
-0.00928208
-0.00556075
-0.00138586
0.00335205
0.00878528
0.0150684
0.0223734
0.0308772
0.0407376
0.0520514
0.0647943
0.0787368
0.0933424
0.107669
0.120167
0.127717
0.129459
-0.0334663
-0.0316509
-0.0297069
-0.0276289
-0.0254089
-0.0230333
-0.020482
-0.0177262
-0.0147273
-0.0114337
-0.00777831
-0.00367506
0.00098449
0.0063346
0.0125379
0.0197853
0.0282922
0.0382846
0.0499747
0.0635136
0.078923
0.0959928
0.114159
0.132407
0.149313
0.160831
0.165808
-0.0331196
-0.0312915
-0.0293235
-0.027207
-0.0249301
-0.0224749
-0.0198152
-0.0169152
-0.0137271
-0.0101881
-0.00621681
-0.00170955
0.00346431
0.00946653
0.0164939
0.0247796
0.0345904
0.0462144
0.0599365
0.0759868
0.0944675
0.115229
0.137742
0.161008
0.183478
0.200859
0.210952
-0.0327776
-0.0309346
-0.0289406
-0.026784
-0.0244487
-0.021912
-0.0191419
-0.0160954
-0.0127153
-0.00892716
-0.0046351
0.000282778
0.00597994
0.0126468
0.0205166
0.0298682
0.0410276
0.0543574
0.0702386
0.0890164
0.110929
0.135959
0.163697
0.193177
0.222815
0.248167
0.267183
-0.0324474
-0.030589
-0.0285699
-0.0263742
-0.0239824
-0.0213672
-0.0184913
-0.0153042
-0.0117401
-0.0077136
-0.00311496
0.00219485
0.00839098
0.0156911
0.0243635
0.0347324
0.0471855
0.0621681
0.0801803
0.101729
0.127283
0.157095
0.191076
0.228416
0.267577
0.304178
0.33986
-0.0321502
-0.0302825
-0.0282426
-0.0260134
-0.0235727
-0.0208899
-0.0179225
-0.0146142
-0.0108915
-0.00665988
-0.00179813
0.00384701
0.0104686
0.0183065
0.0276584
0.0388861
0.0524314
0.0688159
0.0886642
0.112676
0.141655
0.176355
0.217467
0.264972
0.318325
0.374761
0.440914
-0.0319409
-0.0300668
-0.0280139
-0.0257635
-0.0232913
-0.0205636
-0.0175347
-0.0141445
-0.0103146
-0.00594438
-0.000905458
0.00496438
0.0118693
0.0200626
0.0298597
0.0416451
0.0558946
0.0731785
0.0942126
0.11985
0.151234
0.189755
0.237512
0.296862
0.371601
0.464308
0.589807
-0.0318561
-0.0299869
-0.027936
-0.0256847
-0.0232074
-0.0204693
-0.0174241
-0.0140104
-0.0101487
-0.00573685
-0.000644672
0.005292
0.0122795
0.0205739
0.0304935
0.0424271
0.0568578
0.0743673
0.0957022
0.121767
0.153883
0.19379
0.244916
0.31262
0.410516
0.555114
0.775663
)
;

boundaryField
{
    movingWall
    {
        type            zeroGradient;
    }
    fixedWalls
    {
        type            zeroGradient;
    }
    frontAndBack
    {
        type            empty;
    }
    procBoundary4to5
    {
        type            processor;
        value           nonuniform List<scalar> 
48
(
-0.0833267
-0.0841615
-0.0848057
-0.0852516
-0.0854935
-0.0855277
-0.0853525
-0.0849682
-0.0843774
-0.0835845
-0.0825957
-0.081419
-0.0800642
-0.0785429
-0.0768682
-0.0730678
-0.0709795
-0.0688128
-0.0688128
-0.0669093
-0.0649092
-0.0628328
-0.0607018
-0.0585392
-0.0563692
-0.0542162
-0.0521053
-0.0500606
-0.0481056
-0.0462617
-0.0445477
-0.0429792
-0.0415675
-0.0403192
-0.0392352
-0.0383107
-0.0375347
-0.0368904
-0.0363558
-0.0359057
-0.0355137
-0.0351557
-0.0348126
-0.0344763
-0.0341518
-0.0338608
-0.033649
-0.0335561
)
;
    }
    procBoundary4to6
    {
        type            processor;
        value           nonuniform List<scalar> 
30
(
-0.0804974
-0.0785918
-0.0766125
-0.0745778
-0.0725048
-0.0704091
-0.0683031
-0.0661957
-0.0640904
-0.0619843
-0.0598669
-0.0577192
-0.0555134
-0.0532128
-0.0507744
-0.0481523
-0.0453053
-0.0422088
-0.0388703
-0.0353471
-0.0317603
-0.0282959
-0.0251841
-0.0226524
-0.0208622
-0.0198545
-0.0195317
-0.0196933
-0.0201575
-0.0208705
)
;
    }
}


// ************************************************************************* //
