/*--------------------------------*- C++ -*----------------------------------*\
  =========                 |
  \\      /  F ield         | OpenFOAM: The Open Source CFD Toolbox
   \\    /   O peration     | Website:  https://openfoam.org
    \\  /    A nd           | Version:  9
     \\/     M anipulation  |
\*---------------------------------------------------------------------------*/
FoamFile
{
    format      ascii;
    class       surfaceScalarField;
    location    "1";
    object      phi;
}
// * * * * * * * * * * * * * * * * * * * * * * * * * * * * * * * * * * * * * //

dimensions      [0 3 -1 0 0 0 0];

internalField   nonuniform List<scalar> 
2445
(
-9.18846e-07
-1.7133e-06
-9.18642e-07
-1.8282e-06
-9.17106e-07
-1.93612e-06
-9.14496e-07
-2.03682e-06
-9.11238e-07
-2.13033e-06
-9.07969e-07
-2.21716e-06
-9.05581e-07
-2.29839e-06
-9.05243e-07
-2.37593e-06
-9.08398e-07
-2.45265e-06
-9.16705e-07
-2.5326e-06
-9.31898e-07
-2.62101e-06
-9.55548e-07
-2.72421e-06
-9.88717e-07
-2.84913e-06
-1.0315e-06
-3.00254e-06
-1.08255e-06
-3.18965e-06
-1.13857e-06
-3.41247e-06
-1.19401e-06
-3.66764e-06
-1.24101e-06
-3.94429e-06
-1.26975e-06
-4.22226e-06
-1.26951e-06
-4.47119e-06
-1.23026e-06
-4.65143e-06
-1.1451e-06
-4.71779e-06
-1.01284e-06
-4.6267e-06
-8.40265e-07
-4.34698e-06
-6.42668e-07
-3.87185e-06
-4.4169e-07
-3.22742e-06
-2.60645e-07
-2.47144e-06
-1.19247e-07
-1.67991e-06
-3.03527e-08
-9.27077e-07
-2.68322e-07
-8.03324e-07
-1.70864e-06
-8.0664e-07
-1.82489e-06
-8.08673e-07
-1.93409e-06
-8.09593e-07
-2.0359e-06
-8.09714e-07
-2.13021e-06
-8.09539e-07
-2.21733e-06
-8.09809e-07
-2.29812e-06
-8.11541e-07
-2.3742e-06
-8.16039e-07
-2.44815e-06
-8.24873e-07
-2.52376e-06
-8.39773e-07
-2.60611e-06
-8.62432e-07
-2.70155e-06
-8.94195e-07
-2.81737e-06
-9.35626e-07
-2.9611e-06
-9.86004e-07
-3.13928e-06
-1.0428e-06
-3.35568e-06
-1.10125e-06
-3.60918e-06
-1.15418e-06
-3.89136e-06
-1.1922e-06
-4.18425e-06
-1.2045e-06
-4.45888e-06
-1.18041e-06
-4.67552e-06
-1.11164e-06
-4.78656e-06
-9.95087e-07
-4.74325e-06
-8.35464e-07
-4.5066e-06
-6.46452e-07
-4.06086e-06
-4.49186e-07
-3.42469e-06
-2.67781e-07
-2.65284e-06
-1.23702e-07
-1.82399e-06
-3.18299e-08
-1.01895e-06
-3.00152e-07
-6.84398e-07
-1.70053e-06
-6.91347e-07
-1.81794e-06
-6.9713e-07
-1.92831e-06
-7.01839e-07
-2.03119e-06
-7.0569e-07
-2.12636e-06
-7.09067e-07
-2.21396e-06
-7.12566e-07
-2.29462e-06
-7.17048e-07
-2.36972e-06
-7.23665e-07
-2.44154e-06
-7.3386e-07
-2.51357e-06
-7.49301e-07
-2.59067e-06
-7.7173e-07
-2.67912e-06
-8.02684e-07
-2.78642e-06
-8.431e-07
-2.92069e-06
-8.92808e-07
-3.08957e-06
-9.49984e-07
-3.2985e-06
-1.01065e-06
-3.54852e-06
-1.06836e-06
-3.83365e-06
-1.11426e-06
-4.13835e-06
-1.13768e-06
-4.43546e-06
-1.12749e-06
-4.68572e-06
-1.07425e-06
-4.8398e-06
-9.73121e-07
-4.84438e-06
-8.26743e-07
-4.65298e-06
-6.47071e-07
-4.24053e-06
-4.54486e-07
-3.61727e-06
-2.73653e-07
-2.83368e-06
-1.27604e-07
-1.97004e-06
-3.31765e-08
-1.11338e-06
-3.33328e-07
-5.62497e-07
-1.68893e-06
-5.73141e-07
-1.80729e-06
-5.82787e-07
-1.91866e-06
-5.91465e-07
-2.02251e-06
-5.99309e-07
-2.11851e-06
-6.06594e-07
-2.20667e-06
-6.13788e-07
-2.28743e-06
-6.21596e-07
-2.36191e-06
-6.3101e-07
-2.43212e-06
-6.43326e-07
-2.50125e-06
-6.60108e-07
-2.57389e-06
-6.83082e-07
-2.65615e-06
-7.13895e-07
-2.7556e-06
-7.53765e-07
-2.88082e-06
-8.02988e-07
-3.04034e-06
-8.60376e-07
-3.24111e-06
-9.22699e-07
-3.48619e-06
-9.84275e-07
-3.77208e-06
-1.03686e-06
-4.08576e-06
-1.07008e-06
-4.40224e-06
-1.07255e-06
-4.68325e-06
-1.03392e-06
-4.87843e-06
-9.47741e-07
-4.93056e-06
-8.14689e-07
-4.78603e-06
-6.44894e-07
-4.41033e-06
-4.57778e-07
-3.80439e-06
-2.78326e-07
-3.01313e-06
-1.30964e-07
-2.1174e-06
-3.43874e-08
-1.20995e-06
-3.67716e-07
-4.38096e-07
-1.67386e-06
-4.52452e-07
-1.79294e-06
-4.6602e-07
-1.90509e-06
-4.78783e-07
-2.00975e-06
-4.90803e-07
-2.10649e-06
-5.02266e-07
-2.19521e-06
-5.13518e-07
-2.27618e-06
-5.25122e-07
-2.3503e-06
-5.37912e-07
-2.41933e-06
-5.5302e-07
-2.48615e-06
-5.7188e-07
-2.55503e-06
-5.96144e-07
-2.63188e-06
-6.27506e-07
-2.72424e-06
-6.67375e-07
-2.84095e-06
-7.16425e-07
-2.99129e-06
-7.74028e-07
-3.18351e-06
-8.37658e-07
-3.42256e-06
-9.02392e-07
-3.70734e-06
-9.60667e-07
-4.02748e-06
-1.00251e-06
-4.3604e-06
-1.01647e-06
-4.66929e-06
-9.91481e-07
-4.90342e-06
-9.19699e-07
-5.00234e-06
-7.99891e-07
-4.90584e-06
-6.40322e-07
-4.5699e-06
-4.59292e-07
-3.98542e-06
-2.81898e-07
-3.19052e-06
-1.33804e-07
-2.2655e-06
-3.54624e-08
-1.30829e-06
-4.03178e-07
-3.11684e-07
-1.65537e-06
-3.29737e-07
-1.77489e-06
-3.47248e-07
-1.88758e-06
-3.64159e-07
-1.99283e-06
-3.80478e-07
-2.09017e-06
-3.9631e-07
-2.17938e-06
-4.11899e-07
-2.26059e-06
-4.27677e-07
-2.33453e-06
-4.44322e-07
-2.40269e-06
-4.62803e-07
-2.46766e-06
-4.84399e-07
-2.53343e-06
-5.10654e-07
-2.60563e-06
-5.43243e-07
-2.69165e-06
-5.83695e-07
-2.8005e-06
-6.32975e-07
-2.94201e-06
-6.90934e-07
-3.12555e-06
-7.55693e-07
-3.35781e-06
-8.23067e-07
-3.63997e-06
-8.86206e-07
-3.96435e-06
-9.35638e-07
-4.31097e-06
-9.60007e-07
-4.64492e-06
-9.47726e-07
-4.9157e-06
-8.89715e-07
-5.06035e-06
-7.82945e-07
-5.01261e-06
-6.33792e-07
-4.71905e-06
-4.59299e-07
-4.15991e-06
-2.84506e-07
-3.36532e-06
-1.3617e-07
-2.41383e-06
-3.64067e-08
-1.40806e-06
-4.39585e-07
-1.8375e-07
-1.6335e-06
-2.05466e-07
-1.75317e-06
-2.26909e-07
-1.86614e-06
-2.47994e-07
-1.97175e-06
-2.68684e-07
-2.06948e-06
-2.89018e-07
-2.15904e-06
-3.09151e-07
-2.24046e-06
-3.29395e-07
-2.31428e-06
-3.50286e-07
-2.3818e-06
-3.72628e-07
-2.44532e-06
-3.97535e-07
-2.50853e-06
-4.26416e-07
-2.57674e-06
-4.6088e-07
-2.65719e-06
-5.02506e-07
-2.75887e-06
-5.52472e-07
-2.89205e-06
-6.11028e-07
-3.06699e-06
-6.76874e-07
-3.29196e-06
-7.46532e-07
-3.57031e-06
-8.13877e-07
-3.897e-06
-8.70017e-07
-4.25483e-06
-9.03816e-07
-4.61112e-06
-9.03339e-07
-4.91617e-06
-8.58445e-07
-5.10524e-06
-7.64421e-07
-5.10663e-06
-6.25749e-07
-4.85772e-06
-4.58101e-07
-4.32756e-06
-2.86312e-07
-3.53711e-06
-1.38125e-07
-2.56202e-06
-3.72311e-08
-1.50895e-06
-4.76816e-07
-5.47741e-08
-1.60832e-06
-8.01007e-08
-1.72784e-06
-1.05448e-07
-1.84079e-06
-1.30706e-07
-1.94649e-06
-1.55803e-07
-2.04439e-06
-1.80725e-07
-2.13412e-06
-2.05548e-07
-2.21563e-06
-2.30481e-07
-2.28935e-06
-2.55925e-07
-2.35635e-06
-2.8253e-07
-2.41872e-06
-3.11239e-07
-2.47982e-06
-3.43309e-07
-2.54467e-06
-3.80244e-07
-2.62026e-06
-4.23617e-07
-2.7155e-06
-4.74748e-07
-2.84092e-06
-5.34207e-07
-3.00753e-06
-6.01205e-07
-3.22496e-06
-6.72926e-07
-3.49859e-06
-7.43967e-07
-3.82596e-06
-8.06067e-07
-4.19273e-06
-8.48425e-07
-4.56876e-06
-8.58908e-07
-4.90569e-06
-8.26481e-07
-5.13767e-06
-7.44856e-07
-5.18826e-06
-6.16633e-07
-4.98595e-06
-4.56015e-07
-4.48818e-06
-2.87505e-07
-3.70562e-06
-1.39746e-07
-2.70978e-06
-3.79517e-08
-1.61075e-06
-5.14768e-07
7.47801e-08
-1.57991e-06
4.59025e-08
-1.69897e-06
1.66975e-08
-1.81159e-06
-1.2714e-08
-1.91708e-06
-4.22311e-08
-2.01487e-06
-7.17912e-08
-2.10456e-06
-1.01407e-07
-2.18602e-06
-1.31187e-07
-2.25957e-06
-1.61423e-07
-2.32612e-06
-1.92612e-07
-2.38753e-06
-2.25534e-07
-2.44689e-06
-2.61278e-07
-2.50893e-06
-3.01218e-07
-2.58032e-06
-3.46877e-07
-2.66984e-06
-3.99649e-07
-2.78815e-06
-4.60355e-07
-2.94683e-06
-5.28644e-07
-3.15667e-06
-6.02313e-07
-3.42492e-06
-6.76664e-07
-3.75161e-06
-7.44105e-07
-4.12528e-06
-7.94255e-07
-4.51861e-06
-8.14925e-07
-4.88502e-06
-7.94336e-07
-5.15826e-06
-7.2474e-07
-5.25785e-06
-6.06867e-07
-5.10382e-06
-4.53364e-07
-4.64168e-06
-2.88288e-07
-3.87069e-06
-1.41128e-07
-2.85694e-06
-3.85896e-08
-1.71328e-06
-5.53357e-07
2.04471e-07
-1.54832e-06
1.72099e-07
-1.66659e-06
1.39077e-07
-1.77856e-06
1.05543e-07
-1.88355e-06
7.16206e-08
-1.98095e-06
3.74085e-08
-2.07035e-06
2.95753e-09
-2.15157e-06
-3.18019e-08
-2.22481e-06
-6.70103e-08
-2.29091e-06
-1.03036e-07
-2.3515e-06
-1.40501e-07
-2.40943e-06
-1.80327e-07
-2.4691e-06
-2.23738e-07
-2.5369e-06
-2.72169e-07
-2.62141e-06
-3.27038e-07
-2.73328e-06
-3.89348e-07
-2.88452e-06
-4.59118e-07
-3.0869e-06
-5.347e-07
-3.34934e-06
-6.1208e-07
-3.67423e-06
-6.84351e-07
-4.05301e-06
-7.41629e-07
-4.46133e-06
-7.71788e-07
-4.85486e-06
-7.62449e-07
-5.1676e-06
-7.04508e-07
-5.31579e-06
-5.96848e-07
-5.21148e-06
-4.50472e-07
-4.78806e-06
-2.88879e-07
-4.03229e-06
-1.42375e-07
-3.00345e-06
-3.91708e-08
-1.81649e-06
-5.92528e-07
3.33877e-07
-1.51363e-06
2.98068e-07
-1.63079e-06
2.61281e-07
-1.74178e-06
2.2366e-07
-1.84592e-06
1.85347e-07
-1.94264e-06
1.4647e-07
-2.03147e-06
1.0712e-07
-2.11222e-06
6.73421e-08
-2.18503e-06
2.70464e-08
-2.25061e-06
-1.40022e-08
-2.31045e-06
-5.62695e-08
-2.36716e-06
-1.00509e-07
-2.42486e-06
-1.47785e-07
-2.48963e-06
-1.99418e-07
-2.56978e-06
-2.56802e-07
-2.67589e-06
-3.21065e-07
-2.82026e-06
-3.92531e-07
-3.01544e-06
-4.70051e-07
-3.27182e-06
-5.50259e-07
-3.59402e-06
-6.26944e-07
-3.97633e-06
-6.90778e-07
-4.3975e-06
-7.29806e-07
-4.81583e-06
-7.31176e-07
-5.16623e-06
-6.84537e-07
-5.36243e-06
-5.86938e-07
-5.30908e-06
-4.47649e-07
-4.92734e-06
-2.89501e-07
-4.19043e-06
-1.43602e-07
-3.14934e-06
-3.97255e-08
-1.92036e-06
-6.32254e-07
4.6259e-07
-1.47589e-06
4.23397e-07
-1.59159e-06
3.8289e-07
-1.70127e-06
3.4122e-07
-1.80425e-06
2.98545e-07
-1.89996e-06
2.5502e-07
-1.98795e-06
2.10781e-07
-2.06798e-06
1.65925e-07
-2.14017e-06
1.20458e-07
-2.20515e-06
7.42557e-08
-2.26425e-06
2.69936e-08
-2.3199e-06
-2.19191e-08
-2.37595e-06
-7.33795e-08
-2.43817e-06
-1.28579e-07
-2.51458e-06
-1.88851e-07
-2.61562e-06
-2.55391e-07
-2.75372e-06
-3.28774e-07
-2.94205e-06
-4.08291e-07
-3.1923e-06
-4.91191e-07
-3.51112e-06
-5.71953e-07
-3.89557e-06
-6.41853e-07
-4.3276e-06
-6.89202e-07
-4.76849e-06
-7.00797e-07
-5.15463e-06
-6.65139e-07
-5.39809e-06
-5.77457e-07
-5.39676e-06
-4.45191e-07
-5.05961e-06
-2.90379e-07
-4.34525e-06
-1.44932e-07
-3.29479e-06
-4.02882e-08
-2.02501e-06
-6.72542e-07
5.90212e-07
-1.43515e-06
5.47679e-07
-1.54906e-06
5.03493e-07
-1.65708e-06
4.57813e-07
-1.75857e-06
4.10809e-07
-1.85296e-06
3.6266e-07
-1.9398e-06
3.13541e-07
-2.01886e-06
2.63599e-07
-2.09023e-06
2.12921e-07
-2.15447e-06
1.61484e-07
-2.21282e-06
1.09095e-07
-2.26751e-06
5.53162e-08
-2.32217e-06
-5.88968e-10
-2.38226e-06
-5.96405e-08
-2.45552e-06
-1.23111e-07
-2.55215e-06
-1.9222e-07
-2.68461e-06
-2.67731e-07
-2.86654e-06
-3.49323e-07
-3.11071e-06
-4.34818e-07
-3.42563e-06
-5.19381e-07
-3.811e-06
-5.94927e-07
-4.25205e-06
-6.50117e-07
-4.7133e-06
-6.71512e-07
-5.13324e-06
-6.46558e-07
-5.42304e-06
-5.68677e-07
-5.47464e-06
-4.43371e-07
-5.18492e-06
-2.91738e-07
-4.49688e-06
-1.46494e-07
-3.44003e-06
-4.08967e-08
-2.13061e-06
-7.13439e-07
7.16347e-07
-1.39144e-06
6.70511e-07
-1.50322e-06
6.22685e-07
-1.60926e-06
5.73031e-07
-1.70892e-06
5.21735e-07
-1.80166e-06
4.68997e-07
-1.88706e-06
4.15024e-07
-1.96489e-06
3.60014e-07
-2.03522e-06
3.0412e-07
-2.09857e-06
2.47415e-07
-2.15611e-06
1.89825e-07
-2.20992e-06
1.31058e-07
-2.26341e-06
7.05465e-08
-2.32175e-06
7.39514e-09
-2.39237e-06
-5.95228e-08
-2.48523e-06
-1.31449e-07
-2.61268e-06
-2.09276e-07
-2.78872e-06
-2.93022e-07
-3.02696e-06
-3.81043e-07
-3.33761e-06
-4.69176e-07
-3.72287e-06
-5.50006e-07
-4.17122e-06
-6.12617e-07
-4.65068e-06
-6.43443e-07
-5.10241e-06
-6.28969e-07
-5.43752e-06
-5.60819e-07
-5.54279e-06
-4.42433e-07
-5.3033e-06
-2.93795e-07
-4.64552e-06
-1.48424e-07
-3.58541e-06
-4.15925e-08
-2.23744e-06
-7.55031e-07
8.40597e-07
7.91486e-07
7.40053e-07
6.86465e-07
-1.65533e-06
6.30918e-07
-1.74611e-06
5.73636e-07
-1.82978e-06
5.14856e-07
-1.90611e-06
4.54818e-07
-1.97518e-06
3.9374e-07
-2.0375e-06
3.31776e-07
-2.09415e-06
2.68962e-07
-2.14711e-06
2.05145e-07
-2.19959e-06
1.39907e-07
-2.25651e-06
7.25121e-08
-2.32498e-06
1.92548e-09
-2.41465e-06
-7.2983e-08
-2.53777e-06
-1.53273e-07
-2.70843e-06
-2.39241e-07
-2.94099e-06
-3.29731e-07
-3.24712e-06
-4.21235e-07
-3.63137e-06
-5.0703e-07
-4.08543e-06
-5.76694e-07
-4.58102e-06
-6.16636e-07
-5.06247e-06
-6.12475e-07
-5.44168e-06
-5.54044e-07
-5.60123e-06
-4.42585e-07
-5.41476e-06
-2.96761e-07
-4.79134e-06
-1.50858e-07
-3.73131e-06
-4.24201e-08
-2.34587e-06
-7.97451e-07
7.97696e-07
-1.59785e-06
7.37951e-07
-1.68637e-06
6.76184e-07
-1.76801e-06
6.12662e-07
-1.84258e-06
5.47665e-07
-1.91018e-06
4.81465e-07
-1.9713e-06
4.14295e-07
-2.02698e-06
3.4629e-07
-2.0791e-06
2.77421e-07
-2.13072e-06
2.07416e-07
-2.18651e-06
1.35697e-07
-2.25326e-06
6.13721e-08
-2.34032e-06
-1.67005e-08
-2.4597e-06
-9.95737e-08
-2.62555e-06
-1.87811e-07
-2.85276e-06
-2.80713e-07
-3.15421e-06
-3.75407e-07
-3.53667e-06
-4.65878e-07
-3.99496e-06
-5.42267e-07
-4.50463e-06
-5.91059e-07
-5.01368e-06
-5.97103e-07
-5.43563e-06
-5.48452e-07
-5.64988e-06
-4.43999e-07
-5.51921e-06
-3.00831e-07
-4.93451e-06
-1.53938e-07
-3.8782e-06
-4.34272e-08
-2.45638e-06
-8.40878e-07
9.06298e-07
-1.53653e-06
8.42421e-07
-1.62249e-06
7.76248e-07
-1.70184e-06
7.08072e-07
-1.77441e-06
6.38212e-07
-1.84032e-06
5.66992e-07
-1.90008e-06
4.94712e-07
-1.9547e-06
4.21598e-07
-2.00599e-06
3.47734e-07
-2.05686e-06
2.72987e-07
-2.11176e-06
1.96924e-07
-2.1772e-06
1.1878e-07
-2.26218e-06
3.7506e-08
-2.37843e-06
-4.80065e-08
-2.54004e-06
-1.38539e-07
-2.76222e-06
-2.33784e-07
-3.05897e-06
-3.31491e-07
-3.43897e-06
-4.2637e-07
-3.90008e-06
-5.09186e-07
-4.42182e-06
-5.66603e-07
-4.95626e-06
-5.82803e-07
-5.41943e-06
-5.44072e-07
-5.68861e-06
-4.46796e-07
-5.61649e-06
-3.06183e-07
-5.07512e-06
-1.57805e-07
-4.02658e-06
-4.46644e-08
-2.56953e-06
-8.85543e-07
1.01184e-06
-1.47144e-06
9.43915e-07
-1.55457e-06
8.73437e-07
-1.63136e-06
8.00725e-07
-1.7017e-06
7.26134e-07
-1.76573e-06
6.50033e-07
-1.82398e-06
5.72785e-07
-1.87745e-06
4.94697e-07
-1.9279e-06
4.15957e-07
-1.97812e-06
3.36558e-07
-2.03236e-06
2.56205e-07
-2.09684e-06
1.74263e-07
-2.18023e-06
8.97617e-08
-2.29392e-06
1.55948e-09
-2.45184e-06
-9.12042e-08
-2.66946e-06
-1.88695e-07
-2.96148e-06
-2.89237e-07
-3.33842e-06
-3.88267e-07
-3.80105e-06
-4.7723e-07
-4.33285e-06
-5.4308e-07
-4.89041e-06
-5.6944e-07
-5.39307e-06
-5.40859e-07
-5.71719e-06
-4.51045e-07
-5.7063e-06
-3.12974e-07
-5.21319e-06
-1.62604e-07
-4.17695e-06
-4.61856e-08
-2.68594e-06
-9.31728e-07
1.11388e-06
-1.40266e-06
1.04202e-06
-1.4827e-06
9.67369e-07
-1.55671e-06
8.90274e-07
-1.6246e-06
8.11121e-07
-1.68658e-06
7.30324e-07
-1.74318e-06
6.483e-07
-1.79542e-06
5.65428e-07
-1.84503e-06
4.81993e-07
-1.89468e-06
3.98098e-07
-1.94847e-06
3.13579e-07
-2.01233e-06
2.27928e-07
-2.09458e-06
1.40271e-07
-2.20627e-06
4.94928e-08
-2.36106e-06
-4.55067e-08
-2.57446e-06
-1.45155e-07
-2.86183e-06
-2.48344e-07
-3.23523e-06
-3.51267e-07
-3.69813e-06
-4.46109e-07
-4.23801e-06
-5.2022e-07
-4.8163e-06
-5.56794e-07
-5.3565e-06
-5.38685e-07
-5.7353e-06
-4.56752e-07
-5.78824e-06
-3.21332e-07
-5.34861e-06
-1.68476e-07
-4.32981e-06
-4.80481e-08
-2.80637e-06
-9.79777e-07
1.21198e-06
-1.33033e-06
1.13633e-06
-1.40705e-06
1.05768e-06
-1.47806e-06
9.76396e-07
-1.54332e-06
8.92899e-07
-1.60308e-06
8.07639e-07
-1.65792e-06
7.21084e-07
-1.70887e-06
6.33679e-07
-1.75762e-06
5.45789e-07
-1.80679e-06
4.57622e-07
-1.8603e-06
3.69131e-07
-1.92384e-06
2.79926e-07
-2.00538e-06
1.89226e-07
-2.11557e-06
9.59165e-08
-2.26775e-06
-1.20704e-09
-2.47734e-06
-1.02829e-07
-2.76021e-06
-2.08455e-07
-3.12961e-06
-3.15004e-07
-3.59158e-06
-4.15454e-07
-4.13756e-06
-4.97669e-07
-4.73409e-06
-5.4455e-07
-5.30962e-06
-5.37327e-07
-5.74252e-06
-4.63848e-07
-5.86171e-06
-3.31349e-07
-5.48111e-06
-1.75563e-07
-4.48559e-06
-5.03125e-08
-2.93162e-06
-1.03009e-06
1.3057e-06
-1.2546e-06
1.22645e-06
-1.32781e-06
1.14402e-06
-1.39563e-06
1.0588e-06
-1.4581e-06
9.71231e-07
-1.51551e-06
8.818e-07
-1.56849e-06
7.91021e-07
-1.61809e-06
6.99395e-07
-1.666e-06
6.0736e-07
-1.71476e-06
5.15212e-07
-1.76815e-06
4.23012e-07
-1.83164e-06
3.30477e-07
-1.91284e-06
2.36917e-07
-2.02201e-06
1.41249e-07
-2.17208e-06
4.21977e-08
-2.37829e-06
-6.12866e-08
-2.65672e-06
-1.69139e-07
-3.02176e-06
-2.7904e-07
-3.48168e-06
-3.84822e-07
-4.03178e-06
-4.74981e-07
-4.64393e-06
-5.32296e-07
-5.2523e-06
-5.36463e-07
-5.73835e-06
-4.7218e-07
-5.926e-06
-3.43071e-07
-5.61022e-06
-1.84e-07
-4.64466e-06
-5.30428e-08
-3.06258e-06
-1.08313e-06
1.39463e-06
-1.17571e-06
1.31204e-06
-1.24522e-06
1.22611e-06
-1.3097e-06
1.13725e-06
-1.36924e-06
1.04594e-06
-1.4242e-06
9.52699e-07
-1.47524e-06
8.58068e-07
-1.52346e-06
7.62602e-07
-1.57053e-06
6.66799e-07
-1.61895e-06
5.71034e-07
-1.67239e-06
4.75456e-07
-1.73606e-06
3.79882e-07
-1.81727e-06
2.83707e-07
-1.92583e-06
1.8588e-07
-2.07426e-06
8.50487e-08
-2.27745e-06
-2.00663e-08
-2.55161e-06
-1.29899e-07
-2.91192e-06
-2.4286e-07
-3.36872e-06
-3.53681e-07
-3.92096e-06
-4.51619e-07
-4.54599e-06
-5.1951e-07
-5.18441e-06
-5.35659e-07
-5.7222e-06
-4.81496e-07
-5.98016e-06
-3.56488e-07
-5.73523e-06
-1.93918e-07
-4.80723e-06
-5.63075e-08
-3.20019e-06
-1.13944e-06
1.4784e-06
-1.09393e-06
1.39278e-06
-1.15961e-06
1.3037e-06
-1.22062e-06
1.21159e-06
-1.27713e-06
1.11695e-06
-1.32956e-06
1.02032e-06
-1.37861e-06
9.22282e-07
-1.42542e-06
8.2343e-07
-1.47168e-06
7.24312e-07
-1.51984e-06
6.25363e-07
-1.57344e-06
5.26811e-07
-1.6375e-06
4.28556e-07
-1.71901e-06
3.30069e-07
-1.82734e-06
2.30338e-07
-1.97453e-06
1.27953e-07
-2.17507e-06
2.14238e-08
-2.44508e-06
-9.01343e-08
-2.80037e-06
-2.05854e-07
-3.25299e-06
-3.21405e-07
-3.80541e-06
-4.26938e-07
-4.44046e-06
-5.05554e-07
-5.1058e-06
-5.34353e-07
-5.6934e-06
-4.91428e-07
-6.02309e-06
-3.71519e-07
-5.85514e-06
-2.05433e-07
-4.97332e-06
-6.01796e-08
-3.34544e-06
-1.19962e-06
1.55672e-06
-1.00963e-06
1.46847e-06
-1.07136e-06
1.37667e-06
-1.12881e-06
1.28176e-06
-1.18223e-06
1.18427e-06
-1.23207e-06
1.08476e-06
-1.27911e-06
9.83847e-07
-1.32451e-06
8.82144e-07
-1.36998e-06
7.8024e-07
-1.41793e-06
6.78618e-07
-1.47181e-06
5.77565e-07
-1.53645e-06
4.77052e-07
-1.6185e-06
3.76615e-07
-1.72691e-06
2.75279e-07
-1.87319e-06
1.71595e-07
-2.07138e-06
6.38907e-08
-2.33738e-06
-4.91313e-08
-2.68734e-06
-1.67302e-07
-3.13482e-06
-2.87259e-07
-3.68545e-06
-4.0018e-07
-4.32754e-06
-4.89666e-07
-5.01631e-06
-5.31848e-07
-5.65122e-06
-5.0148e-07
-6.05345e-06
-3.87995e-07
-5.96862e-06
-2.1865e-07
-5.14267e-06
-6.47398e-08
-3.49935e-06
-1.26436e-06
1.6294e-06
-9.23251e-07
1.539e-06
-9.80959e-07
1.44499e-06
-1.0348e-06
1.34783e-06
-1.08507e-06
1.24807e-06
-1.1323e-06
1.14629e-06
-1.17732e-06
1.04311e-06
-1.22133e-06
9.3918e-07
-1.26604e-06
8.35102e-07
-1.31385e-06
7.31394e-07
-1.36811e-06
6.28386e-07
-1.43344e-06
5.26101e-07
-1.51622e-06
4.24129e-07
-1.62494e-06
3.2153e-07
-1.77059e-06
2.16826e-07
-1.96668e-06
1.08192e-07
-2.22874e-06
-6.03582e-09
-2.57312e-06
-1.26346e-07
-3.01451e-06
-2.50378e-07
-3.56142e-06
-3.70457e-07
-4.20746e-06
-4.70939e-07
-4.91583e-06
-5.2729e-07
-5.59487e-06
-5.11002e-07
-6.06974e-06
-4.05644e-07
-6.07398e-06
-2.33649e-07
-5.31466e-06
-7.00806e-08
-3.66292e-06
-1.33444e-06
1.69643e-06
-8.35332e-07
1.60445e-06
-8.88982e-07
1.50884e-06
-9.39191e-07
1.41009e-06
-9.86316e-07
1.30873e-06
-1.03095e-06
1.20537e-06
-1.07396e-06
1.10064e-06
-1.1166e-06
9.95193e-07
-1.16059e-06
8.89639e-07
-1.2083e-06
7.84514e-07
-1.26298e-06
6.80168e-07
-1.3291e-06
5.7666e-07
-1.41271e-06
4.73619e-07
-1.5219e-06
3.70133e-07
-1.66711e-06
2.64708e-07
-1.86126e-06
1.55396e-07
-2.11943e-06
4.02145e-08
-2.45793e-06
-8.19554e-08
-2.89234e-06
-2.09738e-07
-3.43363e-06
-3.36726e-07
-4.08047e-06
-4.4831e-07
-4.80425e-06
-5.19657e-07
-5.52352e-06
-5.19174e-07
-6.07022e-06
-4.24065e-07
-6.16909e-06
-2.50485e-07
-5.48824e-06
-7.63151e-08
-3.83709e-06
-1.41075e-06
1.75799e-06
-7.46512e-07
1.66512e-06
-7.9611e-07
1.56864e-06
-8.42706e-07
1.46904e-06
-8.86715e-07
1.36687e-06
-9.28783e-07
1.26274e-06
-9.69834e-07
1.15728e-06
-1.01114e-06
1.05112e-06
-1.05443e-06
9.44879e-07
-1.10206e-06
8.39085e-07
-1.15719e-06
7.34091e-07
-1.2241e-06
6.29969e-07
-1.30859e-06
5.26371e-07
-1.4183e-06
4.22406e-07
-1.56314e-06
3.16568e-07
-1.75542e-06
2.06815e-07
-2.00968e-06
9.08933e-08
-2.34201e-06
-3.28825e-08
-2.76857e-06
-1.64117e-07
-3.3024e-06
-2.97764e-07
-3.94682e-06
-4.20533e-07
-4.68148e-06
-5.07729e-07
-5.43633e-06
-5.24979e-07
-6.05297e-06
-4.42708e-07
-6.25136e-06
-2.69176e-07
-5.66177e-06
-8.35924e-08
-4.02268e-06
-1.49435e-06
1.8146e-06
-6.57545e-07
1.72163e-06
-7.03141e-07
1.62511e-06
-7.46184e-07
1.52554e-06
-7.87142e-07
1.42347e-06
-8.2671e-07
1.31948e-06
-8.6585e-07
1.2142e-06
-9.05861e-07
1.10825e-06
-9.4848e-07
1.0022e-06
-9.96017e-07
8.96573e-07
-1.05156e-06
7.91692e-07
-1.11922e-06
6.87624e-07
-1.20452e-06
5.84025e-07
-1.3147e-06
4.80013e-07
-1.45913e-06
3.74075e-07
-1.64948e-06
2.64097e-07
-1.8997e-06
1.47604e-07
-2.22552e-06
2.24084e-08
-2.64337e-06
-1.12035e-07
-3.16796e-06
-2.52114e-07
-3.80674e-06
-3.8614e-07
-4.54745e-06
-4.90062e-07
-5.33241e-06
-5.27171e-07
-6.01587e-06
-4.6084e-07
-6.31769e-06
-2.89697e-07
-5.83292e-06
-9.21204e-08
-4.22025e-06
-1.58647e-06
1.86718e-06
-5.69308e-07
1.77503e-06
-6.10999e-07
1.67944e-06
-6.50591e-07
1.5809e-06
-6.88597e-07
1.47994e-06
-7.25751e-07
1.37714e-06
-7.63046e-07
1.27307e-06
-8.01799e-07
1.16833e-06
-8.43738e-07
1.06346e-06
-8.9114e-07
9.589e-07
-9.47001e-07
8.54961e-07
-1.01528e-06
7.51669e-07
-1.10123e-06
6.48664e-07
-1.21169e-06
5.45058e-07
-1.35552e-06
4.3933e-07
-1.54375e-06
3.29311e-07
-1.78968e-06
2.1235e-07
-2.10856e-06
8.58282e-08
-2.51685e-06
-5.16762e-08
-3.03045e-06
-1.98022e-07
-3.6604e-06
-3.43393e-07
-4.40208e-06
-4.64943e-07
-5.21086e-06
-5.24234e-07
-5.95657e-06
-4.77508e-07
-6.36442e-06
-3.11954e-07
-5.99847e-06
-1.02197e-07
-4.43001e-06
-1.68866e-06
1.91721e-06
-4.82816e-07
1.82696e-06
-5.20747e-07
1.73339e-06
-5.57028e-07
1.637e-06
-5.92209e-07
1.53831e-06
-6.27055e-07
1.43784e-06
-6.62575e-07
1.33613e-06
-7.00091e-07
1.23371e-06
-7.41319e-07
1.13106e-06
-7.8849e-07
1.02857e-06
-8.44508e-07
9.2646e-07
-9.13178e-07
8.24718e-07
-9.99484e-07
7.22937e-07
-1.10991e-06
6.20205e-07
-1.25279e-06
5.14985e-07
-1.43853e-06
4.05062e-07
-1.67976e-06
2.87653e-07
-1.99115e-06
1.59777e-07
-2.38898e-06
1.92219e-08
-2.8899e-06
-1.33346e-07
-3.50783e-06
-2.90202e-07
-4.24522e-06
-4.30324e-07
-5.07073e-06
-5.14321e-07
-5.87258e-06
-4.91482e-07
-6.38726e-06
-3.35761e-07
-6.15419e-06
-1.14248e-07
-4.65152e-06
-1.80291e-06
1.96699e-06
-3.99225e-07
1.87982e-06
-4.33583e-07
1.78952e-06
-4.66729e-07
1.69655e-06
-4.99235e-07
1.60138e-06
-5.31884e-07
1.5045e-06
-5.65692e-07
1.40638e-06
-6.01973e-07
1.30748e-06
-6.42417e-07
1.20818e-06
-6.89199e-07
1.1088e-06
-7.45128e-07
1.00948e-06
-8.13852e-07
9.10099e-07
-9.00104e-07
8.102e-07
-1.01001e-06
7.08821e-07
-1.15141e-06
6.04389e-07
-1.3341e-06
4.94649e-07
-1.57002e-06
3.76708e-07
-1.87321e-06
2.47293e-07
-2.25956e-06
1.03493e-07
-2.7461e-06
-5.54181e-08
-3.34892e-06
-2.24021e-07
-4.07662e-06
-3.83723e-07
-4.91103e-06
-4.95166e-07
-5.76113e-06
-5.01171e-07
-6.38125e-06
-3.60766e-07
-6.2946e-06
-1.28846e-07
-4.88344e-06
-1.93176e-06
2.01989e-06
-3.19835e-07
1.93715e-06
-3.50844e-07
1.85147e-06
-3.81051e-07
1.76328e-06
-4.11043e-07
1.673e-06
-4.41604e-07
1.58105e-06
-4.73743e-07
1.48783e-06
-5.08755e-07
1.39371e-06
-5.48289e-07
1.29896e-06
-5.94454e-07
1.20379e-06
-6.49959e-07
1.10823e-06
-7.18286e-07
1.01205e-06
-8.03931e-07
9.1471e-07
-9.1267e-07
8.15161e-07
-1.05186e-06
7.11776e-07
-1.23072e-06
6.02244e-07
-1.46049e-06
4.83572e-07
-1.75454e-06
3.52249e-07
-2.12824e-06
2.04777e-07
-2.59863e-06
3.91232e-08
-3.18326e-06
-1.41718e-07
-3.89578e-06
-3.22085e-07
-4.73067e-06
-4.63963e-07
-5.61926e-06
-5.04489e-07
-6.34073e-06
-3.86337e-07
-6.41275e-06
-1.4671e-07
-5.12307e-06
-2.07847e-06
2.08079e-06
-2.46075e-07
2.00393e-06
-2.73977e-07
1.92433e-06
-3.0145e-07
1.84236e-06
-3.29081e-07
1.7584e-06
-3.57643e-07
1.67279e-06
-3.88125e-07
1.58582e-06
-4.21785e-07
1.49775e-06
-4.60221e-07
1.40876e-06
-5.05465e-07
1.31891e-06
-5.6011e-07
1.2281e-06
-6.27473e-07
1.13598e-06
-7.11809e-07
1.04186e-06
-8.18554e-07
9.44605e-07
-9.54608e-07
8.42491e-07
-1.1286e-06
7.3312e-07
-1.35111e-06
6.13392e-07
-1.63481e-06
4.79584e-07
-1.99443e-06
3.277e-07
-2.44674e-06
1.54542e-07
-3.01011e-06
-3.91612e-08
-3.70208e-06
-2.41654e-07
-4.52817e-06
-4.17172e-07
-5.44374e-06
-4.98625e-07
-6.25927e-06
-4.11362e-07
-6.50001e-06
-1.68635e-07
-5.36579e-06
-2.2471e-06
2.1566e-06
-1.79458e-07
2.08712e-06
-2.04494e-07
2.0151e-06
-2.29425e-07
1.94084e-06
-2.54823e-07
1.86463e-06
-2.81439e-07
1.78673e-06
-3.10226e-07
1.70734e-06
-3.42393e-07
1.62659e-06
-3.79473e-07
1.54453e-06
-4.23405e-07
1.46108e-06
-4.76656e-07
1.37598e-06
-5.4237e-07
1.28872e-06
-6.24553e-07
1.19847e-06
-7.28305e-07
1.10394e-06
-8.60076e-07
1.00327e-06
-1.02793e-06
8.93927e-07
-1.24178e-06
7.72677e-07
-1.51356e-06
6.35583e-07
-1.85733e-06
4.78226e-07
-2.28939e-06
2.964e-07
-2.82828e-06
8.84455e-08
-3.49412e-06
-1.37989e-07
-4.30174e-06
-3.50093e-07
-5.23163e-06
-4.7973e-07
-6.12964e-06
-4.33985e-07
-6.54576e-06
-1.95347e-07
-5.60443e-06
-2.44245e-06
2.25694e-06
-1.21503e-07
2.19633e-06
-1.43887e-07
2.13334e-06
-1.66429e-07
2.06819e-06
-1.89676e-07
2.0011e-06
-2.14343e-07
1.93221e-06
-2.41337e-07
1.86162e-06
-2.71803e-07
1.78934e-06
-3.07192e-07
1.71527e-06
-3.49339e-07
1.63918e-06
-4.00568e-07
1.56065e-06
-4.63834e-07
1.47898e-06
-5.42885e-07
1.39315e-06
-6.42479e-07
1.30169e-06
-7.68614e-07
1.20255e-06
-9.28787e-07
1.09301e-06
-1.13224e-06
9.69624e-07
-1.39017e-06
8.28196e-07
-1.71591e-06
6.63908e-07
-2.1251e-06
4.71755e-07
-2.63613e-06
2.48422e-07
-3.27079e-06
-1.6346e-09
-4.05168e-06
-2.56469e-07
-4.9768e-06
-4.42696e-07
-5.94341e-06
-4.51215e-07
-6.53724e-06
-2.27187e-07
-5.82846e-06
-2.66964e-06
2.39495e-06
-7.35943e-08
2.34455e-06
-9.34876e-08
2.29186e-06
-1.13734e-07
2.23703e-06
-1.34848e-07
2.18018e-06
-1.57498e-07
2.12138e-06
-1.8253e-07
2.06059e-06
-2.11015e-07
1.9977e-06
-2.44308e-07
1.93248e-06
-2.84118e-07
1.86453e-06
-3.32612e-07
1.79323e-06
-3.92533e-07
1.7177e-06
-4.67358e-07
1.6367e-06
-5.61481e-07
1.54852e-06
-6.80436e-07
1.45088e-06
-8.3114e-07
1.34078e-06
-1.02214e-06
1.21448e-06
-1.26387e-06
1.06745e-06
-1.56887e-06
8.94397e-07
-1.95205e-06
6.89561e-07
-2.43129e-06
4.47559e-07
-3.02879e-06
1.67493e-07
-3.77162e-06
-1.30053e-07
-4.67925e-06
-3.80433e-07
-5.69303e-06
-4.58154e-07
-6.45952e-06
-2.63503e-07
-6.02311e-06
-2.93314e-06
2.58816e-06
-3.67914e-08
2.54896e-06
-5.42797e-08
2.50747e-06
-7.22497e-08
2.4638e-06
-9.11733e-08
2.41796e-06
-1.11663e-07
2.36993e-06
-1.34496e-07
2.31957e-06
-1.60653e-07
2.26664e-06
-1.91377e-07
2.21075e-06
-2.28236e-07
2.15136e-06
-2.73216e-07
2.08765e-06
-3.28826e-07
2.01853e-06
-3.98241e-07
1.94252e-06
-4.85465e-07
1.85762e-06
-5.9554e-07
1.76125e-06
-7.34767e-07
1.65007e-06
-9.10967e-07
1.51995e-06
-1.13375e-06
1.36586e-06
-1.41478e-06
1.18198e-06
-1.76817e-06
9.61757e-07
-2.21107e-06
6.98375e-07
-2.76541e-06
3.87837e-07
-3.46108e-06
4.21602e-08
-4.33358e-06
-2.83056e-07
-5.36781e-06
-4.47242e-07
-6.29533e-06
-3.01824e-07
-6.16853e-06
-3.23497e-06
2.8592e-06
-1.15699e-08
2.83158e-06
-2.66569e-08
2.80162e-06
-4.22911e-08
2.76934e-06
-5.88933e-08
2.73469e-06
-7.70132e-08
2.69754e-06
-9.73472e-08
2.65766e-06
-1.20776e-07
2.6147e-06
-1.48414e-07
2.56813e-06
-1.81669e-07
2.51724e-06
-2.2232e-07
2.46102e-06
-2.72613e-07
2.39817e-06
-3.35387e-07
2.32692e-06
-4.1422e-07
2.245e-06
-5.13612e-07
2.14943e-06
-6.392e-07
2.03647e-06
-7.98008e-07
1.90146e-06
-9.98738e-07
1.73877e-06
-1.25209e-06
1.54183e-06
-1.57122e-06
1.30319e-06
-1.97243e-06
1.01477e-06
-2.47699e-06
6.69159e-07
-3.11546e-06
2.69055e-07
-3.93347e-06
-1.371e-07
-4.96166e-06
-4.07117e-07
-6.02531e-06
-3.36848e-07
-6.2388e-06
-3.57181e-06
3.23595e-06
2.47059e-09
3.21944e-06
-1.01454e-08
3.20047e-06
-2.33202e-08
3.17899e-06
-3.74147e-08
3.15489e-06
-5.29087e-08
3.12795e-06
-7.04102e-08
3.09786e-06
-9.06869e-08
3.06416e-06
-1.14709e-07
3.02619e-06
-1.43702e-07
2.98308e-06
-1.79214e-07
2.93367e-06
-2.23198e-07
2.87639e-06
-2.78114e-07
2.80924e-06
-3.47067e-07
2.72959e-06
-4.33957e-07
2.63407e-06
-5.43685e-07
2.51845e-06
-6.82385e-07
2.37745e-06
-8.57736e-07
2.20467e-06
-1.07931e-06
1.99259e-06
-1.35915e-06
1.73266e-06
-1.7125e-06
1.41543e-06
-2.15975e-06
1.03077e-06
-2.73081e-06
5.74075e-07
-3.47677e-06
7.81558e-08
-4.46574e-06
-3.21697e-07
-5.62546e-06
-3.59657e-07
-6.20084e-06
-3.93147e-06
3.75051e-06
6.89044e-09
3.74352e-06
-3.15221e-09
3.73392e-06
-1.37209e-08
3.72161e-06
-2.51054e-08
3.70642e-06
-3.77144e-08
3.68807e-06
-5.20587e-08
3.66616e-06
-6.87809e-08
3.64014e-06
-8.86924e-08
3.60926e-06
-1.12818e-07
3.57249e-06
-1.42447e-07
3.5285e-06
-1.79207e-07
3.47553e-06
-2.25142e-07
3.41129e-06
-2.8283e-07
3.33284e-06
-3.55505e-07
3.2364e-06
-4.47249e-07
3.1172e-06
-5.63184e-07
2.96929e-06
-7.09817e-07
2.78535e-06
-8.95372e-07
2.55672e-06
-1.13053e-06
2.27338e-06
-1.42916e-06
1.92423e-06
-1.8106e-06
1.4968e-06
-2.30338e-06
9.7905e-07
-2.95902e-06
3.82126e-07
-3.86881e-06
-1.66238e-07
-5.0771e-06
-3.58263e-07
-6.00881e-06
-4.28973e-06
4.43598e-06
4.55014e-09
4.43568e-06
-2.85328e-09
4.43266e-06
-1.07074e-08
4.42679e-06
-1.92292e-08
4.41783e-06
-2.87578e-08
4.40547e-06
-3.96962e-08
4.38924e-06
-5.25518e-08
4.36851e-06
-6.79642e-08
4.34243e-06
-8.67393e-08
4.30988e-06
-1.09888e-07
4.26935e-06
-1.38684e-07
4.21893e-06
-1.74719e-07
4.1561e-06
-2.2e-07
4.07763e-06
-2.77031e-07
3.97937e-06
-3.48994e-07
3.85605e-06
-4.39867e-07
3.70105e-06
-5.5481e-07
3.50607e-06
-7.004e-07
3.26114e-06
-8.85592e-07
2.95436e-06
-1.12238e-06
2.57242e-06
-1.42867e-06
2.10028e-06
-1.83124e-06
1.52078e-06
-2.37952e-06
8.24471e-07
-3.1725e-06
1.04683e-07
-4.35731e-06
-3.00678e-07
-5.60345e-06
-4.59041e-06
5.32023e-06
-5.52105e-10
5.3228e-06
-5.42311e-09
5.32264e-06
-1.05511e-08
5.31962e-06
-1.62047e-08
5.31347e-06
-2.26116e-08
5.30384e-06
-3.00615e-08
5.29021e-06
-3.89202e-08
5.27189e-06
-4.96461e-08
5.24796e-06
-6.28149e-08
5.21722e-06
-7.91441e-08
5.17807e-06
-9.95359e-08
5.12846e-06
-1.25108e-07
5.06573e-06
-1.57272e-07
4.98647e-06
-1.97766e-07
4.88629e-06
-2.48815e-07
4.75958e-06
-3.1316e-07
4.59923e-06
-3.94455e-07
4.39614e-06
-4.97308e-07
4.13901e-06
-6.28462e-07
3.81373e-06
-7.971e-07
3.40381e-06
-1.01875e-06
2.88987e-06
-1.3173e-06
2.25039e-06
-1.74004e-06
1.45825e-06
-2.38036e-06
5.60173e-07
-3.45923e-06
-1.04678e-07
-4.9386e-06
-4.69509e-06
6.41707e-06
-4.26216e-09
6.41838e-06
-6.73408e-09
6.41726e-06
-9.42764e-09
6.4135e-06