/*--------------------------------*- C++ -*----------------------------------*\
  =========                 |
  \\      /  F ield         | OpenFOAM: The Open Source CFD Toolbox
   \\    /   O peration     | Website:  https://openfoam.org
    \\  /    A nd           | Version:  9
     \\/     M anipulation  |
\*---------------------------------------------------------------------------*/
FoamFile
{
    format      ascii;
    class       volVectorField;
    location    "1";
    object      U;
}
// * * * * * * * * * * * * * * * * * * * * * * * * * * * * * * * * * * * * * //

dimensions      [0 1 -1 0 0 0 0];

internalField   nonuniform List<vector> 
1260
(
(-0.0918473 -0.171483 0)
(-0.0918977 -0.182903 0)
(-0.0918065 -0.193628 0)
(-0.0915916 -0.203641 0)
(-0.0912863 -0.212955 0)
(-0.0909429 -0.221628 0)
(-0.090637 -0.229783 0)
(-0.0904714 -0.237622 0)
(-0.0905771 -0.245449 0)
(-0.0911117 -0.253679 0)
(-0.0922491 -0.262844 0)
(-0.0941617 -0.273569 0)
(-0.0969908 -0.286529 0)
(-0.100806 -0.302354 0)
(-0.105554 -0.321501 0)
(-0.111013 -0.344073 0)
(-0.116744 -0.369623 0)
(-0.122068 -0.396946 0)
(-0.126086 -0.42392 0)
(-0.12774 -0.447449 0)
(-0.12595 -0.46359 0)
(-0.119822 -0.467957 0)
(-0.108899 -0.45647 0)
(-0.0934313 -0.426405 0)
(-0.0745266 -0.377524 0)
(-0.0540946 -0.312786 0)
(-0.0344796 -0.238081 0)
(-0.0178788 -0.160855 0)
(-0.0060452 -0.0881921 0)
(-0.000758554 -0.0252831 0)
(-0.0801212 -0.171189 0)
(-0.0805188 -0.18275 0)
(-0.0807838 -0.193608 0)
(-0.0809262 -0.203733 0)
(-0.0809693 -0.213121 0)
(-0.0809529 -0.221813 0)
(-0.0809383 -0.229904 0)
(-0.0810126 -0.237571 0)
(-0.0812919 -0.245087 0)
(-0.0819213 -0.252844 0)
(-0.0830692 -0.26136 0)
(-0.0849129 -0.271272 0)
(-0.0876131 -0.283296 0)
(-0.0912766 -0.29815 0)
(-0.0959077 -0.316427 0)
(-0.101354 -0.338419 0)
(-0.107258 -0.363904 0)
(-0.113018 -0.391916 0)
(-0.117793 -0.420542 0)
(-0.120547 -0.446805 0)
(-0.120165 -0.46672 0)
(-0.115648 -0.475629 0)
(-0.106373 -0.4689 0)
(-0.0923779 -0.443021 0)
(-0.0745768 -0.396873 0)
(-0.0547634 -0.332723 0)
(-0.0352932 -0.256228 0)
(-0.0184952 -0.175147 0)
(-0.00632672 -0.0972411 0)
(-0.000812353 -0.0283955 0)
(-0.0680504 -0.17055 0)
(-0.0688037 -0.182237 0)
(-0.0694394 -0.19322 0)
(-0.0699607 -0.203456 0)
(-0.0703823 -0.21293 0)
(-0.0707332 -0.221662 0)
(-0.0710612 -0.229728 0)
(-0.0714383 -0.237275 0)
(-0.0719645 -0.244549 0)
(-0.0727703 -0.251913 0)
(-0.0740136 -0.259864 0)
(-0.0758701 -0.269038 0)
(-0.0785117 -0.280177 0)
(-0.082073 -0.294069 0)
(-0.0866049 -0.311425 0)
(-0.0920198 -0.332713 0)
(-0.0980357 -0.357931 0)
(-0.104132 -0.386358 0)
(-0.109535 -0.416313 0)
(-0.113244 -0.444983 0)
(-0.114131 -0.468402 0)
(-0.111116 -0.481707 0)
(-0.103428 -0.479776 0)
(-0.0909066 -0.458327 0)
(-0.0742643 -0.415325 0)
(-0.0551601 -0.352238 0)
(-0.0359349 -0.274362 0)
(-0.0190264 -0.189671 0)
(-0.00658173 -0.106567 0)
(-0.000863472 -0.0316492 0)
(-0.0556803 -0.169563 0)
(-0.0567932 -0.181358 0)
(-0.0578079 -0.192449 0)
(-0.0587225 -0.202789 0)
(-0.0595444 -0.212349 0)
(-0.0602932 -0.221136 0)
(-0.0610047 -0.229203 0)
(-0.0617366 -0.236673 0)
(-0.0625728 -0.243763 0)
(-0.0636276 -0.250805 0)
(-0.0650457 -0.258272 0)
(-0.0669955 -0.266787 0)
(-0.0696527 -0.277106 0)
(-0.0731708 -0.290067 0)
(-0.077638 -0.306485 0)
(-0.0830229 -0.326983 0)
(-0.0891151 -0.35177 0)
(-0.0954732 -0.380372 0)
(-0.101395 -0.41136 0)
(-0.105929 -0.442117 0)
(-0.107953 -0.468755 0)
(-0.106328 -0.486273 0)
(-0.100155 -0.489126 0)
(-0.0890879 -0.472296 0)
(-0.0736371 -0.432808 0)
(-0.0553119 -0.37124 0)
(-0.0364159 -0.292395 0)
(-0.0194743 -0.204357 0)
(-0.00680942 -0.116127 0)
(-0.000911448 -0.0350307 0)
(-0.0430602 -0.168228 0)
(-0.0445327 -0.180106 0)
(-0.04593 -0.191288 0)
(-0.0472463 -0.201718 0)
(-0.0484831 -0.211359 0)
(-0.049652 -0.220203 0)
(-0.0507784 -0.228288 0)
(-0.0519066 -0.235713 0)
(-0.0531054 -0.242665 0)
(-0.0544723 -0.249449 0)
(-0.0561365 -0.256507 0)
(-0.0582553 -0.264443 0)
(-0.0610017 -0.274014 0)
(-0.0645403 -0.286095 0)
(-0.0689876 -0.301581 0)
(-0.0743596 -0.321236 0)
(-0.0805109 -0.345466 0)
(-0.0870764 -0.374041 0)
(-0.0934292 -0.405793 0)
(-0.0986767 -0.438336 0)
(-0.101716 -0.467905 0)
(-0.101372 -0.489429 0)
(-0.0966361 -0.497007 0)
(-0.0869903 -0.484934 0)
(-0.0727456 -0.449282 0)
(-0.0552501 -0.38966 0)
(-0.0367514 -0.310252 0)
(-0.0198437 -0.219143 0)
(-0.00700992 -0.125882 0)
(-0.000955951 -0.0385264 0)
(-0.0302405 -0.166547 0)
(-0.0320697 -0.178484 0)
(-0.0338497 -0.189733 0)
(-0.0355716 -0.200234 0)
(-0.0372322 -0.209943 0)
(-0.0388366 -0.218842 0)
(-0.0404011 -0.226951 0)
(-0.0419583 -0.234351 0)
(-0.0435623 -0.241204 0)
(-0.0452946 -0.247782 0)
(-0.0472676 -0.254499 0)
(-0.0496244 -0.261933 0)
(-0.0525307 -0.270833 0)
(-0.0561549 -0.282093 0)
(-0.0606336 -0.296675 0)
(-0.0660215 -0.315462 0)
(-0.0722308 -0.339043 0)
(-0.0789684 -0.367424 0)
(-0.0856836 -0.399703 0)
(-0.0915489 -0.433747 0)
(-0.0954946 -0.46596 0)
(-0.0963265 -0.491267 0)
(-0.0929473 -0.503479 0)
(-0.0846808 -0.496255 0)
(-0.0716425 -0.46472 0)
(-0.0550108 -0.407445 0)
(-0.0369612 -0.327873 0)
(-0.020142 -0.233975 0)
(-0.00718443 -0.135795 0)
(-0.000996792 -0.0421227 0)
(-0.017271 -0.164526 0)
(-0.0194523 -0.176493 0)
(-0.0216124 -0.187784 0)
(-0.0237405 -0.198334 0)
(-0.0258296 -0.208093 0)
(-0.0278794 -0.217035 0)
(-0.0298987 -0.225168 0)
(-0.0319095 -0.232555 0)
(-0.0339528 -0.239335 0)
(-0.0360944 -0.245751 0)
(-0.0384298 -0.252187 0)
(-0.0410861 -0.259191 0)
(-0.0442178 -0.267496 0)
(-0.0479914 -0.278004 0)
(-0.0525557 -0.291724 0)
(-0.0579959 -0.309643 0)
(-0.0642742 -0.332513 0)
(-0.0711639 -0.360565 0)
(-0.0781896 -0.393163 0)
(-0.084593 -0.428447 0)
(-0.089349 -0.463028 0)
(-0.0912597 -0.491881 0)
(-0.089157 -0.508606 0)
(-0.0822219 -0.506285 0)
(-0.0703796 -0.479111 0)
(-0.0546318 -0.424557 0)
(-0.0370683 -0.34521 0)
(-0.0203794 -0.248809 0)
(-0.00733525 -0.145834 0)
(-0.00103395 -0.045807 0)
(-0.00420034 -0.162171 0)
(-0.00672768 -0.174138 0)
(-0.00926384 -0.185442 0)
(-0.0117964 -0.196015 0)
(-0.0143155 -0.205803 0)
(-0.0168165 -0.214772 0)
(-0.0193019 -0.222922 0)
(-0.0217844 -0.2303 0)
(-0.0242932 -0.237024 0)
(-0.0268797 -0.243312 0)
(-0.0296223 -0.249517 0)
(-0.0326315 -0.256156 0)
(-0.0360476 -0.263939 0)
(-0.0400306 -0.273767 0)
(-0.044735 -0.286681 0)
(-0.0502685 -0.30375 0)
(-0.0566356 -0.325873 0)
(-0.0636698 -0.353491 0)
(-0.0709684 -0.386232 0)
(-0.0778451 -0.422516 0)
(-0.0833274 -0.459198 0)
(-0.0862281 -0.491359 0)
(-0.085325 -0.512454 0)
(-0.079671 -0.515057 0)
(-0.0690069 -0.492452 0)
(-0.0541521 -0.440973 0)
(-0.0370982 -0.362229 0)
(-0.0205683 -0.263612 0)
(-0.00746571 -0.155972 0)
(-0.00106756 -0.0495681 0)
(0.00892499 -0.159488 0)
(0.00605806 -0.171426 0)
(0.00315098 -0.182712 0)
(0.000217166 -0.193279 0)
(-0.00273122 -0.203071 0)
(-0.00568609 -0.212048 0)
(-0.00864499 -0.220201 0)
(-0.011612 -0.227566 0)
(-0.0146057 -0.234244 0)
(-0.0176648 -0.240428 0)
(-0.0208515 -0.246443 0)
(-0.0242586 -0.252775 0)
(-0.0280111 -0.260107 0)
(-0.0322585 -0.269328 0)
(-0.0371552 -0.281497 0)
(-0.0428248 -0.29775 0)
(-0.0493061 -0.319113 0)
(-0.0564867 -0.34622 0)
(-0.0640326 -0.378954 0)
(-0.0713305 -0.416024 0)
(-0.0774673 -0.454553 0)
(-0.0812781 -0.489782 0)
(-0.0815025 -0.515088 0)
(-0.0770791 -0.522607 0)
(-0.0675711 -0.504753 0)
(-0.0536103 -0.456679 0)
(-0.0370782 -0.37891 0)
(-0.0207231 -0.27836 0)
(-0.00758012 -0.166191 0)
(-0.00109798 -0.0533965 0)
(0.0220608 -0.156485 0)
(0.0188607 -0.16836 0)
(0.0155883 -0.179598 0)
(0.0122573 -0.19013 0)
(0.00888165 -0.199897 0)
(0.00547225 -0.208858 0)
(0.00203603 -0.216998 0)
(-0.00142391 -0.22434 0)
(-0.00491681 -0.230974 0)
(-0.0084697 -0.237072 0)
(-0.0121294 -0.24293 0)
(-0.0159717 -0.249005 0)
(-0.0201049 -0.25595 0)
(-0.0246654 -0.264634 0)
(-0.0298031 -0.276125 0)
(-0.035651 -0.291608 0)
(-0.0422752 -0.312214 0)
(-0.0496108 -0.338756 0)
(-0.057388 -0.371361 0)
(-0.065066 -0.409026 0)
(-0.071796 -0.449166 0)
(-0.0764461 -0.487223 0)
(-0.0777315 -0.516569 0)
(-0.0744904 -0.528973 0)
(-0.0661147 -0.516024 0)
(-0.0530436 -0.471672 0)
(-0.0370361 -0.395243 0)
(-0.0208595 -0.293043 0)
(-0.00768369 -0.176479 0)
(-0.00112573 -0.0572851 0)
(0.035165 -0.153169 0)
(0.0316379 -0.164949 0)
(0.0280053 -0.176105 0)
(0.0242815 -0.18657 0)
(0.0204813 -0.196284 0)
(0.0166184 -0.205202 0)
(0.0127042 -0.213307 0)
(0.00874634 -0.220614 0)
(0.0047438 -0.2272 0)
(0.00068192 -0.233221 0)
(-0.00347278 -0.238948 0)
(-0.00778001 -0.244808 0)
(-0.0123306 -0.251423 0)
(-0.0172462 -0.25964 0)
(-0.0226687 -0.270522 0)
(-0.0287347 -0.285287 0)
(-0.0355315 -0.305157 0)
(-0.0430347 -0.331102 0)
(-0.0510344 -0.363476 0)
(-0.0590606 -0.401569 0)
(-0.0663323 -0.443096 0)
(-0.0717594 -0.483748 0)
(-0.0740458 -0.516953 0)
(-0.071942 -0.534192 0)
(-0.0646751 -0.526282 0)
(-0.0524869 -0.485952 0)
(-0.0370002 -0.411227 0)
(-0.0209947 -0.30766 0)
(-0.00778243 -0.186831 0)
(-0.00115152 -0.0612297 0)
(0.0481972 -0.149545 0)
(0.0443484 -0.161196 0)
(0.0403606 -0.172238 0)
(0.0362481 -0.182603 0)
(0.0320269 -0.192232 0)
(0.0277127 -0.201081 0)
(0.0233205 -0.209126 0)
(0.0188626 -0.216381 0)
(0.0143452 -0.222912 0)
(0.00976398 -0.22886 0)
(0.00509812 -0.234475 0)
(0.00030342 -0.240155 0)
(-0.00469373 -0.246493 0)
(-0.00999939 -0.254306 0)
(-0.0157445 -0.264647 0)
(-0.0220649 -0.278754 0)
(-0.029063 -0.29792 0)
(-0.036749 -0.323251 0)
(-0.0449674 -0.355318 0)
(-0.0533171 -0.393688 0)
(-0.0610871 -0.436397 0)
(-0.0672367 -0.479415 0)
(-0.0704704 -0.516292 0)
(-0.0694634 -0.538298 0)
(-0.0632846 -0.535542 0)
(-0.0519723 -0.499528 0)
(-0.0369981 -0.426871 0)
(-0.0211465 -0.322221 0)
(-0.0078831 -0.197253 0)
(-0.00117625 -0.0652295 0)
(0.061118 -0.145619 0)
(0.0569521 -0.157108 0)
(0.0526134 -0.168002 0)
(0.0481163 -0.178234 0)
(0.0434776 -0.187746 0)
(0.0387151 -0.196495 0)
(0.0338465 -0.204456 0)
(0.0288888 -0.21164 0)
(0.0238544 -0.218104 0)
(0.0187481 -0.223978 0)
(0.0135607 -0.229493 0)
(0.00826247 -0.235023 0)
(0.00279666 -0.241129 0)
(-0.00292677 -0.248599 0)
(-0.00902584 -0.258466 0)
(-0.015632 -0.271977 0)
(-0.0228579 -0.290479 0)
(-0.0307421 -0.315197 0)
(-0.0391787 -0.346895 0)
(-0.0478327 -0.385415 0)
(-0.0560643 -0.429114 0)
(-0.0628888 -0.474276 0)
(-0.0670223 -0.514632 0)
(-0.0670766 -0.541322 0)
(-0.061969 -0.543817 0)
(-0.0515281 -0.512404 0)
(-0.0370565 -0.442189 0)
(-0.0213337 -0.336748 0)
(-0.00799311 -0.207759 0)
(-0.00120097 -0.0692869 0)
(0.0738884 -0.141394 0)
(0.069409 -0.152687 0)
(0.064723 -0.163399 0)
(0.0598451 -0.173465 0)
(0.0547927 -0.182829 0)
(0.0495854 -0.191448 0)
(0.0442438 -0.1993 0)
(0.0387885 -0.20639 0)
(0.0332381 -0.212774 0)
(0.027605 -0.21857 0)
(0.0218909 -0.223994 0)
(0.0160794 -0.229397 0)
(0.0101291 -0.235311 0)
(0.00396736 -0.242492 0)
(-0.00250947 -0.251951 0)
(-0.00942752 -0.264931 0)
(-0.0169043 -0.282816 0)
(-0.0250012 -0.306932 0)
(-0.0336569 -0.338217 0)
(-0.0425996 -0.376774 0)
(-0.0512614 -0.421286 0)
(-0.0587192 -0.468375 0)
(-0.0637107 -0.512012 0)
(-0.0647963 -0.543287 0)
(-0.0607479 -0.551116 0)
(-0.0511783 -0.524587 0)
(-0.0372005 -0.457197 0)
(-0.0215751 -0.35127 0)
(-0.00812048 -0.218373 0)
(-0.00122694 -0.0734086 0)
(0.086469 -0.136875 0)
(0.0816786 -0.147938 0)
(0.0766485 -0.158434 0)
(0.0713932 -0.1683 0)
(0.0659313 -0.177484 0)
(0.0602837 -0.185945 0)
(0.0544735 -0.193659 0)
(0.0485252 -0.200636 0)
(0.0424624 -0.206923 0)
(0.0363049 -0.212635 0)
(0.0300637 -0.217973 0)
(0.023735 -0.223268 0)
(0.017292 -0.229024 0)
(0.0106782 -0.235967 0)
(0.00380561 -0.245079 0)
(-0.0034438 -0.257592 0)
(-0.0111897 -0.274913 0)
(-0.0195115 -0.298447 0)
(-0.0283876 -0.32929 0)
(-0.0376057 -0.367787 0)
(-0.0466702 -0.412947 0)
(-0.0547244 -0.461752 0)
(-0.0605371 -0.508465 0)
(-0.0626292 -0.544215 0)
(-0.0596341 -0.557446 0)
(-0.0509419 -0.53608 0)
(-0.0374531 -0.471916 0)
(-0.0218899 -0.365823 0)
(-0.00827383 -0.229126 0)
(-0.00125557 -0.0776055 0)
(0.0827188 -0.162745 0)
(0.0768519 -0.171717 0)
(0.0707696 -0.17999 0)
(0.0644972 -0.187541 0)
(0.0580627 -0.194381 0)
(0.0514943 -0.200556 0)
(0.0448183 -0.206175 0)
(0.0380546 -0.21143 0)
(0.0312104 -0.216632 0)
(0.0242728 -0.222261 0)
(0.0172009 -0.229012 0)
(0.00992045 -0.237835 0)
(0.00232615 -0.249945 0)
(-0.00570062 -0.266757 0)
(-0.0142564 -0.289737 0)
(-0.0233533 -0.320118 0)
(-0.0328348 -0.358472 0)
(-0.042277 -0.404126 0)
(-0.0508941 -0.454441 0)
(-0.0574956 -0.504022 0)
(-0.0605742 -0.544118 0)
(-0.0586331 -0.562802 0)
(-0.0508326 -0.546879 0)
(-0.0378346 -0.486362 0)
(-0.0222972 -0.380451 0)
(-0.00846232 -0.240061 0)
(-0.00128844 -0.0818932 0)
(0.0937785 -0.156802 0)
(0.0875126 -0.165533 0)
(0.0810027 -0.173589 0)
(0.0742766 -0.180953 0)
(0.0673653 -0.187634 0)
(0.0603013 -0.193681 0)
(0.0531168 -0.199199 0)
(0.0458397 -0.20437 0)
(0.0384873 -0.209492 0)
(0.0310594 -0.215021 0)
(0.0235297 -0.221621 0)
(0.0158384 -0.230211 0)
(0.00789225 -0.241978 0)
(-0.000423256 -0.258338 0)
(-0.00921755 -0.280798 0)
(-0.0185338 -0.310709 0)
(-0.0282662 -0.348848 0)
(-0.0380627 -0.394852 0)
(-0.0472118 -0.446474 0)
(-0.0545727 -0.498706 0)
(-0.0586226 -0.543005 0)
(-0.0577425 -0.567175 0)
(-0.0508578 -0.556971 0)
(-0.0383622 -0.50055 0)
(-0.0228159 -0.395202 0)
(-0.00869569 -0.251229 0)
(-0.00132732 -0.0862921 0)
(0.104528 -0.150478 0)
(0.0978711 -0.15894 0)
(0.0909429 -0.166753 0)
(0.083774 -0.173904 0)
(0.0763983 -0.180407 0)
(0.0688524 -0.18631 0)
(0.0611738 -0.191717 0)
(0.0533973 -0.196805 0)
(0.0455497 -0.201857 0)
(0.0376422 -0.20731 0)
(0.029662 -0.213798 0)
(0.0215635 -0.222205 0)
(0.0132655 -0.233688 0)
(0.00465918 -0.249651 0)
(-0.00437404 -0.271632 0)
(-0.0139047 -0.301069 0)
(-0.023875 -0.338931 0)
(-0.0340026 -0.38515 0)
(-0.0436542 -0.437878 0)
(-0.0517475 -0.492538 0)
(-0.056757 -0.540878 0)
(-0.056952 -0.570548 0)
(-0.0510177 -0.566334 0)
(-0.0390489 -0.514486 0)
(-0.0234643 -0.410128 0)
(-0.00898425 -0.262691 0)
(-0.00137418 -0.0908279 0)
(0.114923 -0.143781 0)
(0.107884 -0.151946 0)
(0.10055 -0.159492 0)
(0.0929529 -0.166409 0)
(0.085129 -0.172714 0)
(0.077119 -0.17846 0)
(0.0689652 -0.183748 0)
(0.0607088 -0.188751 0)
(0.0523847 -0.193743 0)
(0.0440147 -0.19914 0)
(0.0355983 -0.20555 0)
(0.0271034 -0.213822 0)
(0.0184606 -0.225078 0)
(0.00956574 -0.2407 0)
(0.000298187 -0.262241 0)
(-0.00943702 -0.29121 0)
(-0.019631 -0.328739 0)
(-0.0300666 -0.375046 0)
(-0.0401916 -0.428681 0)
(-0.0489916 -0.485537 0)
(-0.0549518 -0.537734 0)
(-0.0562421 -0.572892 0)
(-0.0513049 -0.574935 0)
(-0.0399029 -0.528166 0)
(-0.0242598 -0.425279 0)
(-0.00933896 -0.274516 0)
(-0.00143119 -0.0955318 0)
(0.124917 -0.136722 0)
(0.11751 -0.144566 0)
(0.109786 -0.151821 0)
(0.101779 -0.158484 0)
(0.0935272 -0.164575 0)
(0.0850758 -0.17015 0)
(0.0764711 -0.175311 0)
(0.0677597 -0.180229 0)
(0.0589841 -0.185169 0)
(0.0501751 -0.19053 0)
(0.0413435 -0.196893 0)
(0.0324696 -0.205074 0)
(0.0234954 -0.216156 0)
(0.014323 -0.231493 0)
(0.00483045 -0.252633 0)
(-0.00509901 -0.281143 0)
(-0.0154995 -0.318294 0)
(-0.0262186 -0.364567 0)
(-0.0367875 -0.418911 0)
(-0.0462684 -0.477717 0)
(-0.0531723 -0.533565 0)
(-0.0555838 -0.574171 0)
(-0.0517026 -0.582723 0)
(-0.0409262 -0.541573 0)
(-0.0252183 -0.440703 0)
(-0.00977142 -0.286781 0)
(-0.00150074 -0.100441 0)
(0.134463 -0.129313 0)
(0.126707 -0.136815 0)
(0.118614 -0.143761 0)
(0.11022 -0.150151 0)
(0.101567 -0.156013 0)
(0.0927022 -0.161407 0)
(0.0836765 -0.166436 0)
(0.0745414 -0.171269 0)
(0.0653455 -0.176164 0)
(0.0561279 -0.181506 0)
(0.0469092 -0.187851 0)
(0.0376808 -0.195981 0)
(0.0283955 -0.206938 0)
(0.0189627 -0.22204 0)
(0.00925728 -0.24282 0)
(-0.000851792 -0.270883 0)
(-0.0114378 -0.307615 0)
(-0.022415 -0.353738 0)
(-0.0333978 -0.408593 0)
(-0.0435334 -0.469096 0)
(-0.0513743 -0.52836 0)
(-0.0549378 -0.57434 0)
(-0.0521845 -0.589634 0)
(-0.0421138 -0.55467 0)
(-0.0263541 -0.456441 0)
(-0.010294 -0.299572 0)
(-0.0015855 -0.105599 0)
(0.143519 -0.121576 0)
(0.135436 -0.128716 0)
(0.127 -0.135335 0)
(0.118249 -0.141439 0)
(0.109227 -0.14706 0)
(0.0999841 -0.152263 0)
(0.090574 -0.157155 0)
(0.081053 -0.161904 0)
(0.0714752 -0.166762 0)
(0.0618863 -0.172101 0)
(0.0523154 -0.178454 0)
(0.042764 -0.186567 0)
(0.0331943 -0.197445 0)
(0.023523 -0.21236 0)
(0.0136242 -0.232822 0)
(0.00335362 -0.260449 0)
(-0.00739757 -0.296726 0)
(-0.0186056 -0.342589 0)
(-0.0299704 -0.397757 0)
(-0.0407328 -0.459689 0)
(-0.0495039 -0.522105 0)
(-0.0542535 -0.573342 0)
(-0.0527124 -0.595584 0)
(-0.0434518 -0.5674 0)
(-0.0276783 -0.472524 0)
(-0.0109199 -0.31298 0)
(-0.00168841 -0.111055 0)
(0.152043 -0.113534 0)
(0.143665 -0.120297 0)
(0.13492 -0.126575 0)
(0.125848 -0.13238 0)
(0.116496 -0.137752 0)
(0.106916 -0.142758 0)
(0.0971655 -0.14751 0)
(0.0873039 -0.152176 0)
(0.0773897 -0.157004 0)
(0.0674742 -0.162354 0)
(0.0575936 -0.168737 0)
(0.0477572 -0.176867 0)
(0.0379364 -0.187704 0)
(0.0280541 -0.202476 0)
(0.0179854 -0.222656 0)
(0.00757426 -0.249862 0)
(-0.00331929 -0.285651 0)
(-0.0147299 -0.331149 0)
(-0.0264439 -0.386433 0)
(-0.0378034 -0.449513 0)
(-0.0474959 -0.514787 0)
(-0.0534682 -0.571115 0)
(-0.0532358 -0.600473 0)
(-0.0449161 -0.579679 0)
(-0.0291984 -0.488964 0)
(-0.0116634 -0.327103 0)
(-0.00181278 -0.116868 0)
(0.160004 -0.105221 0)
(0.151367 -0.111594 0)
(0.142354 -0.11752 0)
(0.133005 -0.123018 0)
(0.123371 -0.128132 0)
(0.113504 -0.132938 0)
(0.103465 -0.137549 0)
(0.0933166 -0.142135 0)
(0.0831195 -0.14694 0)
(0.0729299 -0.152312 0)
(0.0627889 -0.158744 0)
(0.0527129 -0.166918 0)
(0.0426801 -0.177749 0)
(0.0326199 -0.192416 0)
(0.0224082 -0.212347 0)
(0.0118801 -0.239146 0)
(0.000868212 -0.274418 0)
(-0.0107165 -0.31945 0)
(-0.0227461 -0.374653 0)
(-0.0346707 -0.438588 0)
(-0.0452734 -0.506389 0)
(-0.0525058 -0.56759 0)
(-0.0536896 -0.604178 0)
(-0.04647 -0.591392 0)
(-0.0309166 -0.505752 0)
(-0.0125401 -0.342042 0)
(-0.00196248 -0.123101 0)
(0.167378 -0.0966761 0)
(0.158529 -0.10265 0)
(0.149297 -0.108216 0)
(0.139725 -0.113401 0)
(0.129864 -0.118255 0)
(0.11977 -0.122858 0)
(0.109504 -0.127329 0)
(0.0991303 -0.131837 0)
(0.0887125 -0.136625 0)
(0.078309 -0.142031 0)
(0.0679649 -0.148528 0)
(0.0577011 -0.156766 0)
(0.0475017 -0.167619 0)
(0.037301 -0.182212 0)
(0.0269769 -0.201922 0)
(0.0163572 -0.228325 0)
(0.0052513 -0.263051 0)
(-0.00647969 -0.307521 0)
(-0.0187912 -0.362449 0)
(-0.0312477 -0.426937 0)
(-0.0427463 -0.496898 0)
(-0.0512754 -0.562689 0)
(-0.0539931 -0.606557 0)
(-0.0480625 -0.602388 0)
(-0.0328282 -0.522846 0)
(-0.0135676 -0.3579 0)
(-0.00214222 -0.129827 0)
(0.174158 -0.087948 0)
(0.165153 -0.0935166 0)
(0.155762 -0.0987195 0)
(0.14603 -0.103589 0)
(0.136009 -0.108182 0)
(0.125756 -0.112584 0)
(0.115334 -0.116916 0)
(0.104806 -0.121351 0)
(0.0942386 -0.126126 0)
(0.0836901 -0.131573 0)
(0.0732075 -0.138145 0)
(0.0628148 -0.146464 0)
(0.0524996 -0.157358 0)
(0.0422006 -0.171899 0)
(0.0317972 -0.19141 0)
(0.0211123 -0.217424 0)
(0.00993555 -0.251578 0)
(-0.00191588 -0.295394 0)
(-0.0144773 -0.349855 0)
(-0.0274319 -0.414582 0)
(-0.0398093 -0.486304 0)
(-0.0496701 -0.556332 0)
(-0.0540476 -0.60745 0)
(-0.0496258 -0.612479 0)
(-0.0349198 -0.540168 0)
(-0.0147667 -0.374774 0)
(-0.00235831 -0.137131 0)
(0.180359 -0.0790955 0)
(0.171264 -0.0842576 0)
(0.161784 -0.0890973 0)
(0.151966 -0.0936531 0)
(0.141862 -0.0979873 0)
(0.13153 -0.10219 0)
(0.121032 -0.106387 0)
(0.110433 -0.110751 0)
(0.099796 -0.115518 0)
(0.0891799 -0.121009 0)
(0.0786313 -0.127662 0)
(0.0681749 -0.136068 0)
(0.0578005 -0.147014 0)
(0.047449 -0.161518 0)
(0.0370018 -0.180842 0)
(0.026278 -0.206468 0)
(0.0150518 -0.240022 0)
(0.00310198 -0.283096 0)
(-0.00968153 -0.336902 0)
(-0.0231019 -0.401551 0)
(-0.036339 -0.474596 0)
(-0.0475641 -0.548436 0)
(-0.0537345 -0.606672 0)
(-0.0510724 -0.621431 0)
(-0.0371662 -0.557585 0)
(-0.016163 -0.392757 0)
(-0.00261985 -0.145109 0)
(0.186026 -0.0701883 0)
(0.176918 -0.0749465 0)
(0.167431 -0.0794268 0)
(0.157612 -0.0836735 0)
(0.147515 -0.0877538 0)
(0.137195 -0.0917621 0)
(0.126714 -0.0958274 0)
(0.116135 -0.100123 0)
(0.105519 -0.104883 0)
(0.0949212 -0.110418 0)
(0.0843867 -0.117151 0)
(0.0739386 -0.125643 0)
(0.0635663 -0.136643 0)
(0.0532121 -0.151111 0)
(0.0427579 -0.170248 0)
(0.0320207 -0.19548 0)
(0.0207628 -0.228402 0)
(0.00873082 -0.270649 0)
(-0.00425348 -0.32362 0)
(-0.0181122 -0.387868 0)
(-0.0321902 -0.461768 0)
(-0.04481 -0.538913 0)
(-0.052912 -0.604023 0)
(-0.0522918 -0.62896 0)
(-0.0395279 -0.574904 0)
(-0.0177888 -0.411921 0)
(-0.00294087 -0.153875 0)
(0.191243 -0.0613074 0)
(0.182213 -0.0656691 0)
(0.172814 -0.0697982 0)
(0.163094 -0.0737439 0)
(0.153103 -0.0775779 0)
(0.142899 -0.0813982 0)
(0.13254 -0.085336 0)
(0.122083 -0.0895647 0)
(0.111587 -0.0943139 0)
(0.101102 -0.0998877 0)
(0.0906696 -0.106691 0)
(0.0803078 -0.115259 0)
(0.0700041 -0.1263 0)
(0.0596996 -0.140721 0)
(0.0492763 -0.159661 0)
(0.0385496 -0.18448 0)
(0.0272728 -0.216732 0)
(0.0151667 -0.258068 0)
(0.00199283 -0.310028 0)
(-0.0122855 -0.373553 0)
(-0.0271894 -0.447812 0)
(-0.041234 -0.527677 0)
(-0.0514115 -0.59928 0)
(-0.053146 -0.634731 0)
(-0.0419466 -0.591853 0)
(-0.019686 -0.432312 0)
(-0.00334376 -0.163568 0)
(0.196155 -0.0525472 0)
(0.187306 -0.0565245 0)
(0.178104 -0.0603145 0)
(0.168593 -0.0639707 0)
(0.158824 -0.0675682 0)
(0.148851 -0.0712075 0)
(0.138726 -0.0750208 0)
(0.128505 -0.0791808 0)
(0.118238 -0.0839129 0)
(0.10797 -0.0895126 0)
(0.0977331 -0.0963681 0)
(0.0875415 -0.10499 0)
(0.0773769 -0.116047 0)
(0.0671774 -0.130396 0)
(0.0568234 -0.14911 0)
(0.0461284 -0.173484 0)
(0.0348394 -0.205019 0)
(0.0226567 -0.245357 0)
(0.00929057 -0.296135 0)
(-0.00540286 -0.358618 0)
(-0.0211269 -0.432719 0)
(-0.0366291 -0.514634 0)
(-0.0490308 -0.592201 0)
(-0.0534637 -0.638348 0)
(-0.0443391 -0.608065 0)
(-0.0219067 -0.453926 0)
(-0.003864 -0.174364 0)
(0.200982 -0.0440158 0)
(0.192433 -0.0476255 0)
(0.183548 -0.0510925 0)
(0.174372 -0.0544732 0)
(0.164951 -0.0578453 0)
(0.155335 -0.0613105 0)
(0.145572 -0.0650009 0)
(0.135708 -0.0690872 0)
(0.125786 -0.0737899 0)
(0.115844 -0.0793951 0)
(0.105904 -0.0862753 0)
(0.0959707 -0.0949167 0)
(0.0860194 -0.10595 0)
(0.0759821 -0.120182 0)
(0.0657355 -0.138624 0)
(0.0550904 -0.162504 0)
(0.0437883 -0.193261 0)
(0.0315137 -0.232505 0)
(0.0179348 -0.281933 0)
(0.00281052 -0.343061 0)
(-0.0137447 -0.416468 0)
(-0.0307455 -0.499689 0)
(-0.0455264 -0.582524 0)
(-0.0530311 -0.639351 0)
(-0.0465889 -0.623061 0)
(-0.0245105 -0.476687 0)
(-0.00455599 -0.186487 0)
(0.206055 -0.0358363 0)
(0.197938 -0.0390991 0)
(0.189507 -0.0422619 0)
(0.180801 -0.0453831 0)
(0.171866 -0.0485411 0)
(0.162743 -0.0518379 0)
(0.153473 -0.055404 0)
(0.144095 -0.0594069 0)
(0.134642 -0.0640612 0)
(0.12514 -0.069643 0)
(0.115601 -0.0765091 0)
(0.106018 -0.085121 0)
(0.0963566 -0.0960739 0)
(0.0865396 -0.110127 0)
(0.0764377 -0.128231 0)
(0.0658567 -0.151545 0)
(0.0545323 -0.181441 0)
(0.0421359 -0.219486 0)
(0.0283012 -0.267391 0)
(0.0127043 -0.326857 0)
(-0.00471869 -0.399025 0)
(-0.0232779 -0.482732 0)
(-0.0406016 -0.569965 0)
(-0.0515796 -0.637213 0)
(-0.0485319 -0.636225 0)
(-0.0275541 -0.500406 0)
(-0.00549867 -0.200227 0)
(0.211857 -0.0281454 0)
(0.204315 -0.031085 0)
(0.196482 -0.0339642 0)
(0.188394 -0.0368419 0)
(0.180087 -0.0397963 0)
(0.171599 -0.0429277 0)
(0.16296 -0.046364 0)
(0.1542 -0.0502681 0)
(0.145341 -0.0548475 0)
(0.136395 -0.0603675 0)
(0.127363 -0.0671686 0)
(0.118223 -0.0756882 0)
(0.108928 -0.0864873 0)
(0.0993886 -0.100279 0)
(0.0894665 -0.117954 0)
(0.078959 -0.140606 0)
(0.0675937 -0.169535 0)
(0.0550291 -0.206252 0)
(0.0408707 -0.252453 0)
(0.0247271 -0.309949 0)
(0.00636537 -0.380331 0)
(-0.0138458 -0.463635 0)
(-0.0338913 -0.554215 0)
(-0.048767 -0.631325 0)
(-0.0499354 -0.646782 0)
(-0.0310695 -0.524731 0)
(-0.00679911 -0.21595 0)
(0.219073 -0.0210913 0)
(0.212259 -0.0237326 0)
(0.205175 -0.0263485 0)
(0.197852 -0.0289973 0)
(0.190321 -0.0317555 0)
(0.182608 -0.0347205 0)
(0.174737 -0.0380162 0)
(0.166724 -0.0417994 0)
(0.15858 -0.0462692 0)
(0.150304 -0.051679 0)
(0.14188 -0.0583522 0)
(0.133272 -0.0667022 0)
(0.124416 -0.0772561 0)
(0.115209 -0.0906815 0)
(0.105498 -0.107813 0)
(0.0950669 -0.129677 0)
(0.0836318 -0.157502 0)
(0.0708354 -0.192733 0)
(0.0562578 -0.237026 0)
(0.0394522 -0.292241 0)
(0.0200429 -0.360296 0)
(-0.00196091 -0.442268 0)
(-0.0249336 -0.534919 0)
(-0.0441538 -0.620989 0)
(-0.050472 -0.653771 0)
(-0.035028 -0.54909 0)
(-0.00858985 -0.234103 0)
(0.228666 -0.014828 0)
(0.22273 -0.0171943 0)
(0.216544 -0.0195647 0)
(0.210129 -0.0219956 0)
(0.203511 -0.0245605 0)
(0.196706 -0.0273527 0)
(0.189728 -0.0304905 0)
(0.182582 -0.0341232 0)
(0.175264 -0.0384401 0)
(0.167759 -0.0436812 0)
(0.160035 -0.050152 0)
(0.152039 -0.0582407 0)
(0.143687 -0.0684407 0)
(0.134858 -0.0813747 0)
(0.12538 -0.0978212 0)
(0.11502 -0.118739 0)
(0.103474 -0.145285 0)
(0.0903643 -0.178833 0)
(0.0752427 -0.220982 0)
(0.0576153 -0.273591 0)
(0.0369863 -0.338786 0)
(0.0130279 -0.418489 0)
(-0.0131055 -0.511663 0)
(-0.0371822 -0.605423 0)
(-0.0496878 -0.656032 0)
(-0.0392858 -0.572623 0)
(-0.0110093 -0.255196 0)
(0.241959 -0.00950426 0)
(0.237037 -0.0116148 0)
(0.231878 -0.0137526 0)
(0.226496 -0.015971 0)
(0.220908 -0.0183393 0)
(0.215122 -0.0209455 0)
(0.20914 -0.0239009 0)
(0.202957 -0.0273459 0)
(0.196554 -0.0314583 0)
(0.189902 -0.0364633 0)
(0.18295 -0.0426462 0)
(0.175626 -0.050369 0)
(0.167826 -0.06009 0)
(0.159407 -0.0723864 0)
(0.150173 -0.0879798 0)
(0.139866 -0.107761 0)
(0.128155 -0.132813 0)
(0.114631 -0.164432 0)
(0.0988102 -0.204149 0)
(0.0801406 -0.253788 0)
(0.0580266 -0.315572 0)
(0.031992 -0.392047 0)
(0.00241816 -0.484202 0)
(-0.0271496 -0.583816 0)
(-0.0469452 -0.652187 0)
(-0.0435037 -0.594096 0)
(-0.0141506 -0.279747 0)
(0.260721 -0.00524701 0)
(0.256915 -0.00711489 0)
(0.252877 -0.00902603 0)
(0.248616 -0.01103 0)
(0.244137 -0.0131912 0)
(0.239443 -0.015591 0)
(0.234523 -0.0183322 0)
(0.229361 -0.0215451 0)
(0.223926 -0.0253942 0)
(0.218172 -0.0300874 0)
(0.212031 -0.0358881 0)
(0.205411 -0.0431296 0)
(0.198186 -0.0522328 0)
(0.190185 -0.0637272 0)
(0.181184 -0.078275 0)
(0.170894 -0.0966964 0)
(0.158948 -0.119996 0)
(0.144895 -0.149386 0)
(0.128201 -0.186324 0)
(0.108254 -0.232566 0)
(0.0843779 -0.290336 0)
(0.0559036 -0.362548 0)
(0.0225995 -0.452069 0)
(-0.0129752 -0.555241 0)
(-0.0413069 -0.640577 0)
(-0.0470583 -0.611767 0)
(-0.0179732 -0.308121 0)
(0.287243 -0.00214018 0)
(0.284596 -0.00376977 0)
(0.281716 -0.00545211 0)
(0.278602 -0.00723209 0)
(0.275254 -0.00916806 0)
(0.271665 -0.0113339 0)
(0.267816 -0.0138229 0)
(0.263679 -0.0167534 0)
(0.25921 -0.0202744 0)
(0.254349 -0.0245747 0)
(0.249011 -0.0298929 0)
(0.243083 -0.0365301 0)
(0.236414 -0.0448665 0)
(0.228806 -0.0553801 0)
(0.220001 -0.0686695 0)
(0.209671 -0.0854788 0)
(0.197403 -0.106727 0)
(0.182692 -0.133536 0)
(0.16494 -0.167274 0)
(0.143455 -0.209624 0)
(0.117469 -0.262755 0)
(0.086146 -0.329746 0)
(0.0488152 -0.414794 0)
(0.00667314 -0.51886 0)
(-0.0314585 -0.61926 0)
(-0.048954 -0.623248 0)
(-0.022178 -0.340269 0)
(0.32436 -0.000195106 0)
(0.322828 -0.00158229 0)
(0.321054 -0.00302581 0)
(0.31903 -0.00456499 0)
(0.316751 -0.00625144 0)
(0.314201 -0.00815053 0)
(0.311353 -0.0103449 0)
(0.30817 -0.0129389 0)
(0.304596 -0.0160647 0)
(0.300557 -0.0198888 0)
(0.295952 -0.0246218 0)
(0.290646 -0.0305292 0)
(0.284465 -0.0379459 0)
(0.27718 -0.0472927 0)
(0.268499 -0.0590981 0)
(0.258047 -0.0740219 0)
(0.24536 -0.0928867 0)
(0.229864 -0.116712 0)
(0.21088 -0.146765 0)
(0.187611 -0.184634 0)
(0.159183 -0.232414 0)
(0.124599 -0.293166 0)
(0.0827886 -0.371876 0)
(0.033685 -0.473732 0)
(-0.0153439 -0.586096 0)
(-0.0476883 -0.625505 0)
(-0.0260446 -0.375577 0)
(0.375336 0.00068091 0)
(0.374761 -0.000454083 0)
(0.373932 -0.00164373 0)
(0.372837 -0.00292125 0)
(0.371463 -0.00433088 0)
(0.369788 -0.00592859 0)
(0.36778 -0.00778501 0)
(0.365392 -0.00998935 0)
(0.362558 -0.0126543 0)
(0.359192 -0.0159218 0)
(0.355177 -0.0199711 0)
(0.35036 -0.0250278 0)
(0.344544 -0.0313761 0)
(0.337469 -0.0393733 0)
(0.328808 -0.0494693 0)
(0.31814 -0.0622283 0)
(0.304942 -0.0783625 0)
(0.28856 -0.0987674 0)
(0.268222 -0.124589 0)
(0.242995 -0.157303 0)
(0.211867 -0.198917 0)
(0.173636 -0.25239 0)
(0.126945 -0.322988 0)
(0.0707158 -0.419046 0)
(0.00991665 -0.539189 0)
(-0.0410719 -0.615118 0)
(-0.0282043 -0.412984 0)
(0.443545 0.000706024 0)
(0.443643 -0.000166187 0)
(0.443478 -0.00108643 0)
(0.443035 -0.00208223 0)
(0.442295 -0.00318996 0)
(0.441232 -0.00445521 0)
(0.439808 -0.00593547 0)
(0.437969 -0.0077032 0)
(0.435641 -0.00984983 0)
(0.432726 -0.0124903 0)
(0.429096 -0.0157694 0)
(0.424582 -0.0198687 0)
(0.418966 -0.025017 0)
(0.411963 -0.0315008 0)
(0.403214 -0.0396825 0)
(0.392253 -0.0500169 0)
(0.378505 -0.0630876 0)
(0.36123 -0.0796375 0)
(0.339554 -0.100656 0)
(0.312376 -0.127458 0)
(0.278517 -0.161944 0)
(0.236477 -0.206945 0)
(0.184768 -0.267644 0)
(0.121309 -0.354098 0)
(0.0484298 -0.476545 0)
(-0.0257 -0.588412 0)
(-0.0260715 -0.450192 0)
(0.531829 0.000226937 0)
(0.532209 -0.000376815 0)
(0.532331 -0.00101885 0)
(0.532173 -0.00172135 0)
(0.531717 -0.00251186 0)
(0.530931 -0.00342468 0)
(0.529774 -0.00450313 0)
(0.528185 -0.0058017 0)
(0.526086 -0.00738903 0)
(0.52337 -0.00935099 0)
(0.5199 -0.0117956 0)
(0.515495 -0.0148572 0)
(0.509925 -0.0187055 0)
(0.502887 -0.0235508 0)
(0.494002 -0.0296606 0)
(0.482772 -0.0373682 0)
(0.468589 -0.0471095 0)
(0.450633 -0.0594398 0)
(0.427962 -0.0751396 0)
(0.399256 -0.0952728 0)
(0.363174 -0.121536 0)
(0.3177 -0.156552 0)
(0.261278 -0.205332 0)
(0.190685 -0.278244 0)
(0.106004 -0.395617 0)
(0.00413976 -0.539387 0)
(-0.0138772 -0.479259 0)
(0.641573 -0.000308545 0)
(0.641821 -0.000655816 0)
(0.641833 -0.00103138 0)
(0.641591 -0.0014496 0)
(0.641072 -0.00192854 0)
(0.640245 -0.00249099 0)
(0.639064 -0.00316563 0)
(0.637467 -0.0039883 0)
(0.635371 -0.00500401 0)
(0.632668 -0.00626864 0)
(0.629217 -0.00785239 0)
(0.624834 -0.0098416 0)
(0.619288 -0.0123454 0)
(0.612271 -0.0154965 0)
(0.603412 -0.0194659 0)
(0.592202 -0.0244601 0)
(0.578052 -0.030759 0)
(0.560099 -0.0387056 0)
(0.537426 -0.0488239 0)
(0.508503 -0.0618104 0)
(0.471944 -0.0789599 0)
(0.424901 -0.102326 0)
(0.365692 -0.136524 0)
(0.288717 -0.190859 0)
(0.193134 -0.29203 0)