/*--------------------------------*- C++ -*----------------------------------*\
  =========                 |
  \\      /  F ield         | OpenFOAM: The Open Source CFD Toolbox
   \\    /   O peration     | Website:  https://openfoam.org
    \\  /    A nd           | Version:  9
     \\/     M anipulation  |
\*---------------------------------------------------------------------------*/
FoamFile
{
    format      ascii;
    class       volScalarField;
    location    "3.25";
    object      p;
}
// * * * * * * * * * * * * * * * * * * * * * * * * * * * * * * * * * * * * * //

dimensions      [0 2 -2 0 0 0 0];

internalField   nonuniform List<scalar> 
1240
(
0.000119644
0.000271789
0.000345648
0.00033846
0.000249631
8.07666e-05
-0.000164369
-0.000480009
-0.00085868
-0.00129125
-0.00176766
-0.00227712
-0.00280855
-0.00335103
-0.00389417
-0.00442843
-0.00494541
-0.005438
-0.00590053
-0.00632873
-0.00671976
-0.00707207
-0.00738526
-0.00765989
-0.00789727
-0.00809928
-0.00826812
-0.00840613
-0.00851559
-0.0085986
-0.00865697
-0.00869221
-0.00870574
-0.00869918
-0.00867521
-0.00863882
-0.0085979
-0.00856594
-0.000184378
-4.23254e-05
2.5429e-05
1.62586e-05
-7.03805e-05
-0.000232915
-0.000467704
-0.000769188
-0.00113013
-0.00154194
-0.00199487
-0.00247872
-0.00298296
-0.0034973
-0.00401196
-0.00451801
-0.0050076
-0.00547417
-0.00591245
-0.00631856
-0.00668991
-0.0070251
-0.00732381
-0.00758655
-0.00781458
-0.0080096
-0.00817367
-0.00830896
-0.00841766
-0.00850182
-0.00856331
-0.00860386
-0.0086251
-0.00862883
-0.00861757
-0.00859516
-0.00856603
-0.00853394
-0.000392261
-0.000253159
-0.000186765
-0.000195722
-0.000280594
-0.000439826
-0.000669798
-0.000964974
-0.00131813
-0.00172068
-0.00216304
-0.002635
-0.00312615
-0.00362637
-0.00412606
-0.00461651
-0.00509015
-0.00554067
-0.0059631
-0.00635383
-0.00671057
-0.00703214
-0.00731841
-0.00757009
-0.00778852
-0.0079755
-0.00813312
-0.00826361
-0.00836914
-0.00845181
-0.00851351
-0.00855595
-0.00858066
-0.00858917
-0.00858334
-0.00856581
-0.008537
-0.00849293
-0.000592983
-0.000451061
-0.000381391
-0.000386754
-0.000467821
-0.000623101
-0.00084899
-0.00113992
-0.0014886
-0.00188629
-0.00232323
-0.00278939
-0.00327372
-0.00376627
-0.00425734
-0.00473818
-0.00520128
-0.00564041
-0.0060508
-0.00642902
-0.0067731
-0.00708209
-0.00735613
-0.0075962
-0.0078039
-0.00798126
-0.00813054
-0.0082541
-0.00835426
-0.00843316
-0.0084927
-0.00853452
-0.00855992
-0.00856994
-0.00856572
-0.00854871
-0.00851604
-0.00845824
-0.000847252
-0.000696319
-0.00061755
-0.000613991
-0.000686536
-0.000833859
-0.00105245
-0.00133677
-0.00167946
-0.00207168
-0.0025035
-0.00296438
-0.00344348
-0.00393028
-0.00441494
-0.00488848
-0.00534328
-0.00577311
-0.0061732
-0.00654031
-0.00687247
-0.00716917
-0.00743078
-0.00765858
-0.00785449
-0.0080208
-0.00816007
-0.00827489
-0.00836773
-0.00844086
-0.00849623
-0.00853539
-0.00855943
-0.00856896
-0.00856444
-0.00854637
-0.00850939
-0.00843989
-0.0011916
-0.00102377
-0.000928036
-0.000907859
-0.000964507
-0.00109697
-0.00130199
-0.00157415
-0.00190614
-0.00228905
-0.0027128
-0.00316657
-0.00363923
-0.00411985
-0.00459855
-0.00506552
-0.00551317
-0.00593502
-0.00632617
-0.00668335
-0.00700473
-0.00728986
-0.00753944
-0.00775497
-0.00793868
-0.00809323
-0.00822146
-0.00832623
-0.00841027
-0.00847602
-0.00852551
-0.00856029
-0.00858128
-0.00858877
-0.00858272
-0.00856293
-0.00852237
-0.0084447
-0.00166317
-0.00146868
-0.00134591
-0.0012989
-0.00132949
-0.00143719
-0.00161917
-0.00187034
-0.00218361
-0.00255014
-0.00295976
-0.00340147
-0.00386385
-0.00433562
-0.00480619
-0.00526578
-0.0057061
-0.00612032
-0.00650329
-0.00685155
-0.0071632
-0.00743775
-0.00767619
-0.00788008
-0.00805196
-0.00819477
-0.00831168
-0.00840586
-0.0084803
-0.00853767
-0.00858015
-0.00860934
-0.00862613
-0.0086306
-0.00862239
-0.00860085
-0.00855802
-0.00847618
-0.00230053
-0.00206779
-0.00190572
-0.00181916
-0.00181075
-0.00188075
-0.00202703
-0.00224507
-0.0025282
-0.00286787
-0.00325402
-0.00367554
-0.00412082
-0.00457821
-0.00503659
-0.00548575
-0.00591682
-0.00632246
-0.00669708
-0.00703684
-0.00733962
-0.00760487
-0.00783316
-0.00802653
-0.00818756
-0.00831942
-0.00842554
-0.00850938
-0.00857422
-0.00862298
-0.00865803
-0.00868113
-0.0086932
-0.00869427
-0.00868385
-0.00866101
-0.00861749
-0.00853531
-0.0038848
-0.00348817
-0.00314312
-0.00285895
-0.0026434
-0.00250231
-0.00243938
-0.0024559
-0.00255071
-0.00272021
-0.00295844
-0.00325739
-0.00360734
-0.00399731
-0.00441557
-0.00485021
-0.00528966
-0.00572314
-0.00614114
-0.0065357
-0.00690059
-0.00723144
-0.00752564
-0.00778228
-0.00800187
-0.00818617
-0.00833786
-0.00846019
-0.00855678
-0.00863135
-0.0086874
-0.00872812
-0.00875612
-0.00877332
-0.00878082
-0.00877869
-0.00876643
-0.00874304
-0.00870044
-0.00862127
-0.0060874
-0.00557693
-0.00508958
-0.00463722
-0.00423104
-0.00388125
-0.00359667
-0.00338435
-0.00324925
-0.00319404
-0.00321887
-0.00332136
-0.00349666
-0.00373766
-0.00403529
-0.00437896
-0.00475706
-0.00515753
-0.00556842
-0.00597842
-0.00637732
-0.00675641
-0.00710868
-0.007429
-0.00771413
-0.00796257
-0.00817443
-0.0083511
-0.00849523
-0.0086099
-0.00869882
-0.00876583
-0.00881464
-0.00884864
-0.00887067
-0.00888289
-0.00888656
-0.00888194
-0.00886861
-0.00884561
-0.00880541
-0.00873194
-0.00770815
-0.00714777
-0.00660209
-0.00608341
-0.00560365
-0.00517395
-0.00480429
-0.00450309
-0.00427686
-0.00412987
-0.00406397
-0.0040784
-0.00416983
-0.00433247
-0.0045583
-0.00483749
-0.00515886
-0.00551045
-0.00588007
-0.00625593
-0.00662714
-0.00698412
-0.00731898
-0.00762565
-0.0079
-0.00813975
-0.00834436
-0.00851474
-0.00865289
-0.00876192
-0.00884535
-0.008907
-0.00895066
-0.00897988
-0.00899768
-0.00900642
-0.00900757
-0.0090016
-0.00898824
-0.00896668
-0.00893018
-0.00886442
-0.00968203
-0.00906649
-0.00845536
-0.00786128
-0.00729678
-0.0067739
-0.0063038
-0.00589634
-0.00555975
-0.00530019
-0.0051215
-0.00502498
-0.00500926
-0.00507037
-0.00520184
-0.00539507
-0.00563972
-0.00592426
-0.00623656
-0.00656449
-0.0068965
-0.00722218
-0.00753258
-0.00782056
-0.00808088
-0.00831023
-0.00850713
-0.00867169
-0.00880537
-0.00891071
-0.00899093
-0.00904967
-0.00909067
-0.00911749
-0.00913326
-0.0091405
-0.00914086
-0.00913502
-0.00912292
-0.0091039
-0.00907216
-0.00901539
-0.0120277
-0.0113542
-0.0106731
-0.00999708
-0.00933921
-0.00871223
-0.00812838
-0.00759898
-0.00713401
-0.00674169
-0.00642815
-0.0061971
-0.00604961
-0.00598404
-0.00599607
-0.00607889
-0.00622356
-0.00641946
-0.0066549
-0.00691769
-0.00719583
-0.00747807
-0.00775438
-0.00801637
-0.00825752
-0.00847321
-0.00866077
-0.00881924
-0.00894917
-0.00905236
-0.00913148
-0.00918976
-0.0092307
-0.00925775
-0.00927401
-0.00928205
-0.00928367
-0.0092797
-0.00927027
-0.00925489
-0.00922874
-0.00918158
-0.0147493
-0.014018
-0.0132657
-0.0125049
-0.0117487
-0.0110104
-0.0103031
-0.00963934
-0.00903084
-0.0084879
-0.00801907
-0.00763078
-0.00732694
-0.00710878
-0.00697473
-0.00692045
-0.00693907
-0.00702153
-0.00715712
-0.00733407
-0.00754021
-0.00776362
-0.00799324
-0.00821935
-0.00843394
-0.00863085
-0.00880592
-0.0089568
-0.00908285
-0.00918481
-0.00926451
-0.00932457
-0.009368
-0.00939793
-0.00941731
-0.00942863
-0.00943371
-0.00943349
-0.00942822
-0.00941754
-0.00939758
-0.00936009
-0.0178338
-0.0170483
-0.0162274
-0.0153832
-0.0145284
-0.0136764
-0.0128408
-0.0120352
-0.0112726
-0.0105654
-0.00992439
-0.00935891
-0.00887601
-0.00848024
-0.00817335
-0.00795421
-0.00781877
-0.00776035
-0.00776997
-0.00783691
-0.00794935
-0.00809507
-0.00826213
-0.00843949
-0.00861752
-0.00878833
-0.00894592
-0.00908627
-0.00920713
-0.00930791
-0.00938927
-0.0094529
-0.00950109
-0.00953645
-0.00956151
-0.0095786
-0.00958938
-0.00959481
-0.00959517
-0.0095902
-0.00957683
-0.0095486
-0.0212498
-0.0204173
-0.0195345
-0.0186127
-0.0176641
-0.0167016
-0.015739
-0.0147901
-0.0138691
-0.0129897
-0.0121652
-0.0114075
-0.0107268
-0.0101313
-0.00962665
-0.00921548
-0.00889745
-0.00866913
-0.00852421
-0.0084539
-0.00844749
-0.00849303
-0.0085781
-0.00869053
-0.00881905
-0.00895383
-0.00908682
-0.0092119
-0.0093249
-0.00942344
-0.00950671
-0.0095751
-0.00962987
-0.00967286
-0.00970603
-0.00973123
-0.00974988
-0.00976279
-0.00977019
-0.00977183
-0.00976529
-0.00974564
-0.0249496
-0.0240797
-0.0231452
-0.0221561
-0.0211235
-0.0200596
-0.0189773
-0.0178906
-0.0168139
-0.0157621
-0.0147499
-0.0137916
-0.0129006
-0.0120886
-0.0113652
-0.0107376
-0.0102098
-0.00978259
-0.00945334
-0.00921629
-0.00906287
-0.00898229
-0.00896229
-0.00899
-0.0090527
-0.00913859
-0.00923729
-0.0093403
-0.00944106
-0.00953501
-0.00961938
-0.00969292
-0.00975555
-0.00980795
-0.00985126
-0.00988668
-0.00991518
-0.00993729
-0.00995304
-0.0099621
-0.00996253
-0.00995058
-0.0288715
-0.0279761
-0.0270027
-0.02596
-0.0248576
-0.0237062
-0.0225178
-0.0213055
-0.0200835
-0.0188667
-0.017671
-0.0165123
-0.0154064
-0.0143684
-0.0134119
-0.0125486
-0.0117875
-0.0111345
-0.0105917
-0.0101575
-0.00982688
-0.00959127
-0.00943964
-0.00935915
-0.0093361
-0.00935686
-0.00940868
-0.00948032
-0.00956246
-0.00964787
-0.00973135
-0.0098095
-0.00988048
-0.00994352
-0.00999859
-0.010046
-0.0100861
-0.0101189
-0.0101442
-0.0101614
-0.0101689
-0.0101638
-0.0329457
-0.0320372
-0.0310393
-0.0299588
-0.0288036
-0.0275828
-0.0263066
-0.0249869
-0.0236366
-0.0222704
-0.0209039
-0.0195538
-0.0182378
-0.0169733
-0.0157778
-0.0146671
-0.0136556
-0.0127545
-0.0119717
-0.0113112
-0.0107726
-0.0103511
-0.0100384
-0.00982271
-0.00969022
-0.00962597
-0.00961495
-0.00964306
-0.00969783
-0.00976884
-0.00984792
-0.00992902
-0.010008
-0.0100822
-0.0101502
-0.010211
-0.0102641
-0.0103089
-0.0103447
-0.0103708
-0.0103854
-0.0103864
-0.0370997
-0.0361905
-0.0351824
-0.0340806
-0.032891
-0.0316209
-0.0302785
-0.0288737
-0.0274179
-0.0259241
-0.0244072
-0.0228837
-0.0213717
-0.0198904
-0.0184598
-0.0170996
-0.0158288
-0.0146646
-0.013621
-0.0127084
-0.0119325
-0.0112942
-0.0107891
-0.0104083
-0.0101392
-0.00996623
-0.00987276
-0.00984187
-0.00985769
-0.00990619
-0.00997561
-0.0100566
-0.0101423
-0.0102275
-0.0103089
-0.010384
-0.0104513
-0.0105092
-0.0105565
-0.0105919
-0.0106139
-0.0106204
-0.0412648
-0.0403656
-0.0393605
-0.038253
-0.0370472
-0.0357483
-0.0343623
-0.032897
-0.0313615
-0.0297667
-0.0281259
-0.0264541
-0.024769
-0.0230901
-0.0214387
-0.0198373
-0.0183089
-0.0168758
-0.0155585
-0.0143743
-0.0133361
-0.0124518
-0.0117231
-0.0111456
-0.0107096
-0.0104007
-0.0102014
-0.0100924
-0.0100545
-0.0100696
-0.010122
-0.0101983
-0.0102881
-0.0103833
-0.010478
-0.010568
-0.0106501
-0.010722
-0.0107816
-0.010827
-0.0108566
-0.0108685
-0.0453802
-0.0444999
-0.0435088
-0.0424092
-0.0412035
-0.0398948
-0.0384872
-0.0369858
-0.0353974
-0.0337305
-0.0319957
-0.030206
-0.0283773
-0.0265281
-0.0246797
-0.022856
-0.0210826
-0.0193858
-0.017792
-0.0163253
-0.0150066
-0.0138518
-0.0128703
-0.0120646
-0.01143
-0.0109549
-0.0106225
-0.0104124
-0.0103024
-0.0102704
-0.0102958
-0.0103609
-0.0104508
-0.0105538
-0.0106611
-0.010766
-0.0108636
-0.0109501
-0.0110226
-0.0110787
-0.0111164
-0.0111338
-0.0493972
-0.0485418
-0.0475733
-0.0464923
-0.0453001
-0.0439979
-0.0425879
-0.041073
-0.0394573
-0.0377466
-0.0359486
-0.0340737
-0.0321349
-0.0301486
-0.0281348
-0.0261168
-0.0241213
-0.0221773
-0.0203153
-0.018566
-0.0169577
-0.0155151
-0.0142568
-0.0131938
-0.0123287
-0.0116555
-0.01116
-0.0108222
-0.0106178
-0.0105211
-0.0105068
-0.0105518
-0.0106362
-0.0107439
-0.0108622
-0.0109815
-0.0110946
-0.0111963
-0.0112824
-0.0113499
-0.0113962
-0.0114197
-0.0532798
-0.052453
-0.0515124
-0.0504577
-0.0492889
-0.048006
-0.0466094
-0.0450998
-0.0434793
-0.0417507
-0.0399189
-0.0379909
-0.0359767
-0.0338894
-0.0317464
-0.029569
-0.0273831
-0.0252184
-0.0231082
-0.0210875
-0.0191916
-0.0174536
-0.0159018
-0.0145575
-0.0134327
-0.0125293
-0.0118387
-0.0113433
-0.0110188
-0.0108363
-0.0107661
-0.0107794
-0.0108507
-0.0109584
-0.0110852
-0.0112178
-0.0113464
-0.0114636
-0.0115641
-0.0116436
-0.0116994
-0.0117299
-0.0570045
-0.0562079
-0.0552981
-0.0542741
-0.0531353
-0.0518805
-0.0505087
-0.0490193
-0.0474119
-0.0456873
-0.0438473
-0.0418958
-0.0398391
-0.0376868
-0.0354526
-0.0331545
-0.0308159
-0.0284654
-0.0261365
-0.023867
-0.0216971
-0.0196673
-0.0178154
-0.0161734
-0.0147647
-0.0136015
-0.0126836
-0.0119989
-0.011525
-0.011232
-0.0110861
-0.0110532
-0.0111013
-0.0112026
-0.0113343
-0.0114786
-0.0116222
-0.0117552
-0.0118705
-0.011963
-0.0120292
-0.012068
-0.0605595
-0.0597926
-0.058914
-0.0579227
-0.0568171
-0.0555955
-0.0542562
-0.052797
-0.0512161
-0.0495123
-0.0476848
-0.0457347
-0.0436647
-0.0414807
-0.0391919
-0.0368125
-0.0343619
-0.0318655
-0.0293553
-0.0268692
-0.0244501
-0.0221437
-0.0199963
-0.0180503
-0.0163411
-0.0148934
-0.0137182
-0.0128119
-0.0121572
-0.0117256
-0.0114809
-0.0113838
-0.0113958
-0.0114823
-0.011614
-0.0117674
-0.011925
-0.0120739
-0.0122049
-0.0123113
-0.0123891
-0.0124376
-0.0639415
-0.0632026
-0.0623542
-0.061395
-0.0603233
-0.0591371
-0.0578339
-0.0564109
-0.0548652
-0.0531938
-0.0513943
-0.049465
-0.0474057
-0.0452183
-0.0429082
-0.0404845
-0.037962
-0.0353619
-0.0327122
-0.0300487
-0.0274144
-0.0248578
-0.0224311
-0.020186
-0.0181698
-0.0164205
-0.0149625
-0.0138041
-0.0129366
-0.0123357
-0.0119655
-0.0117829
-0.0117432
-0.0118041
-0.011929
-0.0120881
-0.0122583
-0.0124229
-0.0125701
-0.0126914
-0.0127822
-0.0128423
-0.0671542
-0.0664406
-0.06562
-0.0646909
-0.0636518
-0.0625005
-0.0612343
-0.0598499
-0.0583437
-0.0567119
-0.0549505
-0.0530558
-0.0510251
-0.0488572
-0.0465532
-0.0441179
-0.0415608
-0.0388976
-0.0361515
-0.0333538
-0.030545
-0.0277736
-0.0250948
-0.0225672
-0.0202485
-0.01819
-0.0164309
-0.0149942
-0.013883
-0.0130813
-0.0125564
-0.0122637
-0.0121532
-0.0121752
-0.0122849
-0.0124447
-0.0126253
-0.0128053
-0.0129693
-0.0131066
-0.0132117
-0.0132852
-0.0702051
-0.0695139
-0.0687179
-0.0678161
-0.066807
-0.0656884
-0.0644577
-0.0631115
-0.0616459
-0.0600566
-0.0583387
-0.0564872
-0.0544974
-0.0523655
-0.0500891
-0.0476689
-0.0451093
-0.0424202
-0.0396188
-0.0367307
-0.0337915
-0.0308469
-0.0279521
-0.0251694
-0.0225643
-0.0202001
-0.018131
-0.0163961
-0.015014
-0.0139806
-0.0132703
-0.0128402
-0.0126369
-0.0126039
-0.0126875
-0.0128418
-0.0130299
-0.0132242
-0.0134054
-0.0135597
-0.0136807
-0.0137697
-0.0731044
-0.0724323
-0.0716577
-0.0707797
-0.0697971
-0.0687079
-0.0675098
-0.0661994
-0.0647731
-0.0632261
-0.0615534
-0.0597491
-0.0578072
-0.055722
-0.0534885
-0.0511037
-0.0485673
-0.0458838
-0.0430641
-0.0401271
-0.0371019
-0.034029
-0.0309603
-0.0279586
-0.0250939
-0.0224388
-0.0200614
-0.0180175
-0.0163431
-0.01505
-0.0141238
-0.0135273
-0.0132065
-0.0130993
-0.0131438
-0.0132845
-0.0134757
-0.013683
-0.0138815
-0.0140539
-0.0141922
-0.0142989
-0.0752068
-0.0744502
-0.0735925
-0.0726327
-0.0715691
-0.0703997
-0.0691216
-0.0677313
-0.0662244
-0.0645956
-0.062839
-0.0609478
-0.058915
-0.0567338
)
;

boundaryField
{
    movingWall
    {
        type            zeroGradient;
    }
    fixedWalls
    {
        type            zeroGradient;
    }
    frontAndBack
    {
        type            empty;
    }
    procBoundary7to1
    {
        type            processor;
        value           nonuniform List<scalar> 
33
(
-0.000106004
-0.000396153
-0.000599481
-0.0008024
-0.0010653
-0.00142604
-0.00192329
-0.00294905
-0.00259711
-0.00259711
-0.00478998
-0.0043225
-0.0043225
-0.00660892
-0.00827085
-0.0102895
-0.0126813
-0.0154476
-0.0185725
-0.022022
-0.025746
-0.0296817
-0.0337588
-0.0379058
-0.0420551
-0.0461484
-0.0501388
-0.0539926
-0.0576883
-0.0612154
-0.0645717
-0.0677614
-0.0707923
)
;
    }
    procBoundary7to6
    {
        type            processor;
        value           nonuniform List<scalar> 
45
(
-0.0736745
-0.0758628
-0.0543983
-0.0519044
-0.0492516
-0.0464447
-0.0434957
-0.0404262
-0.0372697
-0.0340723
-0.0308938
-0.0278052
-0.0248848
-0.022212
-0.0198582
-0.0178782
-0.0163024
-0.015132
-0.0143396
-0.0138745
-0.0136716
-0.0136613
-0.0137783
-0.0139673
-0.0141852
-0.0144007
-0.014592
-0.0147492
-0.0148756
-0.0758628
-0.0778479
-0.0771064
-0.0762656
-0.0753248
-0.0742829
-0.0731381
-0.0718882
-0.0705298
-0.0690592
-0.0674712
-0.0657601
-0.063919
-0.0619403
-0.0543983
-0.0598159
)
;
    }
}


// ************************************************************************* //
