/*--------------------------------*- C++ -*----------------------------------*\
  =========                 |
  \\      /  F ield         | OpenFOAM: The Open Source CFD Toolbox
   \\    /   O peration     | Website:  https://openfoam.org
    \\  /    A nd           | Version:  9
     \\/     M anipulation  |
\*---------------------------------------------------------------------------*/
FoamFile
{
    format      ascii;
    class       volScalarField;
    location    "2.5";
    object      p;
}
// * * * * * * * * * * * * * * * * * * * * * * * * * * * * * * * * * * * * * //

dimensions      [0 2 -2 0 0 0 0];

internalField   nonuniform List<scalar> 
1250
(
-1.85127e-07
1.73619e-05
2.70537e-05
2.48601e-05
7.71809e-06
-2.52355e-05
-7.33786e-05
-0.000135432
-0.000209924
-0.000295411
-0.000390617
-0.000494516
-0.000606358
-0.000725672
-0.000852245
-0.000986087
-0.00112737
-0.0012764
-0.00143353
-0.00159909
-0.00177341
-0.00195667
-0.00214894
-0.00235011
-0.00255985
-0.00277762
-0.0030026
-0.00323371
-0.00346957
-1.82272e-05
-4.41528e-07
5.22764e-06
-9.19658e-07
-1.97634e-05
-5.20861e-05
-9.76478e-05
-0.000155636
-0.00022501
-0.000304684
-0.000393661
-0.000491113
-0.000596385
-0.000709095
-0.000829033
-0.000956181
-0.00109067
-0.00123273
-0.00138263
-0.00154068
-0.00170713
-0.00188214
-0.00206576
-0.00225789
-0.00245826
-0.00266636
-0.00288149
-0.00310266
-0.00332863
-2.82021e-05
-6.25101e-06
-6.44912e-07
-7.98774e-06
-2.74241e-05
-5.93713e-05
-0.000103564
-0.000159263
-0.00022556
-0.00030152
-0.000386282
-0.000479113
-0.000579488
-0.000687033
-0.00080159
-0.000923165
-0.0010519
-0.00118801
-0.0013318
-0.00148355
-0.00164352
-0.00181191
-0.0019888
-0.00217414
-0.00236772
-0.00256914
-0.00277778
-0.00299278
-0.00321301
-2.62433e-05
-3.08225e-07
6.06825e-06
-1.70459e-06
-2.15464e-05
-5.34799e-05
-9.70415e-05
-0.000151405
-0.000215666
-0.000288939
-0.000370421
-0.000459455
-0.000555565
-0.000658462
-0.000768041
-0.000884363
-0.00100762
-0.00113808
-0.00127608
-0.00142198
-0.0015761
-0.00173868
-0.00190991
-0.00208982
-0.0022783
-0.00247508
-0.00267968
-0.00289135
-0.00310913
-8.97588e-06
1.84815e-05
2.46934e-05
1.60754e-05
-4.60486e-06
-3.70365e-05
-8.05466e-05
-0.000134196
-0.000197042
-0.000268202
-0.000346911
-0.000432565
-0.000524755
-0.000623268
-0.000728082
-0.00083934
-0.000957315
-0.00108238
-0.00121496
-0.00135552
-0.00150447
-0.00166219
-0.00182898
-0.00200503
-0.00219038
-0.00238491
-0.00258829
-0.00279997
-0.00301913
2.50643e-05
5.1339e-05
5.60509e-05
4.57877e-05
2.35918e-05
-9.96806e-06
-5.40463e-05
-0.000107601
-0.000169636
-0.000239263
-0.000315744
-0.000398526
-0.000487277
-0.000581874
-0.000682397
-0.000789106
-0.0009024
-0.00102279
-0.00115084
-0.00128717
-0.00143236
-0.00158696
-0.00175144
-0.0019262
-0.00211148
-0.00230734
-0.00251368
-0.0027301
-0.00295594
7.607e-05
9.86424e-05
0.000100422
8.75651e-05
6.30816e-05
2.77207e-05
-1.75428e-05
-7.15915e-05
-0.000133394
-0.000202063
-0.000276896
-0.000357403
-0.000443342
-0.000534703
-0.000631698
-0.000734739
-0.000844394
-0.000961357
-0.0010864
-0.00122033
-0.00136397
-0.0015181
-0.00168344
-0.00186062
-0.00205012
-0.00225227
-0.00246715
-0.00269454
-0.00293392
0.000143639
0.000160213
0.000157664
0.000141246
0.000113696
7.58841e-05
2.88667e-05
-2.62128e-05
-8.8325e-05
-0.000156608
-0.000230415
-0.000309348
-0.000393276
-0.00048233
-0.000576891
-0.000677564
-0.000785137
-0.000900538
-0.00102479
-0.00115899
-0.00130423
-0.00146159
-0.0016321
-0.00181667
-0.00201608
-0.00223089
-0.0024614
-0.00270753
-0.00296884
0.000227032
0.000235532
0.000227372
0.000206472
0.000175147
0.000134308
8.50327e-05
2.8431e-05
-3.45163e-05
-0.000103016
-0.000176512
-0.000254725
-0.000337673
-0.000425666
-0.000519298
-0.000619415
-0.000727075
-0.000843502
-0.000970042
-0.00110812
-0.00125918
-0.00142467
-0.00160596
-0.00180429
-0.00202073
-0.00225609
-0.00251085
-0.00278499
-0.00307809
0.00032524
0.000323765
0.000308868
0.000282608
0.000246937
0.000202595
0.000150626
9.20427e-05
2.77197e-05
-4.16672e-05
-0.0001157
-0.000194259
-0.000277554
-0.000366122
-0.000460819
-0.000562788
-0.000673415
-0.000794284
-0.000927125
-0.00107376
-0.00123607
-0.00141587
-0.00161492
-0.00183482
-0.0020769
-0.00234219
-0.00263126
-0.00294408
-0.0032801
0.00043695
0.00042367
0.000400941
0.000368881
0.000328292
0.000280036
0.000224998
0.000163986
9.77016e-05
2.66453e-05
-4.89543e-05
-0.00012919
-0.000214516
-0.000305751
-0.00040407
-0.000510974
-0.000628242
-0.000757884
-0.000902079
-0.00106311
-0.00124331
-0.00144493
-0.00167013
-0.00192081
-0.00219855
-0.0025045
-0.00283924
-0.00320257
-0.0035937
0.000560384
0.000533738
0.00050228
0.000463808
0.000417974
0.000365521
0.000307065
0.000243157
0.000174242
0.00010058
2.21482e-05
-6.14181e-05
-0.000150877
-0.000247391
-0.000352516
-0.000468178
-0.000596618
-0.000740336
-0.000902019
-0.00108446
-0.00129045
-0.00152271
-0.00178374
-0.00207572
-0.00240038
-0.00275889
-0.00315168
-0.00357825
-0.00403741
0.000693431
0.000651848
0.000610911
0.000565623
0.000514306
0.000457397
0.000395197
0.000327872
0.000255533
0.000178125
9.53082e-05
6.38087e-06
-8.97856e-05
-0.000194762
-0.000310558
-0.000439591
-0.000584632
-0.000748729
-0.000935117
-0.00114711
-0.001388
-0.00166091
-0.00196864
-0.00231355
-0.00269741
-0.00312125
-0.0035852
-0.00408832
-0.00462885
0.000833361
0.000775403
0.000724356
0.000671995
0.000615003
0.000553441
0.000487137
0.000415774
0.000339042
0.000256495
0.000167406
7.06642e-05
-3.52995e-05
-0.000152536
-0.00028358
-0.000431412
-0.000599386
-0.000791143
-0.00101049
-0.00126127
-0.00154723
-0.00187182
-0.00223807
-0.0026484
-0.00310443
-0.00360693
-0.00415555
-0.00474873
-0.00538401
0.000976825
0.000901206
0.000839578
0.000779949
0.000717178
0.000650756
0.000579915
0.00050375
0.00042144
0.000332069
0.000234445
0.000126976
7.57972e-06
-0.000126351
-0.000277943
-0.0004508
-0.000648908
-0.000876519
-0.00113802
-0.00143774
-0.00177981
-0.00216794
-0.00260522
-0.00309397
-0.00363554
-0.00423019
-0.00487698
-0.00557356
-0.00631663
0.00111983
0.00102554
0.00095286
0.000885887
0.000817254
0.000745723
0.000669804
0.000587893
0.000498564
0.000400353
0.000291527
0.000169941
3.29203e-05
-0.000122768
-0.000300909
-0.000505773
-0.000742002
-0.00101447
-0.00132809
-0.00168763
-0.0020975
-0.00256152
-0.0030827
-0.00366307
-0.0043035
-0.00500363
-0.00576168
-0.00657441
-0.00743753
0.00125782
0.00114378
0.00105987
0.000985538
0.000910954
0.000833993
0.000752306
0.000663483
0.00056541
0.000455992
0.000332885
0.000193308
3.39263e-05
-0.000149185
-0.000360515
-0.000605033
-0.000888042
-0.001215
-0.00159129
-0.00202202
-0.00251173
-0.00306418
-0.00368212
-0.00436709
-0.00511932
-0.00593759
-0.00681917
-0.00775976
-0.00875398
0.00138525
0.00125091
0.00115563
0.00107396
0.000993308
0.000910486
0.000822163
0.000725022
0.000616176
0.00049283
0.000351947
0.000190044
3.05905e-06
-0.000213674
-0.000465385
-0.000757746
-0.00109669
-0.00148821
-0.00193806
-0.00245152
-0.00303312
-0.00368637
-0.00441356
-0.00521553
-0.00609164
-0.00703968
-0.00805579
-0.00913446
-0.0102691
0.00149629
0.00134123
0.00123458
0.00114561
0.00105869
0.000969445
0.000873416
0.000766296
0.000644347
0.000504
0.000341459
0.000152476
-6.77908e-05
-0.000324787
-0.000624492
-0.000973263
-0.00137762
-0.00184396
-0.00237829
-0.00298592
-0.00367115
-0.00443703
-0.00528517
-0.00621553
-0.00722639
-0.00831434
-0.00947425
-0.0106993
-0.0119815
0.0015844
0.00140851
0.00129058
0.00119435
0.00110091
0.00100451
0.000899503
0.000780486
0.000642811
0.000482069
0.00029365
7.24835e-05
-0.000187087
-0.000491303
-0.000846882
-0.00126082
-0.00174011
-0.00229147
-0.00292098
-0.00363375
-0.00443367
-0.00532312
-0.00630277
-0.0073715
-0.00852633
-0.00976246
-0.0110733
-0.0124506
-0.0138849
0.00164263
0.0014461
0.0013171
0.00121362
0.00111329
0.00100887
0.000893383
0.00076031
0.000604023
0.000419222
0.00020043
-5.82779e-05
-0.000363398
-0.000721961
-0.00114138
-0.0016292
-0.0021928
-0.00283902
-0.00357382
-0.00440194
-0.00532661
-0.00634928
-0.0074695
-0.00868484
-0.00999085
-0.0113812
-0.0128476
-0.0143803
0.00166371
0.00144703
0.00130728
0.00119653
0.00108884
0.000975341
0.000847704
0.000698206
0.000520206
0.000307473
5.3633e-05
-0.000248122
-0.000605123
-0.00102516
-0.00151627
-0.00208644
-0.00274327
-0.00349355
-0.00434293
-0.00529551
-0.00635364
-0.00751761
-0.00878562
-0.0101537
-0.0116158
-0.0131638
-0.0147877
-0.0164762
0.00164024
0.00140423
0.0012541
0.00113604
0.0010204
0.000896635
0.000754995
0.000586533
0.000383568
0.00013891
-0.000154737
-0.00050506
-0.000920205
-0.00140866
-0.00197898
-0.00263947
-0.00339777
-0.00426043
-0.00523251
-0.0063173
-0.00751597
-0.00882746
-0.0102484
-0.0117731
-0.0133936
-0.0151
-0.0168805
-0.0187219
0.00156486
0.00131064
0.00115061
0.00102512
0.000900853
0.0007655
0.000607878
0.000417808
0.000186548
-9.40609e-05
-0.000432237
-0.000836531
-0.00131585
-0.00187929
-0.00253582
-0.00329388
-0.00416097
-0.00514314
-0.0062447
-0.0074678
-0.00881226
-0.0102754
-0.0118521
-0.0135346
-0.0153133
-0.0171761
-0.0191093
-0.0210981
0.00143045
0.00115943
0.000990043
0.000856988
0.000723314
0.000574962
0.000399304
0.000184933
-7.79457e-05
-0.00039846
-0.000785732
-0.00124913
-0.00179826
-0.00244271
-0.00319171
-0.00405367
-0.0050357
-0.00614318
-0.00737937
-0.00874509
-0.0102385
-0.0118553
-0.0135881
-0.0154274
-0.0173612
-0.0193756
-0.021455
-0.0235829
0.00123034
0.000944212
0.000766065
0.000625262
0.000481357
0.000318541
0.00012277
-0.000118563
-0.000416292
-0.000780488
-0.00122114
-0.00174838
-0.0023724
-0.00310316
-0.00394999
-0.00492105
-0.00602288
-0.00725991
-0.00863415
-0.0101448
-0.0117884
-0.0135583
-0.0154453
-0.0174376
-0.0195211
-0.0216799
-0.0238966
-0.026153
0.000958524
0.000659216
0.000472968
0.000324216
0.000169222
-9.53e-06
-0.000227452
-0.000498309
-0.000833933
-0.0012453
-0.00174322
-0.00233849
-0.00304178
-0.00386329
-0.00481224
-0.00589635
-0.00712136
-0.00849054
-0.0100044
-0.0116604
-0.013453
-0.0153735
-0.0174103
-0.0195496
-0.0217751
-0.0240688
-0.0264118
-0.0287845
0.000609823
0.00029949
0.000105854
-5.10492e-05
-0.000217988
-0.000414107
-0.000656117
-0.000958879
-0.00133517
-0.00179682
-0.00235538
-0.00302221
-0.00380835
-0.00472403
-0.00577821
-0.00697796
-0.00832798
-0.00983019
-0.0114834
-0.0132831
-0.0152215
-0.0172878
-0.0194681
-0.0217463
-0.0241039
-0.0265215
-0.0289783
-0.0314538
0.000180094
-0.00013893
-0.000339185
-0.000504429
-0.000684127
-0.000898955
-0.00116683
-0.00150363
-0.00192301
-0.00243758
-0.00305954
-0.00380071
-0.00467234
-0.00568455
-0.00684581
-0.00816235
-0.00963764
-0.011272
-0.0130624
-0.0150022
-0.0170814
-0.0192868
-0.0216023
-0.0240095
-0.0264881
-0.029017
-0.0315742
-0.0341383
-0.000333638
-0.000658872
-0.000864925
-0.00103866
-0.00123186
-0.00146659
-0.00176189
-0.00213454
-0.00259901
-0.0031686
-0.00385604
-0.0046735
-0.00563228
-0.00674221
-0.00801111
-0.00944414
-0.0110434
-0.0128074
-0.0147311
-0.0168057
-0.0190188
-0.021355
-0.0237958
-0.0263208
-0.0289081
-0.0315349
-0.0341786
-0.0368172
-0.000933059
-0.00126191
-0.00147289
-0.0016552
-0.00186253
-0.0021182
-0.0024422
-0.00285216
-0.00336324
-0.00398932
-0.00474359
-0.00563842
-0.00668498
-0.00789266
-0.00926844
-0.0108163
-0.0125366
-0.0144262
-0.0164778
-0.0186803
-0.021019
-0.0234762
-0.0260313
-0.028662
-0.0313449
-0.0340562
-0.0367725
-0.0394716
-0.00161848
-0.00194829
-0.00216326
-0.00235416
-0.0025761
-0.0028535
-0.0032072
-0.0036555
-0.00421418
-0.00489762
-0.00571929
-0.00669164
-0.00782559
-0.00912991
-0.0106106
-0.0122701
-0.0141074
-0.016117
-0.0182896
-0.0206118
-0.0230667
-0.0256341
-0.0282917
-0.0310155
-0.0337809
-0.0365631
-0.0393385
-0.042085
-0.00238879
-0.00271685
-0.00293484
-0.00313423
-0.00337111
-0.00367079
-0.00405482
-0.00454208
-0.00514882
-0.00588979
-0.00677867
-0.00782782
-0.00904776
-0.0104465
-0.0120288
-0.0137959
-0.0157446
-0.0178676
-0.0201532
-0.0225859
-0.0251464
-0.0278127
-0.0305606
-0.0333647
-0.0361994
-0.0390396
-0.0418615
-0.0446433
-0.00324145
-0.00356508
-0.00378506
-0.00399272
-0.00424466
-0.00456692
-0.00498157
-0.00550793
-0.00616263
-0.00696067
-0.00791579
-0.00904014
-0.0103437
-0.0118336
-0.0135134
-0.0153826
-0.0174362
-0.0196648
-0.0220546
-0.0245877
-0.0272429
-0.0299963
-0.0328222
-0.0356941
-0.0385857
-0.0414716
-0.0443283
-0.0471347
-0.00417254
-0.00448908
-0.00470996
-0.00492557
-0.0051925
-0.00553732
-0.00598251
-0.00654768
-0.0072497
-0.0081037
-0.00912337
-0.0103205
-0.0117045
-0.0132815
-0.0150535
-0.0170185
-0.0191697
-0.0214954
-0.0239797
-0.0266029
-0.0293416
-0.0321704
-0.0350623
-0.0379899
-0.0409265
-0.0438468
-0.0467279
-0.0495494
-0.00517681
-0.00548368
-0.00570434
-0.00592742
-0.00620905
-0.00657616
-0.00705144
-0.00765468
-0.00840285
-0.00931113
-0.010393
-0.0116599
-0.0131203
-0.0147793
-0.0166377
-0.0186915
-0.0209321
-0.0233459
-0.0259149
-0.0286174
-0.0314285
-0.0343211
-0.0372674
-0.0402394
-0.0432103
-0.046155
-0.0490512
-0.0518796
-0.0062478
-0.00654252
-0.00676178
-0.00699173
-0.00728756
-0.00767639
-0.00818099
-0.00882114
-0.00961383
-0.0105741
-0.0117152
-0.013048
-0.0145803
-0.0163157
-0.0182538
-0.0203889
-0.0227105
-0.025203
-0.0278467
-0.0306179
-0.0334903
-0.0364359
-0.0394257
-0.0424317
-0.045427
-0.0483872
-0.0512907
-0.0541193
-0.00737796
-0.00765817
-0.00787486
-0.00811092
-0.00842025
-0.00882997
-0.00936275
-0.0100383
-0.0108734
-0.011883
-0.0130799
-0.0144744
-0.0160732
-0.017879
-0.0198898
-0.0220983
-0.024492
-0.0270539
-0.0297621
-0.0325918
-0.0355151
-0.0385032
-0.0415266
-0.0445572
-0.0475683
-0.0505363
-0.0534405
-0.0562637
-0.00855882
-0.00882233
-0.00903521
-0.00927651
-0.00959844
-0.010028
-0.0105875
-0.0112966
-0.0121717
-0.0132275
-0.0144763
-0.0159277
-0.0175875
-0.0194573
-0.0215334
-0.0238071
-0.0262643
-0.028886
-0.0316492
-0.0345273
-0.0374918
-0.0405127
-0.0435607
-0.0466075
-0.049627
-0.0525963
-0.0554957
-0.0583093
-0.00978112
-0.0100259
-0.0102338
-0.0104793
-0.0108128
-0.0112608
-0.0118454
-0.0125858
-0.0134982
-0.0145967
-0.0158932
-0.0173964
-0.0191114
-0.0210384
-0.0231725
-0.0255033
-0.0280152
-0.0306878
-0.0334965
-0.0364138
-0.0394102
-0.0424554
-0.0455199
-0.0485756
-0.0515972
-0.0545624
-0.0574527
-0.0602533
-0.0110351
-0.0112593
-0.0114609
-0.0117096
-0.0120533
-0.0125183
-0.0131261
-0.0138955
-0.014842
-0.0159796
-0.0173193
-0.0188692
-0.0206334
-0.0226108
-0.0247953
-0.0271752
-0.0297333
-0.032448
-0.0352936
-0.0382414
-0.0412614
-0.0443232
-0.047397
-0.0504555
-0.0534738
-0.0564306
-0.0593085
-0.0620937
-0.0123105
-0.0125126
-0.0127067
-0.0129573
-0.0133099
-0.0137901
-0.0144191
-0.0152147
-0.0161923
-0.017365
-0.0187433
-0.0203346
-0.0221418
-0.0241629
-0.0263906
-0.0288117
-0.0314081
-0.0341566
-0.0370308
-0.0400013
-0.0430375
-0.0461088
-0.049186
-0.052242
-0.0552527
-0.0581977
-0.0610607
-0.0638288
-0.0135969
-0.0137755
-0.013961
-0.0142123
-0.0145722
-0.0150658
-0.0157136
-0.0165329
-0.0175382
-0.018742
-0.0201543
-0.0217815
-0.0236257
-0.0256839
-0.0279476
-0.0304026
-0.0330294
-0.0358042
-0.0386995
-0.0416854
-0.0447312
-0.0478063
-0.0508816
-0.0539307
-0.0569304
-0.0598612
-0.0627075
-0.0654575
-0.0152136
-0.0154642
-0.0158298
-0.0163349
-0.0169992
-0.0178392
-0.0188687
-0.0200997
-0.0215412
-0.023199
-0.0250744
-0.0271633
-0.0294562
-0.031938
-0.0345882
-0.0373821
-0.0402917
-0.0432868
-0.0463363
-0.04941
-0.0524792
-0.055518
-0.0585041
-0.0614187
-0.0642472
-0.0669786
)
;

boundaryField
{
    movingWall
    {
        type            zeroGradient;
    }
    fixedWalls
    {
        type            zeroGradient;
    }
    frontAndBack
    {
        type            empty;
    }
    procBoundary0to1
    {
        type            processor;
        value           nonuniform List<scalar> 
45
(
-0.00370848
-0.00355786
-0.0034371
-0.00333179
-0.00324469
-0.00319028
-0.00318448
-0.00324456
-0.00338928
-0.00363825
-0.00401119
-0.00452722
-0.00520419
-0.006058
-0.0071019
-0.00834577
-0.00979544
-0.0114521
-0.013312
-0.0153659
-0.0159685
-0.0159685
-0.0182167
-0.0206103
-0.0231269
-0.0257422
-0.0284309
-0.0311675
-0.0339278
-0.0366887
-0.0394298
-0.0421329
-0.0447826
-0.0473659
-0.0498725
-0.052294
-0.0546241
-0.0568581
-0.0589924
-0.0610246
-0.0629529
-0.0647759
-0.0664929
-0.0681029
-0.0696055
)
;
    }
    procBoundary0to3
    {
        type            processor;
        value           nonuniform List<scalar> 
29
(
-0.0148841
-0.015038
-0.015038
-0.0164547
-0.0167032
-0.0170728
-0.0175873
-0.0182657
-0.0191235
-0.0201738
-0.0214279
-0.022894
-0.0245773
-0.0264781
-0.0285915
-0.0309072
-0.0334091
-0.0360761
-0.0388827
-0.0418005
-0.0447991
-0.0478474
-0.0509154
-0.053975
-0.0570008
-0.0599712
-0.0628684
-0.0656784
-0.0683913
)
;
    }
}


// ************************************************************************* //
