/*--------------------------------*- C++ -*----------------------------------*\
  =========                 |
  \\      /  F ield         | OpenFOAM: The Open Source CFD Toolbox
   \\    /   O peration     | Website:  https://openfoam.org
    \\  /    A nd           | Version:  9
     \\/     M anipulation  |
\*---------------------------------------------------------------------------*/
FoamFile
{
    format      ascii;
    class       surfaceScalarField;
    location    "2.5";
    object      phi;
}
// * * * * * * * * * * * * * * * * * * * * * * * * * * * * * * * * * * * * * //

dimensions      [0 3 -1 0 0 0 0];

internalField   nonuniform List<scalar> 
2427
(
8.74202e-11
-8.59598e-11
8.72287e-10
-7.84883e-10
2.22684e-09
-1.35454e-09
3.89181e-09
-1.66499e-09
5.657e-09
-1.76518e-09
7.36877e-09
-1.71176e-09
8.92101e-09
-1.55225e-09
1.02452e-08
-1.32423e-09
1.13012e-08
-1.05592e-09
1.20689e-08
-7.67769e-10
1.25428e-08
-4.73875e-10
1.2726e-08
-1.8318e-10
1.26266e-08
9.93897e-11
1.2254e-08
3.72642e-10
1.16162e-08
6.37776e-10
1.07182e-08
8.97957e-10
9.56062e-09
1.1576e-09
8.13889e-09
1.42173e-09
6.44342e-09
1.69546e-09
4.4599e-09
1.98352e-09
2.17e-09
2.28989e-09
-4.47588e-10
2.61759e-09
-3.41608e-09
2.96849e-09
-6.75939e-09
3.34331e-09
-1.0501e-08
3.74157e-09
-1.46626e-08
4.16166e-09
-1.92635e-08
4.60084e-09
-2.43187e-08
5.05529e-09
5.52027e-09
7.85289e-10
-8.71263e-10
2.96366e-09
-2.96322e-09
6.13315e-09
-4.52404e-09
9.86306e-09
-5.39489e-09
1.37605e-08
-5.66263e-09
1.75046e-08
-5.45584e-09
2.08518e-08
-4.89944e-09
2.36288e-08
-4.10129e-09
2.57209e-08
-3.14804e-09
2.70588e-08
-2.10568e-09
2.76068e-08
-1.02178e-09
2.73509e-08
7.27292e-11
2.62922e-08
1.15799e-09
2.44355e-08
2.22934e-09
2.17855e-08
3.28781e-09
1.83414e-08
4.34208e-09
1.4094e-08
5.40499e-09
9.02414e-09
6.49157e-09
3.10246e-09
7.61714e-09
-3.70978e-09
8.79576e-09
-1.14588e-08
1.00389e-08
-2.01959e-08
1.13547e-08
-2.99744e-08
1.2747e-08
-4.08469e-08
1.42158e-08
-5.28616e-08
1.57562e-08
-6.60595e-08
1.73595e-08
-8.04712e-08
1.90126e-08
-9.61143e-08
2.06984e-08
2.23965e-08
1.36269e-09
-2.23393e-09
4.54516e-09
-6.14573e-09
8.89274e-09
-8.87161e-09
1.3839e-08
-1.03411e-08
1.88868e-08
-1.07104e-08
2.36231e-08
-1.01922e-08
2.77232e-08
-8.99957e-09
3.09449e-08
-7.32298e-09
3.31171e-08
-5.32025e-09
3.41265e-08
-3.11506e-09
3.39034e-08
-7.98645e-10
3.24093e-08
1.56677e-09
2.9623e-08
3.94431e-09
2.55334e-08
6.31893e-09
2.01292e-08
8.69205e-09
1.33934e-08
1.10779e-08
5.29957e-09
1.34988e-08
-4.19046e-09
1.59816e-08
-1.51265e-08
1.85532e-08
-2.75685e-08
2.12378e-08
-4.15838e-08
2.40542e-08
-5.72433e-08
2.70141e-08
-7.46166e-08
3.01204e-08
-9.37678e-08
3.3367e-08
-1.1475e-07
3.67385e-08
-1.37601e-07
4.02104e-08
-1.62338e-07
4.37494e-08
-1.88953e-07
4.73138e-08
5.08551e-08
1.69046e-09
-3.9244e-09
5.45507e-09
-9.91033e-09
1.0417e-08
-1.38336e-08
1.58885e-08
-1.58126e-08
2.12977e-08
-1.61196e-08
2.61764e-08
-1.50709e-08
3.01534e-08
-1.29765e-08
3.29439e-08
-1.01136e-08
3.43387e-08
-6.715e-09
3.41895e-08
-2.96585e-09
3.23955e-08
9.95332e-10
2.88894e-08
5.07283e-09
2.36249e-08
9.20885e-09
1.6566e-08
1.33778e-08
7.6784e-09
1.75797e-08
-3.07746e-09
2.18337e-08
-1.57501e-08
2.61714e-08
-3.03986e-08
3.06302e-08
-4.70928e-08
3.52473e-08
-6.59098e-08
4.00548e-08
-8.69307e-08
4.50752e-08
-1.10235e-07
5.03185e-08
-1.35895e-07
5.57804e-08
-1.63969e-07
6.14406e-08
-1.94494e-07
6.72636e-08
-2.27482e-07
7.31981e-08
-2.62911e-07
7.91786e-08
-3.00723e-07
8.51258e-08
9.09499e-08
1.81213e-09
-5.73653e-09
5.75781e-09
-1.3856e-08
1.08107e-08
-1.88865e-08
1.61904e-08
-2.11923e-08
2.1272e-08
-2.12012e-08
2.55541e-08
-1.9353e-08
2.86396e-08
-1.6062e-08
3.02199e-08
-1.16938e-08
3.00606e-08
-6.55571e-09
2.79875e-08
-8.92779e-10
2.38726e-08
5.1102e-09
1.76209e-08
1.13246e-08
9.15803e-09
1.76717e-08
-1.57953e-09
2.41153e-08
-1.46533e-08
3.06534e-08
-3.01283e-08
3.73088e-08
-4.80769e-08
4.412e-08
-6.85792e-08
5.11324e-08
-9.17214e-08
5.83895e-08
-1.17592e-07
6.59255e-08
-1.46277e-07
7.37601e-08
-1.77852e-07
8.18933e-08
-2.12375e-07
9.03034e-08
-2.4988e-07
9.89454e-08
-2.90367e-07
1.07751e-07
-3.33798e-07
1.16629e-07
-3.80089e-07
1.25469e-07
-4.29104e-07
1.3414e-07
1.42499e-07
1.77341e-09
-7.50993e-09
5.54513e-09
-1.76278e-08
1.0212e-08
-2.35534e-08
1.49395e-08
-2.59198e-08
1.90733e-08
-2.53349e-08
2.20963e-08
-2.23761e-08
2.36011e-08
-1.75668e-08
2.32677e-08
-1.13604e-08
2.08469e-08
-4.1349e-09
1.61454e-08
3.80865e-09
9.01235e-09
1.22433e-08
-6.73383e-10
2.10103e-08
-1.30138e-08
3.00121e-08
-2.81012e-08
3.92027e-08
-4.60248e-08
4.85771e-08
-6.68759e-08
5.81598e-08
-9.07491e-08
6.79933e-08
-1.17742e-07
7.81254e-08
-1.47952e-07
8.85994e-08
-1.8147e-07
9.94435e-08
-2.18374e-07
1.10664e-07
-2.58722e-07
1.22241e-07
-3.02539e-07
1.34121e-07
-3.49815e-07
1.46221e-07
-4.00492e-07
1.58427e-07
-4.54457e-07
1.70594e-07
-5.1154e-07
1.82552e-07
-5.71507e-07
1.94108e-07
2.05053e-07
1.6072e-09
-9.11714e-09
4.89568e-09
-2.09162e-08
8.74578e-09
-2.74034e-08
1.23093e-08
-2.94834e-08
1.49285e-08
-2.79541e-08
1.60889e-08
-2.35366e-08
1.53857e-08
-1.68636e-08
1.24979e-08
-8.47255e-09
7.16917e-09
1.19382e-09
-8.07211e-10
1.1785e-08
-1.16015e-08
2.30375e-08
-2.53585e-08
3.47673e-08
-4.22068e-08
4.68604e-08
-6.22661e-08
5.9262e-08
-8.56522e-08
7.19632e-08
-1.1248e-07
8.49873e-08
-1.42862e-07
9.83752e-08
-1.76907e-07
1.12171e-07
-2.14714e-07
1.26407e-07
-2.56366e-07
1.41095e-07
-3.01917e-07
1.56216e-07
-3.5139e-07
1.71713e-07
-4.0476e-07
1.87491e-07
-4.61949e-07
2.03411e-07
-5.2282e-07
2.19298e-07
-5.87168e-07
2.34942e-07
-6.54716e-07
2.501e-07
-7.25119e-07
2.64511e-07
2.77895e-07
1.33477e-09
-1.04519e-08
3.86695e-09
-2.34484e-08
6.5095e-09
-3.0046e-08
8.43918e-09
-3.14131e-08
9.02239e-09
-2.85373e-08
7.76604e-09
-2.22803e-08
4.28087e-09
-1.33784e-08
-1.74616e-09
-2.44552e-09
-1.0572e-08
1.00196e-08
-2.24126e-08
2.36256e-08
-3.74543e-08
3.80793e-08
-5.58633e-08
5.31764e-08
-7.77925e-08
6.87896e-08
-1.03386e-07
8.48557e-08
-1.32783e-07
1.0136e-07
-1.66116e-07
1.1832e-07
-2.0351e-07
1.35769e-07
-2.45074e-07
1.53735e-07
-2.90898e-07
1.7223e-07
-3.41039e-07
1.91236e-07
-3.95515e-07
2.10692e-07
-4.54292e-07
2.3049e-07
-5.17276e-07
2.50475e-07
-5.84304e-07
2.70439e-07
-6.5514e-07
2.90134e-07
-7.29471e-07
3.09272e-07
-8.06905e-07
3.27535e-07
-8.8698e-07
3.44585e-07
3.60078e-07
9.68037e-10
-1.14199e-08
2.49635e-09
-2.49767e-08
3.57325e-09
-3.11229e-08
3.43517e-09
-3.1275e-08
1.50173e-09
-2.66038e-08
-2.68016e-09
-1.80984e-08
-9.4713e-09
-6.58725e-09
-1.91685e-08
7.25165e-09
-3.20241e-08
2.28752e-08
-4.82594e-08
3.98609e-08
-6.80742e-08
5.78941e-08
-9.16533e-08
7.67554e-08
-1.1917e-07
9.63068e-08
-1.50791e-07
1.16476e-07
-1.8667e-07
1.37239e-07
-2.26952e-07
1.58602e-07
-2.71761e-07
1.80578e-07
-3.21197e-07
2.03171e-07
-3.75326e-07
2.26358e-07
-4.34163e-07
2.50073e-07
-4.97669e-07
2.74199e-07
-5.65739e-07
2.9856e-07
-6.38189e-07
3.22925e-07
-7.14757e-07
3.47007e-07
-7.95096e-07
3.70474e-07
-8.78778e-07
3.92954e-07
-9.65296e-07
4.14053e-07
-1.05407e-06
4.33364e-07
4.50484e-07
5.12994e-10
-1.19329e-08
8.05921e-10
-2.52697e-08
-1.94031e-11
-3.02976e-08
-2.62264e-09
-2.86717e-08
-7.51417e-09
-2.17123e-08
-1.50861e-08
-1.05264e-08
-2.56577e-08
3.98431e-09
-3.95016e-08
2.10956e-08
-5.6861e-08
4.02346e-08
-7.79595e-08
6.09594e-08
-1.03007e-07
8.29421e-08
-1.32205e-07
1.05953e-07
-1.65743e-07
1.29845e-07
-2.03801e-07
1.54534e-07
-2.46544e-07
1.79982e-07
-2.94116e-07
2.06174e-07
-3.4663e-07
2.33093e-07
-4.04162e-07
2.60704e-07
-4.66735e-07
2.88931e-07
-5.34309e-07
3.17647e-07
-6.06769e-07
3.46659e-07
-6.83921e-07
3.75712e-07
-7.65481e-07
4.04485e-07
-8.51076e-07
4.32602e-07
-9.40244e-07
4.59643e-07
-1.03245e-06
4.85156e-07
-1.12707e-06
5.08675e-07
-1.22344e-06
5.29737e-07
5.47899e-07
-2.96472e-11
-1.19033e-08
-1.18768e-09
-2.41116e-08
-4.22121e-09
-2.7264e-08
-9.66667e-09
-2.32263e-08
-1.79219e-08
-1.34571e-08
-2.93035e-08
8.55143e-10
-4.40783e-08
1.87591e-08
-6.24886e-08
3.95059e-08
-8.47641e-08
6.25101e-08
-1.11128e-07
8.73232e-08
-1.41798e-07
1.13612e-07
-1.76987e-07
1.41142e-07
-2.16895e-07
1.69753e-07
-2.6171e-07
1.99349e-07
-3.11597e-07
2.29868e-07
-3.66686e-07
2.61263e-07
-4.27068e-07
2.93474e-07
-4.92775e-07
3.26411e-07
-5.63774e-07
3.5993e-07
-6.39951e-07
3.93823e-07
-7.21102e-07
4.27811e-07
-8.06932e-07
4.61542e-07
-8.97048e-07
4.946e-07
-9.90964e-07
5.26519e-07
-1.08811e-06
5.56791e-07
-1.18785e-06
5.84893e-07
-1.28948e-06
6.10303e-07
-1.39226e-06
6.32518e-07
6.5108e-07
-6.54947e-10
-1.12483e-08
-3.47668e-09
-2.12899e-08
-9.01445e-09
-2.17263e-08
-1.76395e-08
-1.46013e-08
-2.96228e-08
-1.47368e-09
-4.51852e-08
1.64175e-08
-6.4532e-08
3.81058e-08
-8.7868e-08
6.2842e-08
-1.15406e-07
9.00484e-08
-1.47367e-07
1.19284e-07
-1.83972e-07
1.50218e-07
-2.2544e-07
1.8261e-07
-2.71978e-07
2.16291e-07
-3.23769e-07
2.51141e-07
-3.80967e-07
2.87066e-07
-4.43678e-07
3.23974e-07
-5.11951e-07
3.61747e-07
-5.85763e-07
4.00223e-07
-6.65005e-07
4.39173e-07
-7.49478e-07
4.78296e-07
-8.38878e-07
5.17211e-07
-9.32802e-07
5.55466e-07
-1.03075e-06
5.92547e-07
-1.13213e-06
6.27897e-07
-1.23627e-06
6.60935e-07
-1.34246e-06
6.91082e-07
-1.44993e-06
7.17777e-07
-1.55792e-06
7.40504e-07
7.5881e-07
-1.36596e-09
-9.88238e-09
-6.05e-09
-1.66059e-08
-1.43629e-08
-1.34134e-08
-2.64775e-08
-2.48673e-09
-4.25109e-08
1.45598e-08
-6.2576e-08
3.64826e-08
-8.68051e-08
6.23349e-08
-1.15362e-07
9.1399e-08
-1.4844e-07
1.23126e-07
-1.86253e-07
1.57097e-07
-2.29024e-07
1.92989e-07
-2.76972e-07
2.30558e-07
-3.303e-07
2.69619e-07
-3.8918e-07
3.10021e-07
-4.53739e-07
3.51625e-07
-5.24044e-07
3.9428e-07
-6.0009e-07
4.37793e-07
-6.81782e-07
4.81914e-07
-7.68926e-07
5.26317e-07
-8.61223e-07
5.70593e-07
-9.58267e-07
6.14255e-07
-1.05955e-06
6.56746e-07
-1.16446e-06
6.97459e-07
-1.27232e-06
7.35759e-07
-1.38239e-06
7.71007e-07
-1.4939e-06
8.02585e-07
-1.60604e-06
8.29921e-07
-1.71805e-06
8.52507e-07
8.69923e-07
-2.15897e-09
-7.72342e-09
-8.8936e-09
-9.87124e-09
-2.02295e-08
-2.07746e-09
-3.61066e-08
1.33904e-08
-5.64682e-08
3.49213e-08
-8.13024e-08
6.13168e-08
-1.10663e-07
9.16956e-08
-1.44669e-07
1.25405e-07
-1.8349e-07
1.61948e-07
-2.27332e-07
2.00939e-07
-2.76414e-07
2.4207e-07
-3.30949e-07
2.85093e-07
-3.91126e-07
3.29796e-07
-4.57093e-07
3.75988e-07
-5.2894e-07
4.23472e-07
-6.06681e-07
4.72021e-07
-6.90241e-07
5.21353e-07
-7.79441e-07
5.71115e-07
-8.73994e-07
6.2087e-07
-9.73498e-07
6.70097e-07
-1.07744e-06
7.18199e-07
-1.18522e-06
7.6452e-07
-1.29613e-06
8.08371e-07
-1.40942e-06
8.49054e-07
-1.52431e-06
8.85891e-07
-1.63997e-06
9.18252e-07
-1.75563e-06
9.45574e-07
-1.8705e-06
9.67383e-07
9.83306e-07
-3.03025e-09
-4.69318e-09
-1.19887e-08
-9.12821e-10
-2.65658e-08
1.24997e-08
-4.64403e-08
3.32649e-08
-7.13569e-08
5.9838e-08
-1.01169e-07
9.1129e-08
-1.35846e-07
1.26372e-07
-1.75457e-07
1.65016e-07
-2.20149e-07
2.0664e-07
-2.70115e-07
2.50905e-07
-3.25564e-07
2.97519e-07
-3.86695e-07
3.46224e-07
-4.53675e-07
3.96776e-07
-5.26616e-07
4.48929e-07
-6.05556e-07
5.02412e-07
-6.90444e-07
5.56909e-07
-7.81124e-07
6.12033e-07
-8.77325e-07
6.67316e-07
-9.78661e-07
7.22205e-07
-1.08463e-06
7.76064e-07
-1.19462e-06
8.28189e-07
-1.30793e-06
8.77836e-07
-1.42381e-06
9.24249e-07
-1.54145e-06
9.66688e-07
-1.66001e-06
1.00446e-06
-1.7787e-06
1.03694e-06
-1.89673e-06
1.0636e-06
-2.01337e-06
1.08402e-06
1.09788e-06
-3.97443e-09
-7.1875e-10
-1.5306e-08
1.04187e-08
-3.33133e-08
3.0507e-08
-5.73741e-08
5.73257e-08
-8.70187e-08
8.94826e-08
-1.21956e-07
1.26066e-07
-1.62065e-07
1.66481e-07
-2.07366e-07
2.10317e-07
-2.57979e-07
2.57253e-07
-3.14079e-07
3.07006e-07
-3.75861e-07
3.59301e-07
-4.43502e-07
4.13865e-07
-5.17134e-07
4.70408e-07
-5.96822e-07
5.28616e-07
-6.82542e-07
5.88132e-07
-7.74166e-07
6.48532e-07
-8.71449e-07
7.09315e-07
-9.74024e-07
7.69892e-07
-1.08141e-06
8.29587e-07
-1.19299e-06
8.87652e-07
-1.30809e-06
9.43289e-07
-1.42594e-06
9.95682e-07
-1.54571e-06
1.04402e-06
-1.66658e-06
1.08755e-06
-1.78771e-06
1.12559e-06
-1.90829e-06
1.15753e-06
-2.02759e-06
1.1829e-06
-2.1449e-06
1.20134e-06
1.2126e-06
-4.97946e-09
4.26072e-09
-1.88158e-08
2.42551e-08
-4.03998e-08
5.2091e-08
-6.87863e-08
8.57121e-08
-1.03274e-07
1.2397e-07
-1.43418e-07
1.66211e-07
-1.89007e-07
2.1207e-07
-2.40008e-07
2.61318e-07
-2.96512e-07
3.13757e-07
-3.58675e-07
3.69168e-07
-4.26666e-07
4.27293e-07
-5.00633e-07
4.87832e-07
-5.80665e-07
5.50439e-07
-6.66767e-07
6.14719e-07
-7.58844e-07
6.80209e-07
-8.56683e-07
7.46371e-07
-9.59945e-07
8.12577e-07
-1.06817e-06
8.78114e-07
-1.18077e-06
9.42188e-07
-1.29706e-06
1.00395e-06
-1.41629e-06
1.06251e-06
-1.53762e-06
1.11701e-06
-1.6602e-06
1.16661e-06
-1.7832e-06
1.21055e-06
-1.90578e-06
1.24816e-06
-2.02716e-06
1.27891e-06
-2.14663e-06
1.30237e-06
-2.26355e-06
1.31825e-06
1.32638e-06
-6.0383e-09
1.0299e-08
-2.24763e-08
4.0693e-08
-4.7741e-08
7.73558e-08
-8.05384e-08
1.18509e-07
-1.19922e-07
1.63354e-07
-1.65291e-07
2.11579e-07
-2.16336e-07
2.63116e-07
-2.72974e-07
3.17956e-07
-3.35262e-07
3.76045e-07
-4.03331e-07
4.37237e-07
-4.77321e-07
5.01284e-07
-5.5734e-07
5.67851e-07
-6.43423e-07
6.36522e-07
-7.35508e-07
7.06804e-07
-8.3342e-07
7.78121e-07
-9.36856e-07
8.49807e-07
-1.04539e-06
9.21106e-07
-1.15845e-06
9.91179e-07
-1.27538e-06
1.05912e-06
-1.39543e-06
1.12399e-06
-1.51776e-06
1.18484e-06
-1.64152e-06
1.24077e-06
-1.76584e-06
1.29093e-06
-1.88987e-06
1.33458e-06
-2.01281e-06
1.3711e-06
-2.13391e-06
1.40001e-06
-2.25248e-06
1.42095e-06
-2.36792e-06
1.43369e-06
1.43815e-06
-7.13566e-09
1.74347e-08
-2.62392e-08
5.97966e-08
-5.52407e-08
1.06357e-07
-9.24769e-08
1.55746e-07
-1.36748e-07
2.07625e-07
-1.87289e-07
2.62121e-07
-2.43699e-07
3.19525e-07
-3.05837e-07
3.80094e-07
-3.73727e-07
4.43935e-07
-4.47467e-07
5.10977e-07
-5.27163e-07
5.8098e-07
-6.12873e-07
6.53561e-07
-7.04571e-07
7.2822e-07
-8.02121e-07
8.04354e-07
-9.05262e-07
8.81262e-07
-1.0136e-06
9.58146e-07
-1.12661e-06
1.03412e-06
-1.24366e-06
1.10823e-06
-1.364e-06
1.17946e-06
-1.4868e-06
1.2468e-06
-1.61122e-06
1.30926e-06
-1.73636e-06
1.36591e-06
-1.86135e-06
1.41592e-06
-1.98535e-06
1.45859e-06
-2.10759e-06
1.49334e-06
-2.22734e-06
1.51976e-06
-2.34395e-06
1.53755e-06
-2.45684e-06
1.54658e-06
1.54683e-06
-8.25514e-09
2.56898e-08
-3.00505e-08
8.1592e-08
-6.2793e-08
1.391e-07
-1.04437e-07
1.97389e-07
-1.53521e-07
2.56709e-07
-2.09119e-07
3.17719e-07
-2.70733e-07
3.81139e-07
-3.38165e-07
4.47526e-07
-4.11401e-07
5.17171e-07
-4.90505e-07
5.90081e-07
-5.75537e-07
6.66012e-07
-6.66499e-07
7.44523e-07
-7.63299e-07
8.25019e-07
-8.6572e-07
9.06775e-07
-9.73415e-07
9.88956e-07
-1.0859e-06
1.07063e-06
-1.20257e-06
1.15079e-06
-1.3227e-06
1.22836e-06
-1.4455e-06
1.30225e-06
-1.57008e-06
1.37138e-06
-1.69556e-06
1.43474e-06
-1.82105e-06
1.4914e-06
-1.94567e-06
1.54055e-06
-2.06862e-06
1.58153e-06
-2.18911e-06
1.61384e-06
-2.30647e-06
1.63712e-06
-2.42008e-06
1.65116e-06
-2.52939e-06
1.6559e-06
-9.37882e-09
3.50686e-08
-3.38514e-08
1.06065e-07
-7.02853e-08
1.75534e-07
-1.16244e-07
2.43348e-07
-1.70006e-07
3.10471e-07
-2.30479e-07
3.78193e-07
-2.97071e-07
4.4773e-07
-3.69525e-07
5.19981e-07
-4.47787e-07
5.95433e-07
-5.31877e-07
6.7417e-07
-6.21806e-07
7.55941e-07
-7.17516e-07
8.40233e-07
-8.18838e-07
9.26342e-07
-9.25477e-07
1.01341e-06
-1.037e-06
1.10048e-06
-1.15284e-06
1.18647e-06
-1.2723e-06
1.27026e-06
-1.39461e-06
1.35067e-06
-1.51891e-06
1.42655e-06
-1.6443e-06
1.49677e-06
-1.76985e-06
1.5603e-06
-1.89469e-06
1.61623e-06
-2.01795e-06
1.66381e-06
-2.13883e-06
1.70241e-06
-2.2566e-06
1.7316e-06
-2.37058e-06
1.7511e-06
-2.48019e-06
1.76077e-06
1.76064e-06
-1.04873e-08
4.5556e-08
-3.75798e-08
1.33157e-07
-7.76005e-08
2.15554e-07
-1.27722e-07
2.9347e-07
-1.85963e-07
3.68711e-07
-2.5107e-07
4.433e-07
-3.22352e-07
5.19013e-07
-3.99497e-07
5.97126e-07
-4.82402e-07
6.78337e-07
-5.7104e-07
7.62809e-07
-6.65369e-07
8.5027e-07
-7.65263e-07
9.40127e-07
-8.70478e-07
1.03156e-06
-9.80637e-07
1.12357e-06
-1.09522e-06
1.21506e-06
-1.21359e-06
1.30484e-06
-1.33499e-06
1.39165e-06
-1.45857e-06
1.47425e-06
-1.58344e-06
1.55142e-06
-1.70868e-06
1.622e-06
-1.83336e-06
1.68498e-06
-1.95659e-06
1.73947e-06
-2.07754e-06
1.78475e-06
-2.19541e-06
1.82028e-06
-2.30951e-06
1.84569e-06
-2.41918e-06
1.86077e-06
-2.5239e-06
1.86549e-06
1.85994e-06
-1.15603e-08
5.71163e-08
-4.11718e-08
1.62769e-07
-8.46202e-08
2.59003e-07
-1.38695e-07
3.47544e-07
-2.01157e-07
4.31174e-07
-2.70598e-07
5.1274e-07
-3.4623e-07
5.94645e-07
-4.27678e-07
6.78574e-07
-5.1479e-07
7.65449e-07
-6.07489e-07
8.55507e-07
-7.0567e-07
9.48452e-07
-8.09141e-07
1.0436e-06
-9.1758e-07
1.14e-06
-1.03053e-06
1.23652e-06
-1.1474e-06
1.33193e-06
-1.26747e-06
1.42491e-06
-1.38994e-06
1.51411e-06
-1.5139e-06
1.59822e-06
-1.63844e-06
1.67596e-06
-1.76262e-06
1.74618e-06
-1.88552e-06
1.80788e-06
-2.00626e-06
1.86021e-06
-2.12401e-06
1.9025e-06
-2.238e-06
1.93428e-06
-2.34757e-06
1.95526e-06
-2.45213e-06
1.96533e-06
-2.55115e-06
1.96452e-06
1.95304e-06
-1.25773e-08
6.96936e-08
-4.45638e-08
1.94755e-07
-9.12277e-08
3.05667e-07
-1.48989e-07
4.05306e-07
-2.15363e-07
4.97548e-07
-2.88786e-07
5.86163e-07
-3.68376e-07
6.74234e-07
-4.53693e-07
7.63891e-07
-5.44531e-07
8.56287e-07
-6.40758e-07
9.51735e-07
-7.42208e-07
1.0499e-06
-8.48615e-07
1.15e-06
-9.59586e-07
1.25097e-06
-1.07459e-06
1.35152e-06
-1.19296e-06
1.4503e-06
-1.31391e-06
1.54587e-06
-1.4366e-06
1.6368e-06
-1.56009e-06
1.72171e-06
-1.68345e-06
1.79931e-06
-1.80572e-06
1.86846e-06
-1.926e-06
1.92816e-06
-2.04341e-06
1.97762e-06
-2.15715e-06
2.01624e-06
-2.26649e-06
2.04363e-06
-2.3708e-06
2.05957e-06
-2.46952e-06
2.06405e-06
-2.56222e-06
2.05721e-06
2.03936e-06
-1.35179e-08
8.32116e-08
-4.76938e-08
2.28931e-07
-9.7311e-08
3.55284e-07
-1.58442e-07
4.66436e-07
-2.28368e-07
5.67474e-07
-3.05376e-07
6.63171e-07
-3.88489e-07
7.57347e-07
-4.77201e-07
8.52603e-07
-5.71248e-07
9.50335e-07
-6.7044e-07
1.05093e-06
-7.74545e-07
1.15401e-06
-8.83229e-07
1.25869e-06
-9.96027e-07
1.36376e-06
-1.11233e-06
1.46783e-06
-1.23143e-06
1.56939e-06
-1.35248e-06
1.66692e-06
-1.47458e-06
1.7589e-06
-1.5968e-06
1.84393e-06
-1.71816e-06
1.92068e-06
-1.83774e-06
1.98803e-06
-1.95463e-06
2.04504e-06
-2.06797e-06
2.09096e-06
-2.177e-06
2.12527e-06
-2.28103e-06
2.14765e-06
-2.37946e-06
2.158e-06
-2.4718e-06
2.15639e-06
-2.55769e-06
2.14309e-06
2.11853e-06
-1.43629e-08
9.75745e-08
-5.05035e-08
2.65072e-07
-1.02766e-07
4.07546e-07
-1.66903e-07
5.30573e-07
-2.39978e-07
6.4055e-07
-3.20134e-07
7.43328e-07
-4.06301e-07
8.43514e-07
-4.97901e-07
9.44204e-07
-5.94612e-07
1.04705e-06
-6.96182e-07
1.1525e-06
-8.02314e-07
1.26014e-06
-9.12608e-07
1.36898e-06
-1.02653e-06
1.47769e-06
-1.14341e-06
1.58472e-06
-1.26248e-06
1.68846e-06
-1.38286e-06
1.7873e-06
-1.50362e-06
1.87967e-06
-1.6238e-06
1.96411e-06
-1.74245e-06
2.03933e-06
-1.85862e-06
2.10421e-06
-1.97144e-06
2.15786e-06
-2.08008e-06
2.1996e-06
-2.18381e-06
2.229e-06
-2.28199e-06
2.24583e-06
-2.37408e-06
2.25009e-06
-2.45966e-06
2.24197e-06
-2.53844e-06
2.22188e-06
2.19035e-06
-1.50943e-08
1.12669e-07
-5.29396e-08
3.02917e-07
-1.07497e-07
4.62104e-07
-1.74237e-07
5.97313e-07
-2.50021e-07
7.16334e-07
-3.32857e-07
8.26163e-07
-4.21578e-07
9.32235e-07
-5.15537e-07
1.03816e-06
-6.14348e-07
1.14586e-06
-7.17696e-07
1.25584e-06
-8.25222e-07
1.36766e-06
-9.3646e-07
1.48022e-06
-1.05081e-06
1.59204e-06
-1.16757e-06
1.70147e-06
-1.28589e-06
1.80679e-06
-1.40489e-06
1.9063e-06
-1.5236e-06
1.99838e-06
-1.64107e-06
2.08158e-06
-1.75634e-06
2.15459e-06
-1.86849e-06
2.21636e-06
-1.97666e-06
2.26603e-06
-2.08007e-06
2.30302e-06
-2.17804e-06
2.32696e-06
-2.26997e-06
2.33776e-06
-2.35541e-06
2.33553e-06
-2.43402e-06
2.32058e-06
-2.5056e-06
2.29346e-06
2.25484e-06
-1.56964e-08
1.28365e-07
-5.49552e-08
3.42176e-07
-1.11423e-07
5.18572e-07
-1.80327e-07
6.66217e-07
-2.5835e-07
7.94357e-07
-3.4337e-07
9.11183e-07
-4.34128e-07
1.02299e-06
-5.29901e-07
1.13394e-06
-6.30238e-07
1.24619e-06
-7.34762e-07
1.36037e-06
-8.43051e-07
1.47595e-06
-9.54581e-07
1.59175e-06
-1.0687e-06
1.70616e-06
-1.18465e-06
1.81742e-06
-1.30156e-06
1.9237e-06
-1.41851e-06
2.02325e-06
-1.53455e-06
2.11441e-06
-1.64869e-06
2.19573e-06
-1.76001e-06
2.26591e-06
-1.86761e-06
2.32396e-06
-1.97067e-06
2.36909e-06
-2.06845e-06
2.40079e-06
-2.16032e-06
2.41883e-06
-2.24576e-06
2.42321e-06
-2.3244e-06
2.41417e-06
-2.396e-06
2.39218e-06
-2.46045e-06
2.35791e-06
2.31219e-06
-1.61557e-08
1.44521e-07
-5.65107e-08
3.82531e-07
-1.14474e-07
5.76536e-07
-1.85077e-07
7.3682e-07
-2.64846e-07
8.74126e-07
-3.51538e-07
9.97875e-07
-4.43799e-07
1.11525e-06
-5.40833e-07
1.23097e-06
-6.42121e-07
1.34748e-06
-7.47223e-07
1.46547e-06
-8.5566e-07
1.58439e-06
-9.66853e-07
1.70294e-06
-1.08011e-06
1.81941e-06
-1.19462e-06
1.93193e-06
-1.3095e-06
2.03858e-06
-1.42381e-06
2.13756e-06
-1.53659e-06
2.2272e-06
-1.64689e-06
2.30602e-06
-1.75378e-06
2.37281e-06
-1.85641e-06
2.42659e-06
-1.954e-06
2.46668e-06
-2.04587e-06
2.49266e-06
-2.13144e-06
2.50441e-06
-2.2103e-06
2.50207e-06
-2.28215e-06
2.48601e-06
-2.34685e-06
2.45687e-06
-2.4044e-06
2.41546e-06
2.36274e-06
-1.64618e-08
1.60983e-07
-5.75749e-08
4.23644e-07
-1.16597e-07
6.35558e-07
-1.88412e-07
8.08635e-07
-2.69416e-07
9.5513e-07
-3.57255e-07
1.08571e-06
-4.50483e-07
1.20848e-06
-5.48225e-07
1.32871e-06
-6.49893e-07
1.44915e-06
-7.5499e-07
1.57057e-06
-8.6298e-07
1.69238e-06
-9.73237e-07
1.8132e-06
-1.08503e-06
1.9312e-06
-1.19752e-06
2.04442e-06
-1.30981e-06
2.15087e-06
-1.42095e-06
2.2487e-06
-1.52999e-06
2.33624e-06
-1.636e-06
2.41203e-06
-1.73809e-06
2.47489e-06
-1.83543e-06
2.52393e-06
-1.9273e-06
2.55855e-06
-2.0131e-06
2.57845e-06
-2.09232e-06
2.58363e-06
-2.16463e-06
2.57438e-06
-2.22983e-06
2.55122e-06
-2.28789e-06
2.51493e-06
-2.33891e-06
2.46647e-06
2.40697e-06
-1.66069e-08
1.7759e-07
-5.81256e-08
4.65162e-07
-1.17752e-07
6.95184e-07
-1.90279e-07
8.81162e-07
-2.71999e-07
1.03685e-06
-3.60456e-07
1.17417e-06
-4.54113e-07
1.30214e-06
-5.52015e-07
1.42661e-06
-6.53509e-07
1.55064e-06
-7.58036e-07
1.67509e-06
-8.65013e-07
1.79936e-06
-9.73772e-07
1.92196e-06
-1.08355e-06
2.04098e-06
-1.19349e-06
2.15436e-06
-1.30269e-06
2.26007e-06
-1.41021e-06
2.35622e-06
-1.5151e-06
2.44114e-06
-1.61647e-06
2.5134e-06
-1.71346e-06
2.57188e-06
-1.8053e-06
2.61578e-06
-1.89133e-06
2.64458e-06
-1.97101e-06
2.65813e-06
-2.04394e-06
2.65656e-06
-2.10986e-06
2.6403e-06
-2.16868e-06
2.61004e-06
-2.22046e-06
2.56671e-06
-2.26541e-06
2.51143e-06
2.44544e-06
-1.65867e-08
1.94176e-07
-5.81492e-08
5.06725e-07
-1.17917e-07
7.54951e-07
-1.90648e-07
9.53893e-07
-2.72561e-07
1.11876e-06
-3.61107e-07
1.26272e-06
-4.54662e-07
1.39569e-06
-5.52191e-07
1.52414e-06
-6.52973e-07
1.65142e-06
-7.56394e-07
1.77851e-06
-8.61825e-07
1.90479e-06
-9.68565e-07
2.0287e-06
-1.07583e-06
2.14824e-06
-1.18275e-06
2.26128e-06
-1.28843e-06
2.36575e-06
-1.39194e-06
2.45972e-06
-1.49235e-06
2.54155e-06
-1.58881e-06
2.60986e-06
-1.68051e-06
2.66358e-06
-1.76674e-06
2.702e-06
-1.8469e-06
2.72474e-06
-1.92053e-06
2.73177e-06
-1.98732e-06
2.72335e-06
-2.04712e-06
2.70009e-06
-2.09992e-06
2.66284e-06
-2.14588e-06
2.61267e-06
-2.1853e-06
2.55085e-06
2.47875e-06
-1.63998e-08
2.10576e-07
-5.76416e-08
5.47967e-07
-1.17084e-07
8.14394e-07
-1.8951e-07
1.02632e-06
-2.71094e-07
1.20035e-06
-3.59209e-07
1.35083e-06
-4.52144e-07
1.48863e-06
-5.48784e-07
1.62078e-06
-6.48341e-07
1.75098e-06
-7.50149e-07
1.88032e-06
-8.5354e-07
2.00818e-06
-9.57788e-07
2.13295e-06
-1.06209e-06
2.25255e-06
-1.16559e-06
2.36478e-06
-1.26738e-06
2.46754e-06
-1.36656e-06
2.5589e-06
-1.46225e-06
2.63724e-06
-1.55362e-06
2.70123e-06
-1.63992e-06
2.74988e-06
-1.72051e-06
2.78259e-06
-1.79486e-06
2.7991e-06
-1.86261e-06
2.79951e-06
-1.92351e-06
2.78426e-06
-1.97752e-06
2.7541e-06
-2.02473e-06
2.71004e-06
-2.06539e-06
2.65333e-06
-2.09987e-06
2.58533e-06
2.50755e-06
-1.60482e-08
2.26624e-07
-5.66071e-08
5.88526e-07
-1.15261e-07
8.73047e-07
-1.86878e-07
1.09794e-06
-2.67619e-07
1.28109e-06
-3.54794e-07
1.43801e-06
-4.46606e-07
1.58044e-06
-5.41865e-07
1.71604e-06
-6.39713e-07
1.84883e-06
-7.39437e-07
1.98005e-06
-8.40336e-07
2.10908e-06
-9.41664e-07
2.23428e-06
-1.04261e-06
2.3535e-06
-1.14233e-06
2.4645e-06
-1.23994e-06
2.56514e-06
-1.33455e-06
2.65352e-06
-1.42534e-06
2.72803e-06
-1.51151e-06
2.7874e-06
-1.59239e-06
2.83076e-06
-1.6674e-06
2.8576e-06
-1.73609e-06
2.86779e-06
-1.79818e-06
2.86159e-06
-1.85352e-06
2.8396e-06
-1.90215e-06
2.80273e-06
-1.94425e-06
2.75214e-06
-1.98014e-06
2.68922e-06
-2.01027e-06
2.61547e-06
2.53246e-06
-1.55364e-08
2.42161e-07
-5.50584e-08
6.28048e-07
-1.12469e-07
9.30457e-07
-1.82783e-07
1.16825e-06
-2.6218e-07
1.36049e-06
-3.47921e-07
1.52375e-06
-4.38131e-07
1.67065e-06
-5.31539e-07
1.80945e-06
-6.27228e-07
1.94452e-06
-7.24435e-07
2.07725e-06
-8.22432e-07
2.20708e-06
-9.20462e-07
2.33231e-06
-1.01772e-06
2.45076e-06
-1.11337e-06
2.56014e-06
-1.20655e-06
2.65832e-06
-1.29642e-06
2.74339e-06
-1.38219e-06
2.8138e-06
-1.46314e-06
2.86835e-06
-1.53865e-06
2.90626e-06
-1.6082e-06
2.92715e-06
-1.67144e-06
2.93103e-06
-1.72816e-06
2.91831e-06
-1.77831e-06
2.88975e-06
-1.822e-06
2.84642e-06
-1.85948e-06
2.78963e-06
-1.89116e-06
2.7209e-06
-1.91753e-06
2.64184e-06
2.5541e-06
-1.4872e-08
2.57033e-07
-5.30159e-08
6.66192e-07
-1.08743e-07
9.86185e-07
-1.77274e-07
1.23678e-06
-2.54843e-07
1.43805e-06
-3.38676e-07
1.60758e-06
-4.26827e-07
1.7588e-06
-5.17947e-07
1.90057e-06
-6.11057e-07
2.03763e-06
-7.05353e-07
2.17155e-06
-8.00084e-07
2.30181e-06
-8.94488e-07
2.42671e-06
-9.87769e-07
2.54404e-06
-1.07911e-06
2.65148e-06
-1.16769e-06
2.7469e-06
-1.25271e-06
2.82841e-06
-1.33342e-06
2.89451e-06
-1.40917e-06
2.9441e-06
-1.4794e-06
2.97649e-06
-1.54368e-06
2.99143e-06
-1.60173e-06
2.98908e-06
-1.65342e-06
2.97e-06
-1.69877e-06
2.93511e-06
-1.73798e-06
2.88562e-06
-1.77136e-06
2.82301e-06
-1.79937e-06
2.7489e-06
-1.82253e-06
2.665e-06
2.57303e-06
-1.40647e-08
2.71097e-07
-5.05068e-08
7.02634e-07
-1.04129e-07
1.03981e-06
-1.70417e-07
1.30307e-06
-2.45693e-07
1.51333e-06
-3.27168e-07
1.68906e-06
-4.12828e-07
1.84446e-06
-5.01254e-07
1.989e-06
-5.91403e-07
2.12778e-06
-6.82433e-07
2.26258e-06
-7.73577e-07
2.39295e-06
-8.64072e-07
2.5172e-06
-9.53142e-07
2.63311e-06
-1.03999e-06
2.73834e-06
-1.12385e-06
2.83075e-06
-1.20395e-06
2.90851e-06
-1.27962e-06
2.97018e-06
-1.35025e-06
3.01474e-06
-1.41536e-06
3.04161e-06
-1.47459e-06
3.05067e-06
-1.52774e-06
3.04223e-06
-1.57475e-06
3.01701e-06
-1.61573e-06
2.97608e-06
-1.65091e-06
2.92081e-06
-1.68069e-06
2.85279e-06
-1.70553e-06
2.77375e-06
-1.72601e-06
2.68548e-06
2.58975e-06
-1.31263e-08
2.84224e-07
-4.7564e-08
7.37071e-07
-9.86843e-08
1.09093e-06
-1.62291e-07
1.36668e-06
-2.34833e-07
1.58587e-06
-3.13523e-07
1.76774e-06
-3.96291e-07
1.92723e-06
-4.81645e-07
2.07435e-06
-5.68487e-07
2.21462e-06
-6.55937e-07
2.35003e-06
-7.43215e-07
2.48023e-06
-8.29567e-07
2.60356e-06
-9.14236e-07
2.71778e-06
-9.96466e-07
2.82057e-06
-1.07552e-06
2.9098e-06
-1.15069e-06
2.98369e-06
-1.22137e-06
3.04085e-06
-1.287e-06
3.08037e-06
-1.34718e-06
3.10179e-06
-1.40163e-06
3.10511e-06
-1.45019e-06
3.0908e-06
-1.4929e-06
3.05972e-06
-1.52991e-06
3.01309e-06
-1.56152e-06
2.95242e-06
-1.58815e-06
2.87942e-06
-1.6103e-06
2.7959e-06
-1.62856e-06
2.70374e-06
2.60471e-06
-1.20703e-08
2.96294e-07
-4.42258e-08
7.69227e-07
-9.24724e-08
1.13917e-06
-1.52986e-07
1.42719e-06
-2.22379e-07
1.65527e-06
-2.97884e-07
1.84325e-06
-3.77386e-07
2.00673e-06
-4.59326e-07
2.15629e-06
-5.42549e-07
2.29784e-06
-6.26144e-07
2.43362e-06
-7.09319e-07
2.56341e-06
-7.91334e-07
2.68557e-06
-8.71458e-07
2.7979e-06
-9.48974e-07
2.89808e-06
-1.02319e-06
2.98402e-06
-1.09347e-06
3.05397e-06
-1.15924e-06
3.10662e-06
-1.22004e-06
3.14117e-06
-1.2755e-06
3.15725e-06
-1.32543e-06
3.15503e-06
-1.36974e-06
3.13511e-06
-1.40851e-06
3.09849e-06
-1.44195e-06
3.04653e-06
-1.47041e-06
2.98088e-06
-1.49432e-06
2.90333e-06
-1.51422e-06
2.8158e-06
-1.53066e-06
2.72018e-06
2.61829e-06
-1.09115e-08
3.07205e-07
-4.05341e-08
7.9885e-07
-8.55658e-08
1.18421e-06
-1.42605e-07
1.48423e-06
-2.08459e-07
1.72112e-06
-2.80407e-07
1.9152e-06
-3.56298e-07
2.08262e-06
-4.34513e-07
2.23451e-06
-5.13841e-07
2.37717e-06
-5.9334e-07
2.51312e-06
-6.72215e-07
2.64228e-06
-7.49738e-07
2.76309e-06
-8.25212e-07
2.87337e-06
-8.97963e-07
2.97083e-06
-9.6735e-07
3.05341e-06
-1.03279e-06
3.11941e-06
-1.09378e-06
3.16761e-06
-1.14991e-06
3.1973e-06
-1.2009e-06
3.20824e-06
-1.24658e-06
3.20072e-06
-1.28696e-06
3.17549e-06
-1.32215e-06
3.13368e-06
-1.35241e-06
3.07679e-06
-1.3781e-06
3.00657e-06
-1.39969e-06
2.92491e-06
-1.41769e-06
2.8338e-06
-1.43266e-06
2.73515e-06
2.63081e-06
-9.66561e-09
3.16871e-07
-3.65341e-08
8.25718e-07
-7.80418e-08
1.22571e-06
-1.31253e-07
1.53744e-06
-1.93209e-07
1.78308e-06
-2.61257e-07
1.98325e-06
-3.33222e-07
2.15459e-06
-4.0743e-07
2.30871e-06
-4.8262e-07
2.45236e-06
-5.5782e-07
2.58832e-06
-6.32231e-07
2.71669e-06
-7.05144e-07
2.83601e-06
-7.75897e-07
2.94413e-06
-8.43861e-07
3.0388e-06
-9.08451e-07
3.118e-06
-9.69142e-07
3.1801e-06
-1.02549e-06
3.22396e-06
-1.07715e-06
3.24895e-06
-1.12389e-06
3.25498e-06
-1.16562e-06
3.24246e-06
-1.20238e-06
3.21224e-06
-1.23432e-06
3.16562e-06
-1.26174e-06
3.10421e-06
-1.28502e-06
3.02984e-06
-1.30462e-06
2.94451e-06
-1.32105e-06
2.85023e-06
-1.33485e-06
2.74896e-06
2.64251e-06
-8.3491e-09
3.2522e-07
-3.22733e-08
8.49642e-07
-6.99818e-08
1.26342e-06
-1.19046e-07
1.5865e-06
-1.76773e-07
1.84081e-06
-2.40605e-07
2.04708e-06
-3.08357e-07
2.22234e-06
-3.78307e-07
2.37866e-06
-4.49147e-07
2.5232e-06
-5.19875e-07
2.65905e-06
-5.89692e-07
2.78651e-06
-6.57908e-07
2.90422e-06
-7.23898e-07
3.01012e-06
-7.87083e-07
3.10198e-06
-8.46931e-07
3.17785e-06
-9.02976e-07
3.23614e-06
-9.54833e-07
3.27582e-06
-1.00222e-06
3.29634e-06
-1.04495e-06
3.29772e-06
-1.083e-06
3.2805e-06
-1.11643e-06
3.24567e-06
-1.14544e-06
3.19464e-06
-1.17034e-06
3.12911e-06
-1.19151e-06
3.05102e-06
-1.20941e-06
2.96242e-06
-1.22454e-06
2.86536e-06
-1.23741e-06
2.76182e-06
2.65361e-06
-6.97856e-09
-2.78004e-08
-6.14704e-08
1.29709e-06
-1.061e-07
1.63113e-06
-1.59299e-07
1.894e-06
-2.18626e-07
2.1064e-06
-2.81907e-07
2.28562e-06
-3.47377e-07
2.44413e-06
-4.13682e-07
2.5895e-06
-4.79796e-07
2.72517e-06
-5.44916e-07
2.85163e-06
-6.08375e-07
2.96768e-06
-6.69587e-07