/*--------------------------------*- C++ -*----------------------------------*\
  =========                 |
  \\      /  F ield         | OpenFOAM: The Open Source CFD Toolbox
   \\    /   O peration     | Website:  https://openfoam.org
    \\  /    A nd           | Version:  9
     \\/     M anipulation  |
\*---------------------------------------------------------------------------*/
FoamFile
{
    format      ascii;
    class       volVectorField;
    location    "2.5";
    object      U;
}
// * * * * * * * * * * * * * * * * * * * * * * * * * * * * * * * * * * * * * //

dimensions      [0 1 -1 0 0 0 0];

internalField   nonuniform List<vector> 
1250
(
(-5.9765e-06 5.9826e-06 0)
(3.18018e-05 -2.13187e-05 0)
(0.000146229 -4.48496e-05 0)
(0.000302102 -5.73991e-05 0)
(0.000477109 -6.15038e-05 0)
(0.000653668 -5.99504e-05 0)
(0.000818815 -5.48307e-05 0)
(0.000963918 -4.76493e-05 0)
(0.00108369 -3.9448e-05 0)
(0.00117527 -3.09286e-05 0)
(0.00123749 -2.25446e-05 0)
(0.00127032 -1.45644e-05 0)
(0.00127441 -7.12363e-06 0)
(0.0012507 -2.18132e-07 0)
(0.0012001 6.22377e-06 0)
(0.00112331 1.23359e-05 0)
(0.00102062 1.82914e-05 0)
(0.00089185 2.42819e-05 0)
(0.000736279 3.04996e-05 0)
(0.000552705 3.71236e-05 0)
(0.000339476 4.4309e-05 0)
(9.45861e-05 5.21802e-05 0)
(-0.000184217 6.08275e-05 0)
(-0.000499318 7.03071e-05 0)
(-0.000853112 8.06416e-05 0)
(-0.00124789 9.18218e-05 0)
(-0.00168572 0.000103808 0)
(-0.00216835 0.000116527 0)
(-0.00269708 0.000129885 0)
(2.13015e-05 -3.16591e-05 0)
(0.00015661 -0.00015643 0)
(0.000435742 -0.000254587 0)
(0.000791972 -0.000309542 0)
(0.00118161 -0.000327594 0)
(0.0015702 -0.000317686 0)
(0.00192969 -0.000287935 0)
(0.00223936 -0.000245023 0)
(0.00248506 -0.000194118 0)
(0.00265789 -0.000139037 0)
(0.00275285 -8.24616e-05 0)
(0.0027677 -2.61212e-05 0)
(0.002702 2.90647e-05 0)
(0.00255619 8.27611e-05 0)
(0.00233089 0.000135164 0)
(0.00202637 0.000186833 0)
(0.00164219 0.000238564 0)
(0.00117696 0.000291271 0)
(0.000628231 0.00034589 0)
(-7.42768e-06 0.000403282 0)
(-0.000734317 0.000464176 0)
(-0.00155738 0.000529114 0)
(-0.00248192 0.000598424 0)
(-0.00351332 0.000672212 0)
(-0.00465667 0.000750354 0)
(-0.00591654 0.000832505 0)
(-0.00729657 0.000918104 0)
(-0.00879923 0.00100638 0)
(-0.0104255 0.00109638 0)
(4.5203e-05 -0.000146294 0)
(0.000256211 -0.000435914 0)
(0.000648674 -0.000646108 0)
(0.00112881 -0.000762941 0)
(0.00163952 -0.000797338 0)
(0.0021375 -0.000765783 0)
(0.0025862 -0.00068483 0)
(0.00295732 -0.000569105 0)
(0.0032305 -0.000430574 0)
(0.00339185 -0.00027849 0)
(0.00343254 -0.000119602 0)
(0.00334748 4.15641e-05 0)
(0.00313392 0.000202405 0)
(0.00279048 0.000361843 0)
(0.00231621 0.000520094 0)
(0.0017098 0.000678301 0)
(0.000969169 0.000838217 0)
(9.10982e-05 0.00100191 0)
(-0.000928825 0.00117149 0)
(-0.00209615 0.00134889 0)
(-0.00341732 0.00153566 0)
(-0.00489934 0.00173287 0)
(-0.00654937 0.00194098 0)
(-0.00837421 0.00215985 0)
(-0.0103798 0.00238869 0)
(-0.0125709 0.00262606 0)
(-0.0149503 0.00286994 0)
(-0.0175186 0.00311771 0)
(-0.0202737 0.00336625 0)
(5.86391e-05 -0.000303785 0)
(0.000314112 -0.000794597 0)
(0.000770343 -0.00112738 0)
(0.00131049 -0.00130297 0)
(0.00186724 -0.00134168 0)
(0.00239172 -0.0012694 0)
(0.00284254 -0.00111203 0)
(0.003187 -0.000892851 0)
(0.00340068 -0.000631361 0)
(0.00346606 -0.000342963 0)
(0.00337102 -3.91163e-05 0)
(0.00310749 0.000272319 0)
(0.00267004 0.000586629 0)
(0.00205481 0.000901801 0)
(0.00125847 0.00121794 0)
(0.000277445 0.00153673 0)
(-0.000892588 0.00186091 0)
(-0.00225701 0.00219373 0)
(-0.00382229 0.00253847 0)
(-0.00559586 0.00289806 0)
(-0.00758576 0.00327469 0)
(-0.00980017 0.00366961 0)
(-0.0122468 0.00408296 0)
(-0.0149324 0.00451368 0)
(-0.0178618 0.00495949 0)
(-0.0210376 0.00541692 0)
(-0.0244596 0.00588134 0)
(-0.0281238 0.00634704 0)
(-0.0320223 0.00680744 0)
(6.4022e-05 -0.000482555 0)
(0.000335524 -0.00118899 0)
(0.000808295 -0.00164035 0)
(0.00135042 -0.00186009 0)
(0.00188728 -0.00188248 0)
(0.00236629 -0.00174488 0)
(0.00274336 -0.00148331 0)
(0.00298338 -0.00112991 0)
(0.0030595 -0.0007117 0)
(0.00295166 -0.000250266 0)
(0.00264509 0.000238172 0)
(0.00212893 0.00074235 0)
(0.00139498 0.00125542 0)
(0.000436594 0.00177428 0)
(-0.000752323 0.00229885 0)
(-0.00217798 0.00283128 0)
(-0.00384721 0.00337513 0)
(-0.00576764 0.00393464 0)
(-0.00794765 0.00451399 0)
(-0.0103961 0.00511667 0)
(-0.0131219 0.00574499 0)
(-0.0161332 0.00639973 0)
(-0.019437 0.00707986 0)
(-0.023038 0.00778243 0)
(-0.0269381 0.00850258 0)
(-0.0311357 0.00923356 0)
(-0.0356247 0.00996687 0)
(-0.0403941 0.0106924 0)
(-0.0454279 0.0113986 0)
(6.37774e-05 -0.000664945 0)
(0.000327349 -0.00158267 0)
(0.000773735 -0.0021373 0)
(0.0012649 -0.00237854 0)
(0.0017223 -0.0023578 0)
(0.0020913 -0.00212572 0)
(0.00232667 -0.00172908 0)
(0.00239231 -0.0012089 0)
(0.00226012 -0.000599509 0)
(0.00190833 7.16371e-05 0)
(0.00132006 0.000783841 0)
(0.000481986 0.00152265 0)
(-0.000616814 0.00227918 0)
(-0.00198585 0.00304932 0)
(-0.00363406 0.00383272 0)
(-0.0055704 0.00463182 0)
(-0.00780415 0.00545078 0)
(-0.010345 0.00629441 0)
(-0.0132027 0.00716724 0)
(-0.016387 0.00807266 0)
(-0.0199064 0.00901226 0)
(-0.0237679 0.00998531 0)
(-0.027976 0.0109885 0)
(-0.0325316 0.0120157 0)
(-0.0374314 0.0130582 0)
(-0.0426671 0.0141046 0)
(-0.0482247 0.015141 0)
(-0.054084 0.0161517 0)
(-0.0602185 0.0171191 0)
(5.94784e-05 -0.000836636 0)
(0.000295021 -0.00194266 0)
(0.000676711 -0.00257319 0)
(0.00106873 -0.00280522 0)
(0.0013922 -0.00270896 0)
(0.00159228 -0.00234932 0)
(0.00162412 -0.00178415 0)
(0.00145175 -0.00106312 0)
(0.00104672 -0.000227457 0)
(0.000386236 0.000690104 0)
(-0.000548277 0.00166488 0)
(-0.00177233 0.00267961 0)
(-0.00329938 0.00372365 0)
(-0.00514171 0.00479194 0)
(-0.007311 0.00588382 0)
(-0.00981873 0.0070018 0)
(-0.0126763 0.00815017 0)
(-0.015895 0.00933374 0)
(-0.0194853 0.0105566 0)
(-0.0234565 0.011821 0)
(-0.0278157 0.0131268 0)
(-0.0325669 0.0144703 0)
(-0.0377103 0.0158446 0)
(-0.043241 0.017239 0)
(-0.0491484 0.0186394 0)
(-0.0554155 0.0200282 0)
(-0.0620183 0.0213852 0)
(-0.0689256 0.0226876 0)
(-0.0760992 0.0239112 0)
(5.20313e-05 -0.000986057 0)
(0.000242237 -0.00223994 0)
(0.000524857 -0.00290698 0)
(0.000773674 -0.00309101 0)
(0.000913075 -0.00288149 0)
(0.000890092 -0.00235773 0)
(0.000661697 -0.00158838 0)
(0.000193203 -0.000631253 0)
(-0.000543493 0.000466331 0)
(-0.00157171 0.00166705 0)
(-0.0029113 0.00294289 0)
(-0.00457972 0.00427431 0)
(-0.00659278 0.00564918 0)
(-0.00896525 0.0070616 0)
(-0.0117113 0.00851046 0)
(-0.0148444 0.00999796 0)
(-0.0183777 0.0115279 0)
(-0.022323 0.0131043 0)
(-0.0266905 0.0147298 0)
(-0.0314877 0.0164042 0)
(-0.0367187 0.018124 0)
(-0.042383 0.0198814 0)
(-0.0484743 0.0216642 0)
(-0.0549799 0.0234555 0)
(-0.0618801 0.0252345 0)
(-0.0691475 0.0269762 0)
(-0.0767467 0.0286529 0)
(-0.0846349 0.0302344 0)
(-0.0927621 0.0316895 0)
(4.1867e-05 -0.00110332 0)
(0.000171196 -0.00244869 0)
(0.000323395 -0.00310136 0)
(0.000388433 -0.00319082 0)
(0.000297468 -0.00282534 0)
(1.56381e-06 -0.00209782 0)
(-0.000538963 -0.00108689 0)
(-0.00135652 0.00014252 0)
(-0.00247817 0.00153799 0)
(-0.00392734 0.00305855 0)
(-0.00572489 0.00467361 0)
(-0.00788993 0.00636187 0)
(-0.0104403 0.00811001 0)
(-0.013393 0.00991131 0)
(-0.0167641 0.0117639 0)
(-0.0205686 0.0136693 0)
(-0.0248202 0.0156298 0)
(-0.0295303 0.0176477 0)
(-0.0347074 0.0197225 0)
(-0.0403559 0.0218506 0)
(-0.0464749 0.0240234 0)
(-0.0530573 0.0262273 0)
(-0.0600889 0.0284431 0)
(-0.0675476 0.0306464 0)
(-0.0754028 0.0328084 0)
(-0.0836159 0.0348961 0)
(-0.0921398 0.0368738 0)
(-0.10092 0.038704 0)
(-0.109896 0.0403491 0)
(2.91394e-05 -0.00117936 0)
(8.30625e-05 -0.00254511 0)
(7.56923e-05 -0.00312175 0)
(-8.06902e-05 -0.00306317 0)
(-0.000444802 -0.00249445 0)
(-0.00105932 -0.00152097 0)
(-0.00195916 -0.000229751 0)
(-0.00317347 0.00130861 0)
(-0.0047277 0.00303791 0)
(-0.00664502 0.00491462 0)
(-0.00894702 0.00690643 0)
(-0.0116542 0.00899077 0)
(-0.0147861 0.0111533 0)
(-0.0183614 0.0133865 0)
(-0.0223974 0.0156872 0)
(-0.0269097 0.0180553 0)
(-0.0319115 0.0204909 0)
(-0.0374124 0.0229929 0)
(-0.0434178 0.0255567 0)
(-0.0499269 0.028173 0)
(-0.0569325 0.0308268 0)
(-0.0644192 0.0334968 0)
(-0.0723631 0.0361558 0)
(-0.0807314 0.0387706 0)
(-0.0894824 0.0413037 0)
(-0.0985658 0.0437138 0)
(-0.107924 0.0459575 0)
(-0.117491 0.0479909 0)
(-0.127199 0.0497713 0)
(1.38843e-05 -0.00120546 0)
(-2.14946e-05 -0.00250693 0)
(-0.000216189 -0.00293609 0)
(-0.00062903 -0.00266936 0)
(-0.00130539 -0.00184647 0)
(-0.0022801 -0.000582934 0)
(-0.00358161 0.00102796 0)
(-0.00523492 0.00291189 0)
(-0.00726342 0.00501049 0)
(-0.00968969 0.00727893 0)
(-0.0125358 0.00968396 0)
(-0.0158233 0.0122022 0)
(-0.019573 0.0148185 0)
(-0.0238045 0.0175239 0)
(-0.0285357 0.0203136 0)
(-0.0337814 0.0231847 0)
(-0.0395532 0.026134 0)
(-0.0458576 0.0291554 0)
(-0.0526946 0.0322385 0)
(-0.0600573 0.0353667 0)
(-0.06793 0.038517 0)
(-0.0762878 0.041659 0)
(-0.0850962 0.0447563 0)
(-0.0943113 0.0477665 0)
(-0.10388 0.0506431 0)
(-0.113742 0.0533372 0)
(-0.123829 0.0557986 0)
(-0.134068 0.0579787 0)
(-0.144386 0.0598317 0)
(-4.12188e-06 -0.0011731 0)
(-0.000142347 -0.00231275 0)
(-0.000550283 -0.00251426 0)
(-0.00125217 -0.00197368 0)
(-0.00227665 -0.000842853 0)
(-0.00364868 0.000755925 0)
(-0.00538905 0.00272589 0)
(-0.00751789 0.0049914 0)
(-0.010056 0.00749378 0)
(-0.0130252 0.0101882 0)
(-0.0164477 0.0130414 0)
(-0.0203458 0.0160294 0)
(-0.0247408 0.0191361 0)
(-0.0296528 0.0223506 0)
(-0.0350987 0.0256656 0)
(-0.0410919 0.0290744 0)
(-0.0476406 0.0325685 0)
(-0.0547463 0.0361357 0)
(-0.0624028 0.0397578 0)
(-0.0705948 0.0434096 0)
(-0.0792974 0.0470583 0)
(-0.0884751 0.0506639 0)
(-0.0980826 0.0541799 0)
(-0.108065 0.0575547 0)
(-0.118359 0.0607338 0)
(-0.128895 0.0636614 0)
(-0.139598 0.0662828 0)
(-0.15039 0.0685465 0)
(-0.161196 0.0704063 0)
(-2.48387e-05 -0.00107385 0)
(-0.000279079 -0.00194199 0)
(-0.000924823 -0.00182791 0)
(-0.00194566 -0.000943678 0)
(-0.00335037 0.000550841 0)
(-0.00515219 0.00253035 0)
(-0.00736321 0.00489809 0)
(-0.00999795 0.00757995 0)
(-0.0130744 0.0105191 0)
(-0.0166132 0.013672 0)
(-0.0206366 0.017006 0)
(-0.0251669 0.020497 0)
(-0.0302256 0.0241272 0)
(-0.0358319 0.0278834 0)
(-0.0420011 0.0317543 0)
(-0.0487432 0.0357281 0)
(-0.0560619 0.0397898 0)
(-0.0639522 0.0439189 0)
(-0.0724001 0.0480882 0)
(-0.081381 0.0522623 0)
(-0.0908598 0.0563979 0)
(-0.10079 0.0604446 0)
(-0.111116 0.064346 0)
(-0.121773 0.0680423 0)
(-0.13269 0.0714718 0)
(-0.143789 0.0745742 0)
(-0.154992 0.0772923 0)
(-0.166219 0.0795741 0)
(-0.177394 0.0813757 0)
(-4.82874e-05 -0.000899303 0)
(-0.000431166 -0.00137522 0)
(-0.00133755 -0.00085101 0)
(-0.00270424 0.000449916 0)
(-0.00451716 0.0023647 0)
(-0.00677625 0.00476978 0)
(-0.00948383 0.0075726 0)
(-0.0126484 0.0107037 0)
(-0.0162848 0.0141104 0)
(-0.0204123 0.0177519 0)
(-0.0250528 0.0215967 0)
(-0.0302281 0.0256202 0)
(-0.0359591 0.0298028 0)
(-0.0422629 0.0341278 0)
(-0.049152 0.0385786 0)
(-0.0566319 0.0431367 0)
(-0.0646999 0.0477788 0)
(-0.0733436 0.0524751 0)
(-0.0825399 0.0571876 0)
(-0.0922543 0.0618698 0)
(-0.102441 0.0664676 0)
(-0.113044 0.0709202 0)
(-0.123997 0.0751623 0)
(-0.135227 0.0791268 0)
(-0.146657 0.0827472 0)
(-0.158205 0.0859606 0)
(-0.169792 0.0887097 0)
(-0.181337 0.0909449 0)
(-0.192768 0.092626 0)
(-7.44508e-05 -0.000641434 0)
(-0.000597791 -0.000594439 0)
(-0.00178539 0.000439919 0)
(-0.00352139 0.00223261 0)
(-0.00576603 0.00462402 0)
(-0.00850439 0.00749809 0)
(-0.0117283 0.0107712 0)
(-0.0154398 0.0143821 0)
(-0.0196504 0.0182844 0)
(-0.0243779 0.0224415 0)
(-0.0296431 0.0268235 0)
(-0.0354671 0.031405 0)
(-0.0418687 0.0361637 0)
(-0.0488624 0.041078 0)
(-0.0564563 0.0461249 0)
(-0.06465 0.0512774 0)
(-0.0734335 0.0565027 0)
(-0.0827857 0.0617599 0)
(-0.0926739 0.0669994 0)
(-0.103053 0.0721634 0)
(-0.113868 0.0771868 0)
(-0.125052 0.0819992 0)
(-0.136532 0.0865278 0)
(-0.148229 0.0907001 0)
(-0.16006 0.0944471 0)
(-0.171944 0.0977055 0)
(-0.183799 0.10042 0)
(-0.195551 0.102546 0)
(-0.207128 0.104049 0)
(-0.000103246 -0.000292727 0)
(-0.000777628 0.00041691 0)
(-0.00226429 0.00206538 0)
(-0.00438923 0.00442567 0)
(-0.00708404 0.0073489 0)
(-0.0103178 0.0107331 0)
(-0.0140713 0.0145089 0)
(-0.0183399 0.018627 0)
(-0.0231315 0.0230499 0)
(-0.0284621 0.0277462 0)
(-0.0343511 0.0326876 0)
(-0.0408179 0.0378476 0)
(-0.0478785 0.0431999 0)
(-0.0555436 0.0487169 0)
(-0.0638155 0.0543676 0)
(-0.0726871 0.0601151 0)
(-0.08214 0.0659155 0)
(-0.0921436 0.0717159 0)
(-0.102655 0.0774549 0)
(-0.11362 0.0830631 0)
(-0.124974 0.0884652 0)
(-0.136641 0.0935826 0)
(-0.148544 0.0983366 0)
(-0.160598 0.102652 0)
(-0.172719 0.106458 0)
(-0.184825 0.109696 0)
(-0.196838 0.112312 0)
(-0.208685 0.114269 0)
(-0.220302 0.115537 0)
(-0.00013423 0.000153828 0)
(-0.000968868 0.00167301 0)
(-0.00276945 0.00404219 0)
(-0.00529832 0.00704561 0)
(-0.0084563 0.0105538 0)
(-0.0121955 0.0144864 0)
(-0.0164851 0.0187939 0)
(-0.0213136 0.0234433 0)
(-0.0266854 0.028408 0)
(-0.0326141 0.0336627 0)
(-0.0391173 0.0391809 0)
(-0.0462118 0.0449341 0)
(-0.05391 0.0508911 0)
(-0.0622174 0.0570164 0)
(-0.0711299 0.0632696 0)
(-0.0806323 0.0696028 0)
(-0.0906974 0.0759597 0)
(-0.101285 0.0822751 0)
(-0.112342 0.0884754 0)
(-0.123806 0.0944805 0)
(-0.135602 0.100206 0)
(-0.147652 0.105567 0)
(-0.15987 0.110481 0)
(-0.172171 0.114871 0)
(-0.18447 0.11867 0)
(-0.196688 0.12182 0)
(-0.208749 0.124276 0)
(-0.220584 0.126005 0)
(-0.232133 0.126986 0)
(-0.000167338 0.000704013 0)
(-0.00116959 0.00318507 0)
(-0.0032949 0.00638297 0)
(-0.0062377 0.0101037 0)
(-0.00986602 0.0142472 0)
(-0.0141143 0.0187629 0)
(-0.0189397 0.0236275 0)
(-0.0243239 0.0288281 0)
(-0.0302674 0.0343516 0)
(-0.0367813 0.0401795 0)
(-0.0438805 0.0462867 0)
(-0.0515787 0.0526418 0)
(-0.0598836 0.0592069 0)
(-0.0687945 0.065938 0)
(-0.0783001 0.0727834 0)
(-0.0883766 0.079683 0)
(-0.0989873 0.0865679 0)
(-0.110083 0.0933601 0)
(-0.121601 0.0999746 0)
(-0.13347 0.106321 0)
(-0.145611 0.112308 0)
(-0.157938 0.117847 0)
(-0.170364 0.122851 0)
(-0.182804 0.127248 0)
(-0.195173 0.130971 0)
(-0.207394 0.133968 0)
(-0.219395 0.136202 0)
(-0.23111 0.137646 0)
(-0.242484 0.138288 0)
(-0.000202059 0.00136222 0)
(-0.00137706 0.00496129 0)
(-0.00383371 0.00909582 0)
(-0.00719507 0.0136058 0)
(-0.0112948 0.0184313 0)
(-0.0160492 0.0235608 0)
(-0.0214033 0.0290038 0)
(-0.0273318 0.0347716 0)
(-0.0338311 0.0408663 0)
(-0.0409095 0.0472771 0)
(-0.0485787 0.0539797 0)
(-0.056848 0.0609385 0)
(-0.0657199 0.068108 0)
(-0.0751869 0.0754338 0)
(-0.0852294 0.0828521 0)
(-0.0958148 0.0902898 0)
(-0.106897 0.0976649 0)
(-0.118418 0.104887 0)
(-0.130307 0.111861 0)
(-0.142487 0.118488 0)
(-0.154871 0.12467 0)
(-0.167371 0.130316 0)
(-0.1799 0.135342 0)
(-0.192371 0.139674 0)
(-0.204704 0.143254 0)
(-0.216821 0.146035 0)
(-0.228655 0.147985 0)
(-0.240144 0.149087 0)
(-0.251235 0.149334 0)
(-0.000237839 0.00213162 0)
(-0.00158821 0.00700631 0)
(-0.00437818 0.0121838 0)
(-0.00815703 0.0175516 0)
(-0.0127231 0.023102 0)
(-0.017974 0.0288718 0)
(-0.0238431 0.0349101 0)
(-0.0302976 0.0412563 0)
(-0.0373299 0.0479301 0)
(-0.0449446 0.0549281 0)
(-0.05315 0.0622264 0)
(-0.0619503 0.0697841 0)
(-0.0713418 0.0775466 0)
(-0.0813096 0.0854479 0)
(-0.0918256 0.0934113 0)
(-0.102849 0.10135 0)
(-0.114323 0.10917 0)
(-0.126183 0.116768 0)
(-0.138351 0.12404 0)
(-0.150743 0.130881 0)
(-0.16327 0.137189 0)
(-0.175842 0.142871 0)
(-0.18837 0.147846 0)
(-0.200769 0.152045 0)
(-0.21296 0.155414 0)
(-0.224871 0.157913 0)
(-0.236434 0.159519 0)
(-0.247593 0.16022 0)
(-0.258298 0.160018 0)
(-0.00027407 0.00301356 0)
(-0.00179968 0.00932074 0)
(-0.00492001 0.0156447 0)
(-0.0091094 0.0219349 0)
(-0.0141304 0.0282486 0)
(-0.019862 0.0346809 0)
(-0.0262257 0.0413269 0)
(-0.0331814 0.0482584 0)
(-0.040717 0.0555139 0)
(-0.0488335 0.063098 0)
(-0.0575344 0.0709862 0)
(-0.0668186 0.079131 0)
(-0.0766757 0.0874677 0)
(-0.0870827 0.0959176 0)
(-0.0980033 0.10439 0)
(-0.109387 0.112786 0)
(-0.121171 0.120998 0)
(-0.133282 0.128912 0)
(-0.145635 0.136417 0)
(-0.158143 0.143402 0)
(-0.170714 0.149764 0)
(-0.183257 0.15541 0)
(-0.195684 0.160263 0)
(-0.207912 0.164258 0)
(-0.219863 0.167349 0)
(-0.231467 0.169502 0)
(-0.242661 0.170701 0)
(-0.253391 0.170944 0)
(-0.000310075 0.00400753 0)
(-0.00200785 0.011901 0)
(-0.00545047 0.0194708 0)
(-0.0100375 0.0267435 0)
(-0.0154959 0.0338544 0)
(-0.0216863 0.0409668 0)
(-0.028518 0.0482285 0)
(-0.0359441 0.0557474 0)
(-0.0439475 0.0635824 0)
(-0.0525248 0.0717459 0)
(-0.0616747 0.080212 0)
(-0.07139 0.0889256 0)
(-0.0816529 0.0978106 0)
(-0.0924327 0.106775 0)
(-0.103685 0.115715 0)
(-0.11535 0.124516 0)
(-0.127359 0.133062 0)
(-0.139631 0.141228 0)
(-0.152078 0.148897 0)
(-0.164607 0.155955 0)
(-0.177127 0.162298 0)
(-0.189546 0.167836 0)
(-0.201777 0.172495 0)
(-0.213738 0.176217 0)
(-0.225355 0.178962 0)
(-0.236559 0.180705 0)
(-0.247292 0.181437 0)
(-0.257504 0.181164 0)
(-0.000345132 0.00511099 0)
(-0.002209 0.0147392 0)
(-0.00596068 0.0236488 0)
(-0.0109267 0.0319592 0)
(-0.016799 0.0398966 0)
(-0.0234203 0.0477022 0)
(-0.0306881 0.0555833 0)
(-0.0385483 0.0636872 0)
(-0.0469784 0.0720945 0)
(-0.0559705 0.0808253 0)
(-0.0655176 0.0898514 0)
(-0.0756063 0.0991091 0)
(-0.0862113 0.10851 0)
(-0.0972941 0.117948 0)
(-0.108802 0.127306 0)
(-0.120669 0.136458 0)
(-0.132818 0.145275 0)
(-0.145163 0.153626 0)
(-0.157613 0.161389 0)
(-0.170074 0.168446 0)
(-0.182452 0.174697 0)
(-0.194657 0.180054 0)
(-0.206602 0.184449 0)
(-0.218209 0.187829 0)
(-0.229404 0.190163 0)
(-0.240125 0.191433 0)
(-0.250316 0.19164 0)
(-0.259932 0.190799 0)
(-0.00037849 0.00631936 0)
(-0.00239933 0.017823 0)
(-0.00644179 0.0281602 0)
(-0.0117626 0.0375581 0)
(-0.0180199 0.0463467 0)
(-0.0250388 0.0548546 0)
(-0.0327057 0.0633545 0)
(-0.0409586 0.0720365 0)
(-0.0497698 0.0810042 0)
(-0.0591262 0.0902849 0)
(-0.0690148 0.0998475 0)
(-0.0794156 0.109619 0)
(-0.0902961 0.119497 0)
(-0.10161 0.129364 0)
(-0.113297 0.139087 0)
(-0.125285 0.148529 0)
(-0.13749 0.157552 0)
(-0.149824 0.166019 0)
(-0.162192 0.173803 0)
(-0.174498 0.180788 0)
(-0.18665 0.186874 0)
(-0.198556 0.191979 0)
(-0.210135 0.19604 0)
(-0.221307 0.199013 0)
(-0.232006 0.200872 0)
(-0.242171 0.201611 0)
(-0.251752 0.201239 0)
(-0.260711 0.199781 0)
(-0.000409401 0.00762601 0)
(-0.00257514 0.021136 0)
(-0.00688527 0.032981 0)
(-0.0125313 0.0435109 0)
(-0.0191395 0.0531709 0)
(-0.0265184 0.0623862 0)
(-0.0345426 0.0715005 0)
(-0.043143 0.0807498 0)
(-0.0522858 0.0902613 0)
(-0.0619524 0.10007 0)
(-0.0721239 0.11014 0)
(-0.0827732 0.120389 0)
(-0.0938607 0.130702 0)
(-0.105333 0.140947 0)
(-0.117123 0.150978 0)
(-0.129153 0.160648 0)
(-0.141335 0.16981 0)
(-0.153577 0.178323 0)
(-0.165781 0.186057 0)
(-0.177854 0.192898 0)
(-0.1897 0.198749 0)
(-0.201234 0.203533 0)
(-0.212372 0.207194 0)
(-0.223043 0.209695 0)
(-0.23318 0.211021 0)
(-0.242731 0.211175 0)
(-0.251651 0.210177 0)
(-0.259908 0.208062 0)
(-0.000437141 0.00902231 0)
(-0.00273291 0.0246574 0)
(-0.00728311 0.0380828 0)
(-0.0132201 0.0497835 0)
(-0.0201407 0.0603311 0)
(-0.0278374 0.0702553 0)
(-0.0361738 0.0799761 0)
(-0.0450728 0.0897778 0)
(-0.0544948 0.0998124 0)
(-0.0644151 0.110122 0)
(-0.0748086 0.120667 0)
(-0.0856415 0.131354 0)
(-0.0968675 0.142055 0)
(-0.108427 0.152623 0)
(-0.120246 0.162903 0)
(-0.132242 0.172737 0)
(-0.144324 0.18197 0)
(-0.156397 0.190459 0)
(-0.168364 0.198074 0)
(-0.18013 0.204701 0)
(-0.191603 0.210248 0)
(-0.202697 0.214646 0)
(-0.213334 0.217844 0)
(-0.223446 0.219816 0)
(-0.232972 0.220556 0)
(-0.241865 0.220078 0)
(-0.250089 0.218414 0)
(-0.257622 0.215614 0)
(-0.000461039 0.0104977 0)
(-0.00286941 0.0283631 0)
(-0.00762801 0.0434325 0)
(-0.0138175 0.0563373 0)
(-0.021008 0.0677849 0)
(-0.028977 0.0784163 0)
(-0.0375772 0.0887326 0)
(-0.0467236 0.0990686 0)
(-0.0563702 0.109602 0)
(-0.066486 0.120382 0)
(-0.0770398 0.131365 0)
(-0.0879913 0.142446 0)
(-0.0992879 0.153485 0)
(-0.110863 0.164321 0)
(-0.12264 0.174789 0)
(-0.134531 0.184721 0)
(-0.146442 0.193959 0)
(-0.158278 0.202357 0)
(-0.16994 0.209783 0)
(-0.181335 0.21613 0)
(-0.192374 0.22131 0)
(-0.202973 0.225259 0)
(-0.213059 0.227937 0)
(-0.222569 0.229328 0)
(-0.231448 0.229438 0)
(-0.239658 0.228291 0)
(-0.24717 0.225933 0)
(-0.253973 0.222427 0)
(-0.000480493 0.0120402 0)
(-0.00298176 0.0322253 0)
(-0.00791356 0.0489931 0)
(-0.0143134 0.0631301 0)
(-0.0217282 0.0754867 0)
(-0.0299211 0.086821 0)
(-0.0387345 0.0977189 0)
(-0.0480751 0.108568 0)
(-0.0578903 0.119573 0)
(-0.0681429 0.13079 0)
(-0.0787953 0.14217 0)
(-0.0898012 0.153599 0)
(-0.101102 0.164924 0)
(-0.112627 0.175971 0)
(-0.124294 0.186566 0)
(-0.136013 0.196533 0)
(-0.147688 0.205711 0)
(-0.159223 0.213951 0)
(-0.170521 0.221125 0)
(-0.181491 0.227128 0)
(-0.192045 0.231881 0)
(-0.202106 0.235326 0)
(-0.211604 0.237435 0)
(-0.220482 0.238201 0)
(-0.228695 0.237643 0)
(-0.236211 0.2358 0)
(-0.243014 0.232731 0)
(-0.249101 0.228513 0)
(-0.000494995 0.0136359 0)
(-0.00306756 0.0362134 0)
(-0.00813439 0.0547247 0)
(-0.0146995 0.0701166 0)
(-0.0222902 0.0833881 0)
(-0.0306567 0.0954188 0)
(-0.039631 0.106882 0)
(-0.0491117 0.118222 0)
(-0.0590391 0.129668 0)
(-0.0693697 0.141285 0)
(-0.08006 0.153021 0)
(-0.091058 0.16475 0)
(-0.1023 0.176307 0)
(-0.113711 0.187508 0)
(-0.125205 0.198169 0)
(-0.13669 0.20811 0)
(-0.148071 0.217164 0)
(-0.159251 0.225184 0)
(-0.170135 0.232045 0)
(-0.180634 0.237648 0)
(-0.190665 0.24192 0)
(-0.200155 0.244813 0)
(-0.209041 0.24631 0)
(-0.217273 0.246417 0)
(-0.224814 0.245166 0)
(-0.231643 0.24261 0)
(-0.237753 0.238824 0)
(-0.243152 0.233899 0)
(-0.000504143 0.01527 0)
(-0.0031249 0.0402947 0)
(-0.00828627 0.0605843 0)
(-0.0149693 0.0772491 0)
(-0.0226856 0.0914388 0)
(-0.031174 0.104158 0)
(-0.0402562 0.116169 0)
(-0.0498224 0.127973 0)
(-0.0598059 0.139829 0)
(-0.0701568 0.151808 0)
(-0.0808259 0.163856 0)
(-0.091756 0.175836 0)
(-0.102879 0.187572 0)
(-0.114116 0.198871 0)
(-0.12538 0.20954 0)
(-0.136578 0.219394 0)
(-0.147613 0.228265 0)
(-0.158391 0.236008 0)
(-0.16882 0.242502 0)
(-0.178813 0.247653 0)
(-0.188292 0.251397 0)
(-0.197191 0.253698 0)
(-0.205454 0.25455 0)
(-0.213038 0.253973 0)
(-0.219917 0.252014 0)
(-0.226078 0.248741 0)
(-0.231527 0.244243 0)
(-0.23628 0.238626 0)
(-0.000507655 0.0169268 0)
(-0.00315241 0.0444344 0)
(-0.00836616 0.0665274 0)
(-0.0151181 0.084478 0)
(-0.0229087 0.0995872 0)
(-0.0314663 0.112985 0)
(-0.040603 0.125526 0)
(-0.0502006 0.137768 0)
(-0.0601851 0.149999 0)
(-0.0705002 0.162302 0)
(-0.0810915 0.174617 0)
(-0.0918971 0.186799 0)
(-0.102846 0.198662 0)
(-0.113855 0.210004 0)
(-0.124838 0.220625 0)
(-0.1357 0.230336 0)
(-0.146346 0.23897 0)
(-0.156683 0.246384 0)
(-0.166624 0.252461 0)
(-0.176086 0.257116 0)
(-0.184996 0.260294 0)
(-0.193295 0.261972 0)
(-0.200935 0.262155 0)
(-0.207882 0.26088 0)
(-0.214119 0.258208 0)
(-0.219646 0.254223 0)
(-0.224474 0.24903 0)
(-0.228634 0.242748 0)
(-0.000505372 0.01859 0)
(-0.00314929 0.0485967 0)
(-0.00837224 0.0725079 0)
(-0.0151432 0.0917528 0)
(-0.022956 0.107781 0)
(-0.0315301 0.121847 0)
(-0.0406685 0.134899 0)
(-0.0502443 0.147552 0)
(-0.0601761 0.160125 0)
(-0.0704017 0.172712 0)
(-0.0808615 0.185249 0)
(-0.0914898 0.197586 0)
(-0.102212 0.209525 0)
(-0.112946 0.220858 0)
(-0.123601 0.231378 0)
(-0.134086 0.240895 0)
(-0.144307 0.249243 0)
(-0.154175 0.25628 0)
(-0.163604 0.261899 0)
(-0.172519 0.266021 0)
(-0.180854 0.268603 0)
(-0.188554 0.269635 0)
(-0.195582 0.269136 0)
(-0.201914 0.267159 0)
(-0.207541 0.263779 0)
(-0.212472 0.259099 0)
(-0.216731 0.253236 0)
(-0.220355 0.246322 0)
(-0.000497262 0.0202427 0)
(-0.0031153 0.0527452 0)
(-0.00830393 0.0784792 0)
(-0.0150438 0.0990225 0)
(-0.0228268 0.115968 0)
(-0.0313652 0.130692 0)
(-0.0404531 0.144235 0)
(-0.0499554 0.157272 0)
(-0.0597831 0.170154 0)
(-0.0698681 0.182985 0)
(-0.0801462 0.195701 0)
(-0.0905487 0.208146 0)
(-0.100999 0.220113 0)
(-0.111413 0.231388 0)
(-0.121703 0.241759 0)
(-0.131777 0.251036 0)
(-0.141544 0.259053 0)
(-0.15092 0.265675 0)
(-0.159823 0.2708 0)
(-0.168185 0.274361 0)
(-0.175945 0.276327 0)
(-0.183058 0.276699 0)
(-0.189495 0.275515 0)
(-0.19524 0.27284 0)
(-0.200296 0.268769 0)
(-0.20468 0.263418 0)
(-0.208424 0.256918 0)
(-0.211573 0.249413 0)
(-0.000483417 0.0218685 0)
(-0.00305075 0.0568433 0)
(-0.0081618 0.0843946 0)
(-0.0148207 0.106236 0)
(-0.0225225 0.124096 0)
(-0.0309738 0.139469 0)
(-0.0399608 0.153484 0)
(-0.0493397 0.166878 0)
(-0.0590144 0.180035 0)
(-0.068911 0.193072 0)
(-0.0789612 0.205926 0)
(-0.0890935 0.218434 0)
(-0.0992304 0.230385 0)
(-0.109288 0.241556 0)
(-0.119179 0.251735 0)
(-0.128814 0.26073 0)
(-0.138108 0.26838 0)
(-0.146977 0.274554 0)
(-0.155348 0.279159 0)
(-0.163157 0.282139 0)
(-0.170353 0.283475 0)
(-0.176898 0.283184 0)
(-0.182771 0.281319 0)
(-0.187966 0.277962 0)
(-0.192495 0.273223 0)
(-0.196383 0.267232 0)
(-0.19967 0.260135 0)
(-0.202406 0.252084 0)
(-0.000464043 0.0234511 0)
(-0.00295649 0.0608553 0)
(-0.00794755 0.0902083 0)
(-0.0144766 0.113344 0)
(-0.0220468 0.132115 0)
(-0.0303612 0.148126 0)
(-0.0391985 0.162596 0)
(-0.0484066 0.176322 0)
(-0.0578823 0.189722 0)
(-0.0675461 0.202928 0)
(-0.077326 0.21588 0)
(-0.0871487 0.22841 0)
(-0.0969361 0.240302 0)
(-0.106605 0.25133 0)
(-0.116071 0.261279 0)
(-0.125247 0.269958 0)
(-0.134051 0.277209 0)
(-0.142407 0.28291 0)
(-0.150246 0.286976 0)
(-0.157512 0.289363 0)
(-0.16416 0.290066 0)
(-0.170162 0.289117 0)
(-0.175504 0.286585 0)
(-0.180191 0.282568 0)
(-0.18424 0.277191 0)
(-0.187685 0.270598 0)
(-0.190572 0.262947 0)
(-0.192956 0.254399 0)
(-0.000439455 0.0249746 0)
(-0.00283381 0.0647463 0)
(-0.0076639 0.0958752 0)
(-0.0140157 0.120298 0)
(-0.0214055 0.139974 0)
(-0.0295348 0.156615 0)
(-0.0381757 0.171525 0)
(-0.0471684 0.185558 0)
(-0.0564022 0.199171 0)
(-0.0657924 0.212512 0)
(-0.0752639 0.225524 0)
(-0.0847421 0.238039 0)
(-0.0941491 0.249835 0)
(-0.103404 0.260684 0)
(-0.112423 0.27037 0)
(-0.121125 0.278705 0)
(-0.129433 0.285534 0)
(-0.137274 0.290744 0)
(-0.144588 0.29426 0)
(-0.151324 0.29605 0)
(-0.157446 0.296124 0)
(-0.162935 0.29453 0)
(-0.167784 0.291351 0)
(-0.172004 0.286702 0)
(-0.175623 0.280723 0)
(-0.178678 0.27357 0)
(-0.18122 0.265411 0)
(-0.183307 0.256414 0)
(-0.000410061 0.0264244 0)
(-0.00268446 0.0684828 0)
(-0.0073145 0.101352 0)
(-0.0134435 0.127049 0)
(-0.0206061 0.147627 0)
(-0.0285042 0.164891 0)
(-0.0369046 0.180225 0)
(-0.0456398 0.194545 0)
(-0.0545922 0.208343 0)
(-0.0636719 0.221786 0)
(-0.0728011 0.234825 0)
(-0.0819045 0.24729 0)
(-0.0909051 0.258958 0)
(-0.099724 0.269598 0)
(-0.108282 0.278994 0)
(-0.116501 0.286962 0)
(-0.124308 0.293353 0)
(-0.13164 0.298061 0)
(-0.138439 0.301023 0)
(-0.144665 0.302221 0)
(-0.150288 0.301677 0)
(-0.155296 0.299456 0)
(-0.15969 0.295657 0)
(-0.163489 0.290411 0)
(-0.166724 0.283869 0)
(-0.16944 0.276201 0)
(-0.171689 0.267582 0)
(-0.173532 0.258186 0)
(-0.000376344 0.0277866 0)
(-0.00251055 0.0720335 0)
(-0.00690379 0.106599 0)
(-0.0127669 0.133554 0)
(-0.0196576 0.155028 0)
(-0.0272808 0.172909 0)
(-0.0353992 0.188656 0)
(-0.0438379 0.203242 0)
(-0.0524726 0.2172 0)
(-0.0612087 0.230717 0)
(-0.0699659 0.243752 0)
(-0.0786686 0.256137 0)
(-0.0872415 0.267649 0)
(-0.0956084 0.278055 0)
(-0.103694 0.287141 0)
(-0.111425 0.294726 0)
(-0.118735 0.300668 0)
(-0.125565 0.304871 0)
(-0.131867 0.307283 0)
(-0.137604 0.307898 0)
(-0.142757 0.306755 0)
(-0.147318 0.303933 0)
(-0.151297 0.299547 0)
(-0.154718 0.293741 0)
(-0.157616 0.286679 0)
(-0.160039 0.278541 0)
(-0.162043 0.269508 0)
(-0.163686 0.25976 0)
(-0.000338853 0.0290489 0)
(-0.00231448 0.0753694 0)
(-0.00643689 0.111576 0)
(-0.0119935 0.13977 0)
(-0.0185703 0.162135 0)
(-0.0258776 0.180628 0)
(-0.033675 0.196778 0)
(-0.0417814 0.211615 0)
(-0.0500657 0.225711 0)
(-0.0584287 0.239275 0)
(-0.0667881 0.25228 0)
(-0.0750684 0.26456 0)
(-0.0831965 0.275892 0)
(-0.0910995 0.286044 0)
(-0.0987064 0.294805 0)
(-0.10595 0.301997 0)
(-0.112768 0.307488 0)
(-0.119109 0.311189 0)
(-0.124931 0.31306 0)
(-0.130205 0.31311 0)
(-0.134917 0.311392 0)
(-0.139067 0.307999 0)
(-0.14267 0.303061 0)
(-0.145753 0.296734 0)
(-0.148357 0.289197 0)
(-0.150532 0.280634 0)
(-0.152331 0.271234 0)
(-0.153815 0.261179 0)
(-0.00029818 0.0302001 0)
(-0.00209892 0.078464 0)
(-0.00591946 0.116247 0)
(-0.0111321 0.145656 0)
(-0.0173557 0.168906 0)
(-0.0243086 0.188009 0)
(-0.0317491 0.204555 0)
(-0.0394902 0.21963 0)
(-0.0473946 0.233844 0)
(-0.0553587 0.247435 0)
(-0.0632983 0.260387 0)
(-0.0711386 0.27254 0)
(-0.0788087 0.283674 0)
(-0.0862398 0.293558 0)
(-0.0933656 0.301985 0)
(-0.100124 0.308782 0)
(-0.10646 0.313823 0)
(-0.112327 0.317031 0)
(-0.11769 0.318377 0)
(-0.122526 0.317884 0)
(-0.126828 0.315619 0)
(-0.130601 0.311689 0)
(-0.133864 0.306237 0)
(-0.136649 0.299433 0)
(-0.138998 0.291463 0)
(-0.140962 0.28252 0)
(-0.142594 0.272798 0)
(-0.143953 0.262477 0)
(-0.000254948 0.0312308 0)
(-0.00186668 0.0812935 0)
(-0.00535761 0.120581 0)
(-0.010192 0.151177 0)
(-0.016026 0.175305 0)
(-0.0225889 0.195017 0)
(-0.0296393 0.211956 0)
(-0.0369853 0.227258 0)
(-0.0444836 0.241576 0)
(-0.0520263 0.255175 0)
(-0.0595276 0.268055 0)
(-0.0669136 0.280065 0)
(-0.0741163 0.290987 0)
(-0.0810708 0.300594 0)
(-0.087716 0.308683 0)
(-0.0939955 0.315086 0)
(-0.09986 0.319686 0)
(-0.10527 0.322416 0)
(-0.110195 0.323259 0)
(-0.11462 0.322249 0)
(-0.118542 0.319468 0)
(-0.12197 0.315038 0)
(-0.124929 0.309113 0)
(-0.127451 0.301874 0)
(-0.12958 0.293515 0)
(-0.131365 0.284235 0)
(-0.132861 0.27423 0)
(-0.134122 0.263682 0)
(-0.000209794 0.032133 0)
(-0.00162073 0.0838375 0)
(-0.00475775 0.124549 0)
(-0.00918304 0.156298 0)
(-0.0145941 0.181297 0)
(-0.0207343 0.201619 0)
(-0.0273643 0.218948 0)
(-0.0342881 0.234472 0)
(-0.041357 0.248882 0)
(-0.0484591 0.262476 0)
(-0.0555069 0.27527 0)
(-0.0624277 0.287123 0)
(-0.0691564 0.297825 0)
(-0.0756326 0.307152 0)
(-0.0818002 0.314903 0)
(-0.0876088 0.320921 0)
(-0.093015 0.325093 0)
(-0.0979848 0.327363 0)
(-0.102495 0.327727 0)
(-0.106534 0.326232 0)
(-0.110104 0.322971 0)