/*--------------------------------*- C++ -*----------------------------------*\
  =========                 |
  \\      /  F ield         | OpenFOAM: The Open Source CFD Toolbox
   \\    /   O peration     | Website:  https://openfoam.org
    \\  /    A nd           | Version:  9
     \\/     M anipulation  |
\*---------------------------------------------------------------------------*/
FoamFile
{
    format      ascii;
    class       volScalarField;
    location    "3.5";
    object      p;
}
// * * * * * * * * * * * * * * * * * * * * * * * * * * * * * * * * * * * * * //

dimensions      [0 2 -2 0 0 0 0];

internalField   nonuniform List<scalar> 
10000
(
-2.67885e-07
2.05273e-05
3.33207e-05
3.32242e-05
1.6209e-05
-1.89914e-05
-7.17937e-05
-0.000140741
-0.000224044
-0.000319899
-0.000426691
-0.00054311
-0.000668198
-0.000801377
-0.000942417
-0.00109139
-0.00124861
-0.00141453
-0.0015897
-0.00177466
-0.00196987
-0.00217567
-0.00239225
-0.00261953
-0.00285721
-0.00310472
-0.00336117
-0.00362534
-0.00389568
-0.00417029
-0.00444689
-0.0047228
-0.00499501
-0.00526011
-0.00551438
-0.00575377
-0.00597403
-0.00617071
-0.00633929
-0.00647527
-0.00657428
-0.00663222
-0.00664539
-0.00661063
-0.00652548
-0.00638831
-0.00619844
-0.00595629
-0.00566346
-0.00532282
-0.00493854
-0.00451605
-0.00406177
-0.00358432
-0.00309241
-0.00259598
-0.00210568
-0.00163258
-0.00118787
-0.000782525
-0.000426987
-0.000130766
9.7877e-05
0.000252252
0.000327515
0.000320872
0.000231717
6.16729e-05
-0.000185453
-0.000503826
-0.000885884
-0.00132238
-0.00180316
-0.00231729
-0.00285356
-0.00340093
-0.0039489
-0.00448783
-0.00500922
-0.00550592
-0.00597217
-0.00640371
-0.00679767
-0.00715251
-0.00746783
-0.00774422
-0.00798303
-0.00818617
-0.00835587
-0.00849453
-0.00860444
-0.00868775
-0.00874628
-0.00878158
-0.00879506
-0.00878837
-0.0087642
-0.00872756
-0.00868638
-0.00865423
-2.18158e-05
-6.72696e-07
7.29538e-06
2.23237e-06
-1.71572e-05
-5.19631e-05
-0.000102007
-0.000166357
-0.000243745
-0.000332829
-0.000432362
-0.000541291
-0.000658816
-0.000784464
-0.000918018
-0.00105952
-0.00120921
-0.00136746
-0.00153472
-0.00171143
-0.00189799
-0.00209471
-0.00230173
-0.00251901
-0.00274628
-0.00298305
-0.00322853
-0.00348163
-0.00374096
-0.0040048
-0.00427104
-0.00453725
-0.00480062
-0.00505799
-0.00530585
-0.00554042
-0.00575764
-0.00595331
-0.00612308
-0.00626262
-0.00636771
-0.00643433
-0.00645887
-0.00643816
-0.00636972
-0.00625182
-0.00608368
-0.00586552
-0.00559871
-0.00528588
-0.00493099
-0.00453917
-0.00411613
-0.00366988
-0.00320909
-0.00274323
-0.00228244
-0.00183732
-0.00141861
-0.00103684
-0.000702038
-0.000423338
-0.000208675
-6.44664e-05
4.64876e-06
-3.98737e-06
-9.09274e-05
-0.000254581
-0.000491266
-0.000795356
-0.00115953
-0.00157508
-0.00203218
-0.00252046
-0.00302931
-0.00354829
-0.00406753
-0.004578
-0.00507178
-0.00554223
-0.00598405
-0.00639333
-0.00676746
-0.00710505
-0.00740579
-0.00767024
-0.00789965
-0.00809578
-0.00826071
-0.00839666
-0.00850583
-0.00859032
-0.00865202
-0.00869267
-0.00871392
-0.0087176
-0.00870621
-0.00868365
-0.00865433
-0.00862205
-3.51268e-05
-8.86133e-06
-9.03688e-07
-7.435e-06
-2.76599e-05
-6.22111e-05
-0.000110836
-0.000172661
-0.000246577
-0.000331425
-0.000426117
-0.000529737
-0.000641628
-0.000761358
-0.000888775
-0.00102395
-0.00116715
-0.00131872
-0.00147912
-0.00164879
-0.00182814
-0.00201749
-0.00221701
-0.00242674
-0.00264648
-0.00287582
-0.00311411
-0.0033604
-0.00361345
-0.00387168
-0.00413317
-0.00439566
-0.00465649
-0.00491265
-0.00516078
-0.00539721
-0.00561798
-0.00581893
-0.00599575
-0.0061441
-0.00625971
-0.00633849
-0.0063767
-0.00637104
-0.00631885
-0.00621823
-0.00606815
-0.00586862
-0.00562076
-0.00532702
-0.00499107
-0.00461692
-0.00421207
-0.00378316
-0.00333865
-0.00288788
-0.00244091
-0.00200822
-0.00160044
-0.00122806
-0.000901046
-0.000628526
-0.000418422
-0.000277158
-0.000209387
-0.000217786
-0.000302926
-0.000463237
-0.000695056
-0.000992781
-0.0013491
-0.00175533
-0.00220176
-0.00267807
-0.00317371
-0.00367846
-0.00418262
-0.00467737
-0.00515505
-0.00560931
-0.00603515
-0.00642891
-0.00678831
-0.00711217
-0.00740038
-0.00765366
-0.00787339
-0.00806142
-0.00821987
-0.00835097
-0.00845697
-0.00853997
-0.00860188
-0.00864444
-0.0086692
-0.00867767
-0.00867176
-0.00865411
-0.00862512
-0.00858079
-3.56804e-05
-4.21983e-06
4.8998e-06
-2.05738e-06
-2.27996e-05
-5.74534e-05
-0.000105497
-0.000165934
-0.000237642
-0.000319496
-0.000410476
-0.000509756
-0.000616746
-0.000731118
-0.0008528
-0.000981937
-0.00111884
-0.00126396
-0.00141778
-0.00158083
-0.00175357
-0.0019364
-0.00212961
-0.0023333
-0.00254742
-0.00277169
-0.00300561
-0.0032484
-0.00349898
-0.00375594
-0.00401753
-0.0042816
-0.00454564
-0.00480672
-0.00506154
-0.00530643
-0.00553741
-0.00575024
-0.0059405
-0.00610368
-0.00623533
-0.00633113
-0.00638708
-0.00639964
-0.00636585
-0.00628356
-0.00615146
-0.00596932
-0.00573804
-0.00545996
-0.00513889
-0.00477717
-0.0043835
-0.0039644
-0.00352811
-0.00308393
-0.00264195
-0.00221269
-0.0018069
-0.0014352
-0.0011077
-0.000833714
-0.000621336
-0.000477172
-0.000406044
-0.000410769
-0.000492029
-0.000648317
-0.000875989
-0.00116941
-0.0015212
-0.00192252
-0.00236348
-0.00283393
-0.0033227
-0.00381972
-0.00431518
-0.00480024
-0.00526728
-0.00571006
-0.00612374
-0.00650487
-0.00685149
-0.00716264
-0.00743849
-0.00768006
-0.00788897
-0.00806728
-0.0082173
-0.00834142
-0.00844199
-0.00852118
-0.00858092
-0.00862284
-0.00864829
-0.0086583
-0.00865401
-0.00863688
-0.00860401
-0.00854587
-1.92437e-05
1.47353e-05
2.40362e-05
1.62291e-05
-5.49517e-06
-4.08327e-05
-8.89863e-05
-0.000148793
-0.000219048
-0.00029861
-0.00038649
-0.000481918
-0.000584388
-0.000693677
-0.000809819
-0.000933069
-0.00106386
-0.00120274
-0.00135034
-0.00150729
-0.00167419
-0.00185158
-0.00203988
-0.00223937
-0.00245017
-0.00267219
-0.00290511
-0.00314835
-0.003401
-0.00366182
-0.00392921
-0.00420112
-0.00447508
-0.00474819
-0.00501708
-0.00527799
-0.00552677
-0.00575898
-0.00596993
-0.00615482
-0.00630887
-0.00642743
-0.00650616
-0.00654117
-0.00652918
-0.00646771
-0.00635521
-0.00619118
-0.00597637
-0.00571252
-0.00540214
-0.00505237
-0.00466714
-0.00425397
-0.00382135
-0.00337867
-0.00293609
-0.00250429
-0.00209422
-0.00171669
-0.00138209
-0.0011
-0.000878834
-0.000725496
-0.000645103
-0.000640744
-0.000713327
-0.000861514
-0.00108176
-0.00136845
-0.00171415
-0.0021099
-0.00254566
-0.00301077
-0.00349424
-0.00398544
-0.00447442
-0.00495209
-0.00541077
-0.00584414
-0.00624741
-0.00661732
-0.00695189
-0.00725062
-0.00751391
-0.00774308
-0.00794006
-0.00810722
-0.00824712
-0.0083624
-0.00845557
-0.00852893
-0.00858445
-0.0086237
-0.00864777
-0.00865728
-0.00865269
-0.00863449
-0.00859729
-0.00852739
1.6177e-05
4.96205e-05
5.75928e-05
4.80386e-05
2.45649e-05
-1.21966e-05
-6.12069e-05
-0.000121132
-0.000190666
-0.000268635
-0.000354059
-0.000446224
-0.000544721
-0.000649441
-0.000760555
-0.000878473
-0.00100379
-0.00113724
-0.00127962
-0.00143175
-0.00159443
-0.00176841
-0.00195431
-0.00215264
-0.00236376
-0.00258779
-0.00282466
-0.00307397
-0.003335
-0.00360666
-0.0038874
-0.00417522
-0.0044676
-0.00476151
-0.00505342
-0.0053393
-0.00561469
-0.00587478
-0.0061145
-0.00632863
-0.00651195
-0.0066594
-0.00676624
-0.0068282
-0.00684167
-0.00680385
-0.00671292
-0.00656818
-0.00637017
-0.00612056
-0.0058221
-0.00548028
-0.00510053
-0.00469005
-0.00425725
-0.00381156
-0.00336327
-0.00292323
-0.00250258
-0.00211242
-0.00176347
-0.00146568
-0.00122786
-0.00105736
-0.000959737
-0.000938488
-0.00099491
-0.00112799
-0.00133441
-0.00160873
-0.00194353
-0.00232981
-0.00275735
-0.00321521
-0.00369213
-0.00417707
-0.00465996
-0.00513099
-0.00558243
-0.00600772
-0.00640195
-0.00676181
-0.00708548
-0.00737252
-0.00762364
-0.0078404
-0.00802506
-0.00818031
-0.00830905
-0.00841418
-0.00849846
-0.00856436
-0.00861393
-0.00864874
-0.00866973
-0.00867717
-0.00867104
-0.00865111
-0.00861031
-0.00853221
7.10577e-05
0.000101077
0.000106079
9.36887e-05
6.75599e-05
2.85704e-05
-2.20377e-05
-8.27912e-05
-0.000152302
-0.000229362
-0.000313012
-0.00040261
-0.000497856
-0.000598785
-0.000705742
-0.000819338
-0.000940386
-0.00106985
-0.00120877
-0.00135824
-0.00151932
-0.00169303
-0.00188029
-0.00208189
-0.00229846
-0.0025304
-0.00277787
-0.00304066
-0.0033182
-0.00360946
-0.00391289
-0.00422638
-0.00454723
-0.00487215
-0.00519725
-0.00551809
-0.00582975
-0.00612692
-0.00640403
-0.00665535
-0.00687517
-0.00705798
-0.00719861
-0.00729242
-0.00733547
-0.00732468
-0.00725798
-0.00713445
-0.00695443
-0.00671953
-0.00643254
-0.00609832
-0.00572259
-0.00531249
-0.00487641
-0.00442382
-0.00396508
-0.00351118
-0.0030735
-0.00266343
-0.00229206
-0.00196978
-0.00170592
-0.00150839
-0.00138332
-0.00133484
-0.0013648
-0.00147272
-0.00165573
-0.00190871
-0.00222447
-0.00259407
-0.00300723
-0.00345281
-0.00391926
-0.00439518
-0.00486983
-0.00533334
-0.00577732
-0.00619488
-0.00658082
-0.00693165
-0.00724548
-0.00752182
-0.00776167
-0.00796666
-0.00813935
-0.00828274
-0.00840004
-0.00849446
-0.00856903
-0.00862645
-0.00866893
-0.00869809
-0.00871483
-0.00871922
-0.00871091
-0.00868923
-0.00864615
-0.00856386
0.000145186
0.00016914
0.000169556
0.000153192
0.000123479
8.14846e-05
2.85941e-05
-3.36367e-05
-0.000103771
-0.0001806
-0.000263213
-0.000351066
-0.000443999
-0.000542227
-0.000646316
-0.000757126
-0.000875745
-0.00100344
-0.00114156
-0.00129155
-0.00145479
-0.00163267
-0.00182645
-0.00203726
-0.00226605
-0.00251351
-0.00277999
-0.00306544
-0.00336936
-0.00369066
-0.00402765
-0.00437798
-0.00473859
-0.00510575
-0.00547506
-0.00584153
-0.00619966
-0.00654354
-0.00686701
-0.0071638
-0.00742769
-0.00765272
-0.00783331
-0.00796447
-0.00804195
-0.00806241
-0.00802355
-0.00792423
-0.00776459
-0.00754608
-0.00727148
-0.00694529
-0.00657317
-0.00616214
-0.00572052
-0.00525775
-0.00478422
-0.00431103
-0.00384974
-0.00341203
-0.00300938
-0.00265269
-0.0023519
-0.0021156
-0.00195071
-0.00186212
-0.00185252
-0.00192218
-0.00206895
-0.00228828
-0.00257343
-0.00291573
-0.00330502
-0.00373007
-0.00417911
-0.00464039
-0.00510264
-0.00555554
-0.00599012
-0.00639897
-0.00677644
-0.00711866
-0.0074235
-0.00769042
-0.00792002
-0.00811437
-0.00827609
-0.00840841
-0.0085148
-0.00859877
-0.00866364
-0.00871235
-0.00874733
-0.00877033
-0.00878229
-0.00878325
-0.0087727
-0.00874971
-0.00870595
-0.00862333
0.000237992
0.000253479
0.000247794
0.000226384
0.000192233
0.000146541
9.07594e-05
2.64632e-05
-4.49195e-05
-0.000122231
-0.000204655
-0.00029178
-0.000383629
-0.000480649
-0.000583674
-0.000693873
-0.000812676
-0.000941714
-0.00108275
-0.00123759
-0.00140809
-0.00159601
-0.00180304
-0.00203067
-0.00228017
-0.00255248
-0.00284812
-0.00316709
-0.00350882
-0.00387204
-0.00425474
-0.00465414
-0.00506668
-0.00548801
-0.00591309
-0.00633627
-0.00675136
-0.00715183
-0.0075309
-0.00788175
-0.00819767
-0.00847227
-0.00869958
-0.0088743
-0.0089919
-0.00904878
-0.0090424
-0.00897141
-0.00883569
-0.00863644
-0.00837639
-0.00805967
-0.00769171
-0.00727936
-0.00683075
-0.00635519
-0.00586301
-0.00536535
-0.00487387
-0.00440053
-0.00395719
-0.0035553
-0.00320546
-0.0029171
-0.00269804
-0.00255423
-0.00248938
-0.00250483
-0.00259942
-0.00276951
-0.00300908
-0.00331005
-0.00366258
-0.00405557
-0.00447717
-0.00491532
-0.00535832
-0.00579527
-0.00621656
-0.00661415
-0.00698174
-0.00731492
-0.00761107
-0.00786928
-0.00809008
-0.00827526
-0.00842755
-0.00855024
-0.00864701
-0.0087216
-0.00877759
-0.00881818
-0.00884603
-0.00886307
-0.00887041
-0.00886813
-0.00885573
-0.00883218
-0.00878936
-0.00870979
0.000348605
0.000353406
0.000340242
0.00031285
0.000273534
0.000223561
0.00016437
9.74685e-05
2.41929e-05
-5.44036e-05
-0.000137651
-0.000225329
-0.000317698
-0.00041549
-0.000519871
-0.000632381
-0.000754865
-0.000889396
-0.0010382
-0.00120357
-0.00138783
-0.00159322
-0.00182184
-0.00207557
-0.00235596
-0.00266413
-0.00300065
-0.00336546
-0.00375773
-0.00417585
-0.00461731
-0.00507873
-0.00555587
-0.00604367
-0.00653633
-0.00702747
-0.00751018
-0.00797729
-0.00842141
-0.0088352
-0.00921151
-0.00954352
-0.00982494
-0.0100501
-0.0102143
-0.0103137
-0.0103453
-0.0103078
-0.0102005
-0.0100244
-0.0097821
-0.00947726
-0.00911501
-0.00870187
-0.00824569
-0.00775554
-0.00724156
-0.0067148
-0.00618698
-0.00567021
-0.00517674
-0.00471851
-0.00430689
-0.00395217
-0.00366329
-0.00344738
-0.00330948
-0.0032523
-0.00327599
-0.00337818
-0.00355397
-0.00379618
-0.00409564
-0.00444165
-0.00482248
-0.00522593
-0.00563993
-0.00605303
-0.00645492
-0.00683678
-0.00719155
-0.00751405
-0.007801
-0.00805091
-0.00826388
-0.00844135
-0.00858601
-0.00870097
-0.00878999
-0.00885695
-0.00890563
-0.00893943
-0.00896125
-0.00897326
-0.00897674
-0.00897194
-0.00895844
-0.00893528
-0.00889488
-0.00882109
0.000475804
0.000467844
0.000445961
0.000411816
0.000366767
0.000312051
0.000249005
0.000178964
0.000103098
2.22786e-05
-6.30364e-05
-0.000152883
-0.000247824
-0.00034894
-0.000457798
-0.000576384
-0.000707028
-0.000852318
-0.00101501
-0.00119795
-0.00140397
-0.0016358
-0.00189596
-0.00218667
-0.00250966
-0.00286613
-0.00325656
-0.00368062
-0.00413709
-0.0046238
-0.00513757
-0.00567429
-0.00622891
-0.00679555
-0.00736761
-0.00793794
-0.00849894
-0.00904278
-0.00956152
-0.0100473
-0.0104926
-0.0108902
-0.0112335
-0.0115166
-0.0117344
-0.0118828
-0.0119587
-0.0119602
-0.0118866
-0.0117384
-0.0115178
-0.0112281
-0.010874
-0.0104616
-0.00999829
-0.00949278
-0.0089549
-0.00839547
-0.00782611
-0.00725902
-0.00670667
-0.00618151
-0.00569558
-0.00526015
-0.0048853
-0.00457955
-0.00434949
-0.00419946
-0.00413134
-0.00414439
-0.00423525
-0.00439808
-0.00462479
-0.00490545
-0.00522876
-0.00558263
-0.00595476
-0.00633322
-0.00670699
-0.00706641
-0.0074035
-0.00771214
-0.00798816
-0.00822926
-0.00843489
-0.008606
-0.00874461
-0.00885387
-0.00893736
-0.00899892
-0.00904242
-0.0090714
-0.00908895
-0.00909744
-0.00909837
-0.0090922
-0.00907868
-0.00905697
-0.0090203
-0.00895429
0.00061793
0.0005952
0.000563606
0.000522071
0.000470854
0.000411042
0.000343741
0.000270007
0.00019075
0.000106576
1.76538e-05
-7.63828e-05
-0.000176468
-0.00028411
-0.000401348
-0.00053069
-0.000675023
-0.000837517
-0.00102152
-0.00123044
-0.00146767
-0.0017364
-0.00203951
-0.00237945
-0.00275804
-0.00317637
-0.00363466
-0.00413212
-0.00466695
-0.00523624
-0.00583602
-0.00646129
-0.00710611
-0.00776376
-0.0084268
-0.00908732
-0.00973703
-0.0103675
-0.0109703
-0.011537
-0.0120599
-0.0125312
-0.0129441
-0.0132924
-0.0135708
-0.0137749
-0.0139013
-0.0139478
-0.0139134
-0.0137981
-0.0136037
-0.013333
-0.0129903
-0.012581
-0.0121121
-0.0115918
-0.0110294
-0.0104352
-0.00982081
-0.00919816
-0.00857986
-0.00797869
-0.0074073
-0.00687785
-0.00640161
-0.00598857
-0.00564703
-0.00538325
-0.00520112
-0.00510197
-0.00508444
-0.00514453
-0.00527572
-0.00546934
-0.00571494
-0.00600088
-0.0063149
-0.00664476
-0.00697879
-0.00730645
-0.00761873
-0.0079084
-0.00817018
-0.00840073
-0.00859854
-0.00876377
-0.00889786
-0.0090034
-0.00908365
-0.00914229
-0.0091831
-0.00920967
-0.00922518
-0.00923217
-0.0092323
-0.00922627
-0.00921401
-0.00919486
-0.00916299
-0.00910604
0.000772753
0.000733447
0.000691201
0.000641828
0.000584152
0.000518974
0.000447026
0.000368975
0.000285368
0.000196452
0.000102021
1.30378e-06
-0.000107088
-0.000225165
-0.000355524
-0.000501265
-0.000665895
-0.000853221
-0.00106721
-0.00131188
-0.0015911
-0.00190848
-0.00226717
-0.0026697
-0.00311781
-0.0036123
-0.00415291
-0.00473822
-0.00536564
-0.0060314
-0.00673059
-0.00745727
-0.00820456
-0.00896485
-0.00972988
-0.010491
-0.0112393
-0.0119656
-0.0126612
-0.0133172
-0.0139254
-0.0144779
-0.0149675
-0.0153878
-0.0157331
-0.015999
-0.0161816
-0.0162786
-0.0162884
-0.0162109
-0.0160473
-0.0157999
-0.0154724
-0.0150696
-0.0145979
-0.0140647
-0.0134788
-0.01285
-0.0121893
-0.0115083
-0.0108196
-0.0101359
-0.00947052
-0.00883617
-0.00824527
-0.00770924
-0.00723818
-0.00684039
-0.00652209
-0.00628704
-0.00613635
-0.00606837
-0.00607878
-0.0061607
-0.00630512
-0.00650134
-0.00673753
-0.00700142
-0.00728086
-0.0075645
-0.00784221
-0.00810554
-0.00834786
-0.00856456
-0.0087529
-0.00891194
-0.00904224
-0.00914561
-0.00922475
-0.00928294
-0.0093237
-0.00935052
-0.00936653
-0.00937433
-0.00937573
-0.00937159
-0.00936203
-0.00934654
-0.00932031
-0.00927305
0.000937415
0.000879836
0.000826179
0.00076866
0.000704357
0.000633564
0.000556545
0.000473433
0.000384298
0.000288936
0.000186681
7.62691e-05
-4.42287e-05
-0.000177409
-0.000326493
-0.000495243
-0.000687843
-0.000908766
-0.00116261
-0.00145394
-0.00178707
-0.00216591
-0.00259371
-0.00307292
-0.00360499
-0.00419022
-0.00482767
-0.00551511
-0.00624901
-0.0070246
-0.00783596
-0.00867613
-0.00953728
-0.0104109
-0.0112879
-0.012159
-0.0130145
-0.0138449
-0.0146407
-0.015393
-0.016093
-0.0167326
-0.0173045
-0.017802
-0.0182193
-0.0185516
-0.018795
-0.0189469
-0.0190054
-0.01897
-0.0188414
-0.0186216
-0.0183134
-0.0179212
-0.0174504
-0.016908
-0.0163016
-0.0156406
-0.014935
-0.014196
-0.0134357
-0.0126668
-0.0119025
-0.0111562
-0.010441
-0.00976963
-0.00915393
-0.00860429
-0.00812937
-0.00773565
-0.00742712
-0.00720505
-0.00706787
-0.00701123
-0.00702821
-0.0071097
-0.00724488
-0.0074219
-0.00762845
-0.00785252
-0.00808295
-0.00830991
-0.00852531
-0.00872296
-0.00889863
-0.00904997
-0.00917632
-0.00927844
-0.00935817
-0.00941816
-0.00946144
-0.00949119
-0.00951035
-0.00952148
-0.00952637
-0.00952601
-0.00952064
-0.00950989
-0.00948989
-0.00945236
0.00110831
0.00103092
0.000965256
0.000899468
0.000828364
0.000751727
0.000669126
0.000580027
0.000483915
0.00038004
0.000267182
0.000143493
6.42237e-06
-0.00014729
-0.000321561
-0.000520868
-0.000750102
-0.00101441
-0.00131898
-0.00166884
-0.00206866
-0.00252246
-0.00303343
-0.00360372
-0.00423426
-0.00492464
-0.00567306
-0.0064763
-0.00732977
-0.0082276
-0.00916277
-0.0101273
-0.0111124
-0.0121086
-0.013106
-0.0140947
-0.0150643
-0.0160049
-0.0169065
-0.0177599
-0.018556
-0.0192867
-0.0199443
-0.0205221
-0.0210143
-0.0214159
-0.021723
-0.0219326
-0.0220429
-0.0220528
-0.0219628
-0.0217742
-0.0214896
-0.0211123
-0.0206473
-0.0201004
-0.0194785
-0.01879
-0.0180439
-0.0172507
-0.0164217
-0.0155691
-0.0147058
-0.0138452
-0.0130011
-0.0121871
-0.0114163
-0.0107012
-0.0100529
-0.00948058
-0.00899149
-0.00859024
-0.00827863
-0.00805553
-0.00791691
-0.00785605
-0.00786391
-0.00792968
-0.00804147
-0.00818693
-0.00835404
-0.00853164
-0.00871002
-0.00888121
-0.00903917
-0.00917981
-0.00930089
-0.00940178
-0.00948318
-0.00954677
-0.00959486
-0.00963009
-0.009655
-0.00967195
-0.00968261
-0.00968795
-0.00968825
-0.00968325
-0.00966988
-0.00964167
0.001281
0.00118248
0.00110444
0.0010302
0.000952255
0.000869496
0.000780663
0.000684425
0.000579573
0.000464712
0.000337973
0.000196842
3.80651e-05
-0.000142351
-0.000349078
-0.00058734
-0.000862739
-0.00118105
-0.00154799
-0.00196895
-0.00244874
-0.00299133
-0.00359962
-0.00427523
-0.00501835
-0.00582767
-0.00670034
-0.00763199
-0.00861685
-0.00964789
-0.010717
-0.011815
-0.0129321
-0.0140581
-0.0151822
-0.0162938
-0.017382
-0.0184363
-0.0194466
-0.0204032
-0.0212971
-0.0221199
-0.022864
-0.0235227
-0.0240903
-0.0245617
-0.024933
-0.0252014
-0.0253646
-0.0254218
-0.0253727
-0.0252185
-0.0249611
-0.0246033
-0.0241492
-0.0236037
-0.0229727
-0.0222635
-0.0214841
-0.0206438
-0.0197529
-0.0188227
-0.0178654
-0.0168941
-0.0159224
-0.0149645
-0.0140345
-0.0131464
-0.0123134
-0.0115476
-0.0108593
-0.0102568
-0.00974577
-0.009329
-0.00900613
-0.00877375
-0.00862554
-0.00855266
-0.00854434
-0.00858853
-0.00867271
-0.00878462
-0.00891289
-0.00904761
-0.00918063
-0.00930579
-0.00941887
-0.00951748
-0.00960077
-0.00966915
-0.00972388
-0.00976681
-0.0097999
-0.00982503
-0.00984363
-0.00985652
-0.00986392
-0.00986557
-0.00985907
-0.00983947
0.00145021
0.00132957
0.00123877
0.00115613
0.00107126
0.000981994
0.000886091
0.000781294
0.000665589
0.000536836
0.000392437
0.000229126
4.28759e-05
-0.000171101
-0.000418266
-0.000704595
-0.00103637
-0.00141993
-0.00186137
-0.00236629
-0.00293947
-0.00358458
-0.00430399
-0.00509856
-0.00596753
-0.00690847
-0.00791733
-0.00898846
-0.0101148
-0.0112882
-0.0124991
-0.0137374
-0.0149924
-0.0162527
-0.017507
-0.0187438
-0.019952
-0.0211206
-0.0222393
-0.0232982
-0.0242882
-0.0252012
-0.0260296
-0.0267669
-0.0274075
-0.0279466
-0.0283806
-0.0287064
-0.0289221
-0.0290266
-0.0290194
-0.0289016
-0.0286744
-0.0283402
-0.0279021
-0.0273643
-0.0267316
-0.0260102
-0.0252067
-0.0243293
-0.0233869
-0.0223895
-0.0213482
-0.0202753
-0.0191838
-0.0180877
-0.0170016
-0.0159403
-0.0149188
-0.0139513
-0.0130515
-0.012231
-0.0114998
-0.010865
-0.0103306
-0.00989764
-0.00956345
-0.00932227
-0.00916549
-0.00908227
-0.00906029
-0.00908655
-0.00914826
-0.0092335
-0.00933181
-0.0094346
-0.00953526
-0.00962918
-0.00971355
-0.00978709
-0.00984974
-0.00990215
-0.00994547
-0.00998091
-0.0100094
-0.0100316
-0.0100474
-0.0100565
-0.010057
-0.0100452
0.00161007
0.0014663
0.00136265
0.00127167
0.00117973
0.00108344
0.000979411
0.000864334
0.00073529
0.000589313
0.000422987
0.000232226
1.21653e-05
-0.000242814
-0.000538971
-0.00088301
-0.00128182
-0.00174217
-0.00227042
-0.00287213
-0.00355182
-0.00431264
-0.00515618
-0.0060823
-0.00708906
-0.00817277
-0.00932799
-0.0105477
-0.0118235
-0.0131458
-0.0145039
-0.0158867
-0.0172822
-0.0186783
-0.020063
-0.0214243
-0.0227505
-0.0240305
-0.0252538
-0.0264106
-0.0274921
-0.0284902
-0.0293977
-0.0302086
-0.0309174
-0.0315198
-0.0320123
-0.0323923
-0.032658
-0.0328083
-0.0328425
-0.0327616
-0.0325666
-0.0322591
-0.0318418
-0.0313178
-0.0306911
-0.0299665
-0.0291496
-0.0282469
-0.0272659
-0.0262152
-0.0251043
-0.0239441
-0.0227465
-0.0215248
-0.020293
-0.0190665
-0.0178608
-0.0166922
-0.0155765
-0.0145289
-0.0135632
-0.0126912
-0.011922
-0.0112615
-0.010712
-0.0102721
-0.00993648
-0.00969679
-0.00954188
-0.00945885
-0.0094339
-0.00945329
-0.00950417
-0.00957521
-0.009657
-0.00974223
-0.00982564
-0.0099038
-0.00997483
-0.0100379
-0.0100931
-0.0101406
-0.0101809
-0.0102138
-0.0102392
-0.0102565
-0.0102641
-0.0102591
0.00175335
0.00158615
0.00146968
0.00137041
0.00127119
0.0011672
0.00105374
0.000926353
0.000781123
0.000614177
0.000421217
0.000197271
-6.34025e-05
-0.00036727
-0.00072137
-0.00113306
-0.00160974
-0.00215845
-0.00278559
-0.00349649
-0.00429513
-0.0051839
-0.00616333
-0.00723209
-0.00838687
-0.0096225
-0.010932
-0.012307
-0.0137375
-0.0152126
-0.0167204
-0.0182484
-0.0197839
-0.021314
-0.0228258
-0.0243071
-0.0257459
-0.0271311
-0.0284521
-0.0296995
-0.0308647
-0.0319401
-0.0329191
-0.0337959
-0.0345658
-0.0352249
-0.0357701
-0.0361993
-0.0365108
-0.0367036
-0.0367772
-0.0367326
-0.0365703
-0.0362918
-0.0358988
-0.0353941
-0.0347805
-0.0340618
-0.0332422
-0.0323269
-0.0313218
-0.0302336
-0.0290703
-0.027841
-0.026556
-0.025227
-0.0238671
-0.022491
-0.0211143
-0.0197539
-0.0184274
-0.0171526
-0.0159467
-0.0148261
-0.013805
-0.0128948
-0.0121038
-0.0114357
-0.0108905
-0.0104634
-0.0101459
-0.00992641
-0.00979094
-0.00972445
-0.00971181
-0.00973882
-0.00979289
-0.00986351
-0.00994241
-0.0100235
-0.0101025
-0.0101769
-0.010245
-0.0103061
-0.0103594
-0.0104044
-0.0104404
-0.0104666
-0.0104814
-0.0104824
0.0018727
0.00168193
0.00155278
0.00144528
0.00133847
0.00122589
0.00110145
0.000959409
0.000794808
0.000602791
0.000378118
0.000114889
-0.000193534
-0.000554449
-0.000975614
-0.00146495
-0.0020302
-0.00267851
-0.00341606
-0.00424771
-0.00517666
-0.00620423
-0.00732971
-0.00855032
-0.0098612
-0.0112556
-0.0127248
-0.0142589
-0.0158465
-0.017475
-0.0191315
-0.0208024
-0.0224739
-0.0241325
-0.0257649
-0.0273585
-0.0289014
-0.0303824
-0.0317914
-0.0331194
-0.0343582
-0.035501
-0.0365416
-0.0374751
-0.0382973
-0.039005
-0.0395957
-0.0400674
-0.0404192
-0.0406502
-0.0407599
-0.0407497
-0.0406196
-0.0403708
-0.0400048
-0.0395234
-0.038929
-0.0382242
-0.0374121
-0.0364964
-0.0354815
-0.0343725
-0.0331754
-0.0318972
-0.0305464
-0.0291327
-0.0276676
-0.0261641
-0.0246371
-0.0231032
-0.0215805
-0.0200884
-0.0186467
-0.0172756
-0.0159941
-0.0148195
-0.013766
-0.0128443
-0.0120601
-0.0114145
-0.0109031
-0.0105171
-0.0102437
-0.0100674
-0.00997152
-0.0099389
-0.00995358
-0.0100014
-0.0100705
-0.0101514
-0.0102371
-0.0103225
-0.0104041
-0.0104796
-0.0105471
-0.0106053
-0.0106528
-0.0106885
-0.0107106
-0.0107173
0.00196002
0.00174591
0.00160433
0.00148864
0.00137378
0.00125154
0.0011143
0.000955
0.00076755
0.000546067
0.000284328
-2.45152e-05
-0.000387989
-0.000814179
-0.00131147
-0.00188822
-0.00255231
-0.00331077
-0.00416934
-0.00513211
-0.00620125
-0.00737677
-0.00865646
-0.0100359
-0.0115085
-0.0130657
-0.0146973
-0.0163913
-0.018135
-0.0199145
-0.0217154
-0.0235233
-0.0253235
-0.0271021
-0.0288454
-0.0305407
-0.0321764
-0.0337416
-0.0352267
-0.0366233
-0.0379241
-0.0391227
-0.0402141
-0.0411939
-0.0420588
-0.0428062
-0.0434341
-0.0439413
-0.044327
-0.0445909
-0.0447333
-0.0447541
-0.0446543
-0.0444347
-0.0440967
-0.0436415
-0.0430708
-0.0423864
-0.0415903
-0.0406851
-0.0396737
-0.0385594
-0.0373466
-0.0360401
-0.0346463
-0.0331727
-0.0316283
-0.0300244
-0.0283738
-0.0266918
-0.0249961
-0.0233062
-0.0216434
-0.0200306
-0.0184906
-0.0170461
-0.0157176
-0.0145228
-0.0134748
-0.0125815
-0.0118448
-0.0112605
-0.0108189
-0.0105055
-0.0103027
-0.0101912
-0.0101515
-0.0101656
-0.0102174
-0.0102935
-0.0103833
-0.0104787
-0.0105737
-0.0106641
-0.0107466
-0.0108188
-0.0108787
-0.0109244
-0.0109541
-0.0109662
0.00200678
0.00176995
0.00161633
0.00149241
0.00136893
0.00123576
0.00108369
0.000904286
0.000690284
0.000434743
0.000130434
-0.000230437
-0.000656248
-0.00115579
-0.00173796
-0.00241136
-0.00318383
-0.00406201
-0.00505095
-0.00615369
-0.0073711
-0.00870167
-0.0101415
-0.0116842
-0.0133215
-0.0150428
-0.0168361
-0.0186879
-0.0205836
-0.0225082
-0.0244461
-0.026382
-0.0283007
-0.0301878
-0.0320299
-0.0338142
-0.0355295
-0.0371656
-0.0387136
-0.0401659
-0.0415161
-0.0427587
-0.0438894
-0.0449049
-0.0458026
-0.0465805
-0.0472375
-0.0477727
-0.0481858
-0.0484771
-0.0486473
-0.0486955
-0.0486234
-0.0484317
-0.0481215
-0.0476938
-0.0471496
-0.0464901
-0.0457166
-0.0448305
-0.0438335
-0.0427277
-0.0415153
-0.0401997
-0.0387847
-0.0372756
-0.0356791
-0.0340035
-0.0322595
-0.0304601
-0.0286211
-0.0267611
-0.0249015
-0.0230661
-0.0212807
-0.0195718
-0.0179658
-0.0164874
-0.0151574
-0.013992
-0.013001
-0.012187
-0.0115452
-0.0110642
-0.0107272
-0.0105137
-0.0104012
-0.0103675
-0.0103921
-0.0104567
-0.0105466
-0.0106498
-0.0107574
-0.0108627
-0.0109607
-0.0110476
-0.0111205
-0.011177
-0.0112148
-0.0112324
0.00200434
0.00174577
0.00158056
0.00144834
0.00131552
0.00116999
0.00100088
0.000798352
0.000553958
0.000259679
-9.27184e-05
-0.000511944
-0.00100716
-0.00158776
-0.00226299
-0.0030415
-0.00393084
-0.00493703
-0.00606412
-0.00731389
-0.00868563
-0.0101761
-0.0117793
-0.0134872
-0.0152892
-0.0171729
-0.0191244
-0.0211285
-0.0231692
-0.02523
-0.0272946
-0.0293469
-0.0313715
-0.0333539
-0.0352807
-0.0371398
-0.0389205
-0.0406135
-0.0422108
-0.0437057
-0.0450927
-0.0463674
-0.0475266
-0.0485675
-0.0494885
-0.0502885
-0.0509667
-0.0515229
-0.0519573
-0.0522703
-0.0524627
-0.0525348
-0.0524874
-0.0523215
-0.0520379
-0.0516375
-0.0511209
-0.050489
-0.0497423
-0.0488815
-0.0479073
-0.0468205
-0.0456221
-0.0443135
-0.0428967
-0.0413746
-0.0397513
-0.0380326
-0.0362261
-0.0343421
-0.0323936
-0.030397
-0.0283723
-0.0263428
-0.0243352
-0.0223788
-0.0205042
-0.0187422
-0.0171216
-0.0156671
-0.0143977
-0.0133248
-0.012451
-0.0117704
-0.011269
-0.0109266
-0.0107189
-0.01062
-0.0106043
-0.0106485
-0.0107327
-0.0108406
-0.0109592
-0.011079
-0.0111926
-0.0112947
-0.0113813
-0.0114491
-0.0114956
-0.0115193
0.00194407
0.0016651
0.00148888
0.00134821
0.00120522
0.00104575
0.000857249
0.000628492
0.000349828
1.21667e-05
-0.000393701
-0.000877347
-0.00144863
-0.00211739
-0.00289305
-0.00378407
-0.00479749
-0.00593843
-0.00720968
-0.00861149
-0.0101414
-0.011794
-0.0135616
-0.0154336
-0.0173976
-0.0194391
-0.0215423
-0.0236904
-0.0258661
-0.0280519
-0.0302306
-0.0323858
-0.034502
-0.0365649
-0.0385616
-0.0404807
-0.0423125
-0.0440484
-0.0456817
-0.0472066
-0.0486187
-0.0499147
-0.0510922
-0.0521494
-0.0530853
-0.0538996
-0.054592
-0.055163
-0.0556129
-0.0559426
-0.056153
-0.0562447
-0.0562186
-0.0560757
-0.0558167
-0.0554424
-0.0549532
-0.0543496
-0.0536319
-0.0528
-0.0518541
-0.0507938
-0.0496192
-0.0483303
-0.0469273
-0.0454111
-0.0437835
-0.0420475
-0.0402078
-0.0382715
-0.0362482
-0.0341513
-0.0319979
-0.0298095
-0.0276119
-0.0254349
-0.0233119
-0.0212781
-0.019369
-0.0176181
-0.016054
-0.0146983
-0.0135632
-0.0126509
-0.0119529
-0.0114518
-0.0111229
-0.0109374
-0.0108652
-0.0108774
-0.0109483
-0.0110559
-0.0111831
-0.0113162
-0.0114453
-0.0115631
-0.011664
-0.0117439
-0.0117999
-0.0118306
0.00181767
0.00152
0.00133337
0.00118407
0.00102999
0.000854896
0.000644608
0.000386503
6.97571e-05
-0.000315761
-0.000780193
-0.00133389
-0.00198727
-0.00275049
-0.00363291
-0.0046426
-0.00578581
-0.00706649
-0.00848595
-0.0100426
-0.0117321
-0.0135468
-0.0154768
-0.0175093
-0.0196298
-0.0218217
-0.0240676
-0.0263491
-0.0286476
-0.030945
-0.0332237
-0.0354669
-0.0376595
-0.0397877
-0.0418393
-0.043804
-0.0456729
-0.0474386
-0.0490956
-0.0506391
-0.052066
-0.0533737
-0.0545608
-0.0556264
-0.0565702
-0.0573923
-0.0580932
-0.0586735
-0.0591342
-0.0594762
-0.0597005
-0.0598082
-0.0598001
-0.0596772
-0.0594404
-0.0590901
-0.0586269
-0.0580511
-0.0573625
-0.056561
-0.055646
-0.0546167
-0.0534724
-0.0522118
-0.0508341
-0.0493384
-0.0477245
-0.045993
-0.0441457
-0.0421864
-0.0401214
-0.0379602
-0.0357163
-0.0334079
-0.0310582
-0.0286957
-0.0263543
-0.0240716
-0.0218882
-0.0198448
-0.0179796
-0.016325
-0.0149046
-0.013731
-0.0128042
-0.0121123
-0.0116329
-0.0113358
-0.0111873
-0.0111528
-0.0112001
-0.0113013
-0.0114332
-0.011578
-0.0117221
-0.0118557
-0.0119716
-0.0120645
-0.012131
-0.01217
0.00161739
0.00130301
0.00110667
0.000948507
0.000782339
0.00058992
0.000355451
6.49675e-05
-0.000293489
-0.000731044
-0.0012587
-0.00188747
-0.00262821
-0.00349118
-0.00448548
-0.00561855
-0.00689558
-0.00831912
-0.00988875
-0.0116009
-0.013449
-0.0154232
-0.0175112