/*--------------------------------*- C++ -*----------------------------------*\
  =========                 |
  \\      /  F ield         | OpenFOAM: The Open Source CFD Toolbox
   \\    /   O peration     | Website:  https://openfoam.org
    \\  /    A nd           | Version:  9
     \\/     M anipulation  |
\*---------------------------------------------------------------------------*/
FoamFile
{
    format      ascii;
    class       surfaceScalarField;
    location    "3.5";
    object      phi;
}
// * * * * * * * * * * * * * * * * * * * * * * * * * * * * * * * * * * * * * //

dimensions      [0 3 -1 0 0 0 0];

internalField   nonuniform List<scalar> 
19800
(
7.42243e-11
-7.20013e-11
9.49985e-10
-8.75714e-10
2.51303e-09
-1.56309e-09
4.46948e-09
-1.95642e-09
6.57091e-09
-2.10147e-09
8.63006e-09
-2.0592e-09
1.0514e-08
-1.88388e-09
1.21346e-08
-1.62061e-09
1.34395e-08
-1.3049e-09
1.4403e-08
-9.63558e-10
1.5019e-08
-6.15944e-10
1.52939e-08
-2.74886e-10
1.52415e-08
5.23471e-11
1.48781e-08
3.63448e-10
1.42182e-08
6.59838e-10
1.32725e-08
9.45756e-10
1.20452e-08
1.22731e-09
1.05337e-08
1.51149e-09
8.72835e-09
1.80535e-09
6.61301e-09
2.11534e-09
4.16624e-09
2.44677e-09
1.36269e-09
2.80355e-09
-1.82534e-09
3.18802e-09
-5.4263e-09
3.60097e-09
-9.46797e-09
4.04167e-09
-1.3976e-08
4.50806e-09
-1.89729e-08
4.99683e-09
-2.44764e-08
5.50353e-09
-3.0499e-08
6.02262e-09
-3.70465e-08
6.54754e-09
-4.41172e-08
7.0707e-09
-5.17008e-08
7.58355e-09
-5.97774e-08
8.0766e-09
-6.83169e-08
8.53955e-09
-7.72783e-08
8.96136e-09
-8.66088e-08
9.33048e-09
-9.62437e-08
9.63497e-09
-1.06107e-07
9.86282e-09
-1.16109e-07
1.00022e-08
-1.2615e-07
1.00416e-08
-1.36121e-07
9.97038e-09
-1.459e-07
9.77895e-09
-1.55359e-07
9.45901e-09
-1.64363e-07
9.00395e-09
-1.72772e-07
8.40912e-09
-1.80444e-07
7.6721e-09
-1.87237e-07
6.79293e-09
-1.93011e-07
5.77441e-09
-1.97634e-07
4.62251e-09
-2.00981e-07
3.34694e-09
-2.02941e-07
1.96056e-09
-2.03423e-07
4.81559e-10
-2.02325e-07
-1.09794e-09
-1.99609e-07
-2.71561e-09
-1.95239e-07
-4.37059e-09
-1.89207e-07
-6.03117e-09
-1.8154e-07
-7.66788e-09
-1.7229e-07
-9.24977e-09
-1.61545e-07
-1.07449e-08
-1.49424e-07
-1.21213e-08
-1.36076e-07
-1.33478e-08
-1.21681e-07
-1.4395e-08
-1.06444e-07
-1.52366e-08
-9.0594e-08
-1.58503e-08
-7.43751e-08
-1.62189e-08
-5.80437e-08
-1.63314e-08
-4.18604e-08
-1.61833e-08
-2.60828e-08
-1.57777e-08
-1.09577e-08
-1.51251e-08
3.28594e-09
-1.42437e-08
1.64452e-08
-1.31593e-08
2.83454e-08
-1.19002e-08
3.88493e-08
-1.05039e-08
4.78583e-08
-9.009e-09
5.53151e-08
-7.45681e-09
6.12028e-08
-5.88768e-09
6.55433e-08
-4.34054e-09
6.83945e-08
-2.85116e-09
6.98451e-08
-1.45058e-09
7.00093e-08
-1.64204e-10
6.90204e-08
9.88869e-10
6.70243e-08
1.99607e-09
6.41729e-08
2.85142e-09
6.06182e-08
3.55473e-09
5.6507e-08
4.11122e-09
5.19764e-08
4.53057e-09
4.71507e-08
4.82569e-09
4.21392e-08
5.01145e-09
3.7036e-08
5.10323e-09
3.19209e-08
5.1151e-09
2.68631e-08
5.05786e-09
2.19264e-08
4.93666e-09
1.71781e-08
4.74829e-09
1.26998e-08
4.47834e-09
8.60116e-09
4.09861e-09
5.03452e-09
3.56664e-09
2.20248e-09
2.83204e-09
3.44469e-10
1.85801e-09
-3.45472e-10
6.89941e-10
-3.45472e-10
8.73894e-10
-9.45944e-10
3.38682e-09
-3.38869e-09
7.10879e-09
-5.285e-09
1.15509e-08
-6.39854e-09
1.62503e-08
-6.80077e-09
2.08176e-08
-6.62652e-09
2.4951e-08
-6.0172e-09
2.84319e-08
-5.10157e-09
3.11148e-08
-3.98786e-09
3.29134e-08
-2.76208e-09
3.37861e-08
-1.48867e-09
3.37228e-08
-2.11554e-10
3.27336e-08
1.04153e-09
3.08355e-08
2.2615e-09
2.8046e-08
3.4494e-09
2.43749e-08
4.61681e-09
1.98207e-08
5.78149e-09
1.43679e-08
6.96438e-09
7.98636e-09
8.18683e-09
6.33485e-10
9.46821e-09
-7.74394e-09
1.08242e-08
-1.72059e-08
1.22655e-08
-2.78154e-08
1.37975e-08
-3.96342e-08
1.54198e-08
-5.27193e-08
1.71268e-08
-6.71187e-08
1.89075e-08
-8.28683e-08
2.07464e-08
-9.99885e-08
2.26237e-08
-1.18481e-07
2.45155e-08
-1.38328e-07
2.63942e-08
-1.59486e-07
2.82288e-08
-1.81888e-07
2.99853e-08
-2.05438e-07
3.1627e-08
-2.30014e-07
3.31151e-08
-2.55462e-07
3.44093e-08
-2.816e-07
3.54689e-08
-3.08218e-07
3.62531e-08
-3.35078e-07
3.67224e-08
-3.61915e-07
3.68396e-08
-3.88444e-07
3.65705e-08
-4.14359e-07
3.58851e-08
-4.39339e-07
3.47586e-08
-4.63052e-07
3.31719e-08
-4.85161e-07
3.11131e-08
-5.05329e-07
2.85774e-08
-5.23225e-07
2.55681e-08
-5.38529e-07
2.20971e-08
-5.5094e-07
1.81851e-08
-5.6018e-07
1.38625e-08
-5.66003e-07
9.17036e-09
-5.68201e-07
4.15865e-09
-5.66618e-07
-1.1024e-09
-5.61101e-07
-6.61412e-09
-5.51593e-07
-1.22241e-08
-5.38083e-07
-1.788e-08
-5.20619e-07
-2.34953e-08
-4.99309e-07
-2.89781e-08
-4.74325e-07
-3.42336e-08
-4.45904e-07
-3.91657e-08
-4.14346e-07
-4.36793e-08
-3.80011e-07
-4.76829e-08
-3.43315e-07
-5.10911e-08
-3.04724e-07
-5.38276e-08
-2.64747e-07
-5.58278e-08
-2.23924e-07
-5.70419e-08
-1.82818e-07
-5.7437e-08
-1.42002e-07
-5.69996e-08
-1.02042e-07
-5.57369e-08
-6.349e-08
-5.36774e-08
-2.68623e-08
-5.08714e-08
7.36824e-09
-4.73898e-08
3.87901e-08
-4.3322e-08
6.70561e-08
-3.87699e-08
9.18988e-08
-3.38517e-08
1.13134e-07
-2.86923e-08
1.30664e-07
-2.34174e-08
1.44474e-07
-1.8151e-08
1.54634e-07
-1.30106e-08
1.61285e-07
-8.10197e-09
1.64637e-07
-3.51591e-09
1.64952e-07
6.74217e-10
1.62532e-07
4.41528e-09
1.5771e-07
7.67355e-09
1.5083e-07
1.04346e-08
1.42239e-07
1.27023e-08
1.32274e-07
1.44958e-08
1.21253e-07
1.58466e-08
1.0947e-07
1.67942e-08
9.71922e-08
1.73813e-08
8.46593e-08
1.7648e-08
7.2092e-08
1.76252e-08
5.97009e-08
1.73277e-08
4.77026e-08
1.67466e-08
3.63381e-08
1.58428e-08
2.58929e-08
1.45438e-08
1.6711e-08
1.27485e-08
9.19087e-09
1.03522e-08
3.74645e-09
7.30244e-09
7.15128e-10
3.72126e-09
3.69656e-10
1.56741e-09
-2.5134e-09
5.3049e-09
-7.12611e-09
1.0487e-08
-1.04672e-08
1.6463e-08
-1.23745e-08
2.26437e-08
-1.29815e-08
2.85276e-08
-1.25104e-08
3.37128e-08
-1.12024e-08
3.78958e-08
-9.28464e-09
4.08624e-08
-6.95446e-09
4.24732e-08
-4.37284e-09
4.26476e-08
-1.66308e-09
4.13481e-08
1.08799e-09
3.85626e-08
3.82697e-09
3.42935e-08
6.53056e-09
2.85437e-08
9.19922e-09
2.13086e-08
1.1852e-08
1.257e-08
1.45201e-08
2.2934e-09
1.7241e-08
-9.57246e-09
2.00527e-08
-2.30933e-08
2.29891e-08
-3.83456e-08
2.60764e-08
-5.54109e-08
2.93309e-08
-7.43706e-08
3.27572e-08
-9.52992e-08
3.63484e-08
-1.18258e-07
4.0086e-08
-1.43292e-07
4.39407e-08
-1.70418e-07
4.7873e-08
-1.99629e-07
5.18345e-08
-2.30882e-07
5.57687e-08
-2.641e-07
5.96115e-08
-2.99164e-07
6.32927e-08
-3.35915e-07
6.67368e-08
-3.74153e-07
6.98645e-08
-4.13632e-07
7.2594e-08
-4.54065e-07
7.48429e-08
-4.95126e-07
7.65301e-08
-5.36451e-07
7.75778e-08
-5.77642e-07
7.79132e-08
-6.18273e-07
7.74709e-08
-6.57897e-07
7.61948e-08
-6.96052e-07
7.40394e-08
-7.32264e-07
7.09714e-08
-7.66064e-07
6.69711e-08
-7.96984e-07
6.20335e-08
-8.24575e-07
5.61684e-08
-8.48408e-07
4.94015e-08
-8.68085e-07
4.17743e-08
-8.83245e-07
3.33442e-08
-8.93567e-07
2.41847e-08
-8.98784e-07
1.43874e-08
-8.98703e-07
4.0777e-09
-8.9311e-07
-6.69479e-09
-8.81965e-07
-1.7759e-08
-8.65229e-07
-2.89607e-08
-8.42951e-07
-4.01583e-08
-8.15252e-07
-5.11934e-08
-7.82331e-07
-6.18999e-08
-7.44456e-07
-7.2108e-08
-7.01975e-07
-8.16472e-08
-6.55304e-07
-9.03504e-08
-6.04929e-07
-9.80569e-08
-5.51403e-07
-1.04618e-07
-4.95332e-07
-1.09899e-07
-4.37373e-07
-1.13787e-07
-3.78221e-07
-1.16193e-07
-3.18601e-07
-1.17057e-07
-2.59249e-07
-1.16352e-07
-2.00902e-07
-1.14084e-07
-1.44279e-07
-1.103e-07
-9.00709e-08
-1.0508e-07
-3.8917e-08
-9.85437e-08
8.60451e-09
-9.08436e-08
5.19973e-08
-8.21627e-08
9.08446e-08
-7.2699e-08
1.24839e-07
-6.26871e-08
1.53775e-07
-5.23528e-08
1.77553e-07
-4.19288e-08
1.96183e-07
-3.16409e-08
2.09778e-07
-2.16974e-08
2.18546e-07
-1.22836e-08
2.22776e-07
-3.55578e-09
2.22828e-07
4.36314e-09
2.19113e-07
1.13889e-08
2.12079e-07
1.74689e-08
2.02192e-07
2.25885e-08
1.89925e-07
2.67634e-08
1.75736e-07
3.00349e-08
1.60068e-07
3.24626e-08
1.43334e-07
3.41154e-08
1.25921e-07
3.50605e-08
1.08195e-07
3.53514e-08
9.05082e-08
3.50148e-08
7.32166e-08
3.40383e-08
5.66991e-08
3.23603e-08
4.13755e-08
2.98674e-08
2.77177e-08
2.64064e-08
1.62452e-08
2.18246e-08
7.49488e-09
1.60528e-08
1.95307e-09
9.26307e-09
2.32272e-09
1.98364e-09
-4.497e-09
6.48068e-09
-1.16231e-08
1.24963e-08
-1.64829e-08
1.92295e-08
-1.91077e-08
2.5997e-08
-1.97489e-08
3.22276e-08
-1.8741e-08
3.74608e-08
-1.64357e-08
4.13415e-08
-1.31653e-08
4.3609e-08
-9.22192e-09
4.40832e-08
-4.84701e-09
4.26481e-08
-2.27978e-10
3.92346e-08
4.50146e-09
3.38037e-08
9.25788e-09
2.63318e-08
1.40025e-08
1.67978e-08
1.87332e-08
5.17363e-09
2.34761e-08
-8.58175e-09
2.82755e-08
-2.45253e-08
3.31845e-08
-4.27291e-08
3.82565e-08
-6.32774e-08
4.35374e-08
-8.62608e-08
4.90598e-08
-1.1177e-07
5.48396e-08
-1.39886e-07
6.08733e-08
-1.70675e-07
6.71376e-08
-2.04179e-07
7.35903e-08
-2.40409e-07
8.01705e-08
-2.79337e-07
8.68013e-08
-3.20894e-07
9.33909e-08
-3.64959e-07
9.98345e-08
-4.11365e-07
1.06017e-07
-4.59886e-07
1.11814e-07
-5.10246e-07
1.17097e-07
-5.62113e-07
1.21731e-07
-6.15104e-07
1.25585e-07
-6.6879e-07
1.28529e-07
-7.22698e-07
1.30438e-07
-7.7632e-07
1.312e-07
-8.29122e-07
1.30715e-07
-8.80547e-07
1.28897e-07
-9.30032e-07
1.25679e-07
-9.77008e-07
1.21015e-07
-1.02092e-06
1.14881e-07
-1.06122e-06
1.07272e-07
-1.09739e-06
9.82099e-08
-1.12896e-06
8.77369e-08
-1.15548e-06
7.59187e-08
-1.17655e-06
6.2843e-08
-1.19182e-06
4.8619e-08
-1.20101e-06
3.33758e-08
-1.20388e-06
1.72557e-08
-1.20033e-06
5.23133e-10
-1.19013e-06
-1.68952e-08
-1.17334e-06
-3.45514e-08
-1.14997e-06
-5.23218e-08
-1.12015e-06
-6.99798e-08
-1.08405e-06
-8.72922e-08
-1.04194e-06
-1.04019e-07
-9.94126e-07
-1.19918e-07
-9.41028e-07
-1.34745e-07
-8.83116e-07
-1.48262e-07
-8.20931e-07
-1.60243e-07
-7.55077e-07
-1.70472e-07
-6.86218e-07
-1.78757e-07
-6.1507e-07
-1.84935e-07
-5.42392e-07
-1.88872e-07
-4.68974e-07
-1.90475e-07
-3.95628e-07
-1.89697e-07
-3.23174e-07
-1.86538e-07
-2.52423e-07
-1.81051e-07
-1.84162e-07
-1.73341e-07
-1.19139e-07
-1.63566e-07
-5.80465e-08
-1.51936e-07
-1.50435e-09
-1.38705e-07
4.99672e-08
-1.24171e-07
9.59253e-08
-1.08645e-07
1.36049e-07
-9.24769e-08
1.70134e-07
-7.6013e-08
1.98092e-07
-5.95989e-08
2.19955e-07
-4.35608e-08
2.35869e-07
-2.81974e-08
2.46082e-07
-1.37693e-08
2.50941e-07
-4.95549e-10
2.5086e-07
1.147e-08
2.46321e-07
2.20074e-08
2.37847e-07
3.10629e-08
2.25983e-07
3.86277e-08
2.11282e-07
4.47355e-08
1.94293e-07
4.94521e-08
1.75546e-07
5.28623e-08
1.55553e-07
5.50535e-08
1.34806e-07
5.60985e-08
1.13784e-07
5.60363e-08
9.29685e-08
5.48539e-08
7.28551e-08
5.24736e-08
5.39732e-08
4.87494e-08
3.68969e-08
4.34826e-08
2.22521e-08
3.64695e-08
1.07135e-08
2.75914e-08
3.00798e-09
1.69686e-08
5.3307e-09
2.16624e-09
-6.66328e-09
6.9722e-09
-1.64291e-08
1.32324e-08
-2.27431e-08
2.00252e-08
-2.59004e-08
2.65962e-08
-2.632e-08
3.23292e-08
-2.44741e-08
3.67302e-08
-2.08366e-08
3.94138e-08
-1.5849e-08
4.00903e-08
-9.89842e-09
3.85501e-08
-3.30677e-09
3.46472e-08
3.67494e-09
2.82822e-08
1.08664e-08
1.93862e-08
1.81539e-08
7.90546e-09
2.54832e-08
-6.21028e-09
3.2849e-08
-2.3017e-08
4.02828e-08
-4.25816e-08
4.78401e-08
-6.49834e-08
5.55863e-08
-9.0312e-08
6.35852e-08
-1.18663e-07
7.18882e-08
-1.50129e-07
8.05263e-08
-1.84795e-07
8.95048e-08
-2.22722e-07
9.88004e-08
-2.63945e-07
1.08361e-07
-3.08459e-07
1.18104e-07
-3.56214e-07
1.27925e-07
-4.07105e-07
1.37693e-07
-4.60971e-07
1.47257e-07
-5.17587e-07
1.56451e-07
-5.76665e-07
1.65095e-07
-6.37854e-07
1.73003e-07
-7.0074e-07
1.79983e-07
-7.64854e-07
1.85845e-07
-8.29675e-07
1.90406e-07
-8.94638e-07
1.93492e-07
-9.59148e-07
1.94948e-07
-1.02258e-06
1.94636e-07
-1.08431e-06
1.92443e-07
-1.1437e-06
1.88283e-07
-1.20012e-06
1.82098e-07
-1.25296e-06
1.73861e-07
-1.30166e-06
1.63576e-07
-1.34566e-06
1.51275e-07
-1.38447e-06
1.37021e-07
-1.41764e-06
1.20906e-07
-1.44477e-06
1.03046e-07
-1.46551e-06
8.35866e-08
-1.47959e-06
6.26931e-08
-1.48677e-06
4.05549e-08
-1.4869e-06
1.73869e-08
-1.4798e-06
-6.56945e-09
-1.46555e-06
-3.11461e-08
-1.4441e-06
-5.60021e-08
-1.41554e-06
-8.08815e-08
-1.38002e-06
-1.055e-07
-1.33775e-06
-1.29562e-07
-1.28901e-06
-1.5276e-07
-1.23414e-06
-1.74787e-07
-1.17355e-06
-1.95332e-07
-1.10772e-06
-2.14093e-07
-1.03719e-06
-2.30775e-07
-9.62563e-07
-2.45101e-07
-8.845e-07
-2.56821e-07
-8.03722e-07
-2.65712e-07
-7.20999e-07
-2.71595e-07
-6.37137e-07
-2.74337e-07
-5.52976e-07
-2.73858e-07
-4.69372e-07
-2.70142e-07
-3.87186e-07
-2.63237e-07
-3.07267e-07
-2.53259e-07
-2.30437e-07
-2.40396e-07
-1.57474e-07
-2.249e-07
-8.90911e-08
-2.07088e-07
-2.59306e-08
-1.87331e-07
3.14681e-08
-1.66044e-07
8.26658e-08
-1.43675e-07
1.27335e-07
-1.20682e-07
1.65279e-07
-9.75432e-08
1.96423e-07
-7.47045e-08
2.20816e-07
-5.25903e-08
2.38628e-07
-3.15813e-08
2.50136e-07
-1.20038e-08
2.55724e-07
5.88173e-09
2.5585e-07
2.18821e-08
2.51039e-07
3.58735e-08
2.41866e-07
4.78005e-08
2.28934e-07
5.76678e-08
2.12858e-07
6.55278e-08
1.94256e-07
7.14649e-08
1.73734e-07
7.55747e-08
1.51892e-07
7.79413e-08
1.29316e-07
7.86121e-08
1.06595e-07
7.75748e-08
8.43286e-08
7.474e-08
6.31434e-08
6.99346e-08
4.37097e-08
6.29162e-08
2.6762e-08
5.34172e-08
1.31272e-08
4.12262e-08
3.77924e-09
2.63165e-08
9.10994e-09
2.1658e-09
-8.82913e-09
6.87762e-09
-2.11408e-08
1.28406e-08
-2.8706e-08
1.9055e-08
-3.21148e-08
2.47212e-08
-3.19861e-08
2.91978e-08
-2.89507e-08
3.19745e-08
-2.36134e-08
3.26518e-08
-1.65262e-08
3.09231e-08
-8.1697e-09
2.65584e-08
1.05796e-09
1.93873e-08
1.0846e-08
9.28298e-09
2.09707e-08
-3.85371e-09
3.12906e-08
-2.01074e-08
4.17369e-08
-3.95591e-08
5.23007e-08
-6.22932e-08
6.3017e-08
-8.84015e-08
7.39483e-08
-1.17982e-07
8.51665e-08
-1.51134e-07
9.67376e-08
-1.87954e-07
1.08708e-07
-2.28524e-07
1.21096e-07
-2.72899e-07
1.33881e-07
-3.21104e-07
1.47005e-07
-3.73113e-07
1.6037e-07
-4.2885e-07
1.73842e-07
-4.88175e-07
1.8725e-07
-5.50879e-07
2.00397e-07
-6.16684e-07
2.13062e-07
-6.85238e-07
2.25004e-07
-7.56119e-07
2.35976e-07
-8.28838e-07
2.45722e-07
-9.02847e-07
2.53992e-07
-9.77546e-07
2.60545e-07
-1.0523e-06
2.65157e-07
-1.12643e-06
2.67627e-07
-1.19927e-06
2.67785e-07
-1.27012e-06
2.65489e-07
-1.33832e-06
2.60637e-07
-1.4032e-06
2.53165e-07
-1.46415e-06
2.43045e-07
-1.52057e-06
2.30289e-07
-1.57194e-06
2.14947e-07
-1.61777e-06
1.97101e-07
-1.65762e-06
1.76868e-07
-1.69111e-06
1.54395e-07
-1.71791e-06
1.29853e-07
-1.73777e-06
1.03442e-07
-1.75046e-06
7.53828e-08
-1.75582e-06
4.59174e-08
-1.75375e-06
1.53158e-08
-1.74416e-06
-1.61608e-08
-1.72708e-06
-4.82253e-08
-1.70254e-06
-8.05418e-08
-1.67063e-06
-1.12789e-07
-1.6315e-06
-1.44629e-07
-1.58536e-06
-1.75709e-07
-1.53245e-06
-2.05669e-07
-1.47309e-06
-2.3414e-07
-1.40767e-06
-2.60753e-07
-1.33662e-06
-2.85141e-07
-1.26045e-06
-3.06947e-07
-1.17972e-06
-3.25829e-07
-1.09507e-06
-3.41472e-07
-1.00719e-06
-3.53594e-07
-9.16828e-07
-3.61957e-07
-8.24787e-07
-3.66378e-07
-7.31909e-07
-3.66736e-07
-6.3907e-07
-3.62982e-07
-5.47162e-07
-3.55145e-07
-4.57081e-07
-3.4334e-07
-3.69711e-07
-3.27766e-07
-2.85904e-07
-3.08707e-07
-2.06462e-07
-2.86529e-07
-1.32124e-07
-2.61669e-07
-6.3541e-08
-2.34627e-07
-1.26786e-09
-2.05948e-07
5.42645e-08
-1.76215e-07
1.02727e-07
-1.46006e-07
1.43932e-07
-1.15909e-07
1.77819e-07
-8.64777e-08
2.04459e-07
-5.82214e-08
2.24045e-07
-3.15894e-08
2.36886e-07
-6.95901e-09
2.43391e-07
1.53764e-08
2.44056e-07
3.52088e-08
2.39446e-07
5.24103e-08
2.30179e-07
6.69351e-08
2.16905e-07
7.88013e-08
2.00297e-07
8.80737e-08
1.81031e-07
9.48402e-08
1.59788e-07
9.91841e-08
1.37246e-07
1.01154e-07
1.14086e-07
1.00735e-07
9.09981e-08
9.78274e-08
6.87019e-08
9.22308e-08
4.79622e-08
8.3656e-08
2.96234e-08
7.1756e-08
1.46595e-08
5.61901e-08
4.25689e-09
3.67191e-08
1.33668e-08
2.01951e-09
-1.08486e-08
6.28357e-09
-2.54049e-08
1.14565e-08
-3.3879e-08
1.65061e-08
-3.71643e-08
2.06166e-08
-3.60967e-08
2.31422e-08
-3.14762e-08
2.35719e-08
-2.40431e-08
2.1504e-08
-1.44582e-08
1.66248e-08
-3.29053e-09
8.69108e-09
8.99165e-09
-2.48683e-09
2.20239e-08
-1.70605e-08
3.55444e-08
-3.51573e-08
4.93873e-08
-5.68914e-08
6.34711e-08
-8.23729e-08
7.77822e-08
-1.11712e-07
9.23561e-08
-1.4502e-07
1.07256e-07
-1.82405e-07
1.22552e-07
-2.23967e-07
1.383e-07
-2.69787e-07
1.54528e-07
-3.19915e-07
1.71224e-07
-3.74363e-07
1.88328e-07
-4.33086e-07
2.05728e-07
-4.9598e-07
2.23264e-07
-5.62868e-07
2.40729e-07
-6.33496e-07
2.57878e-07
-7.07532e-07
2.74433e-07
-7.84564e-07
2.90094e-07
-8.64104e-07
3.04544e-07
-9.45595e-07
3.17466e-07
-1.02842e-06
3.28546e-07
-1.11191e-06
3.37484e-07
-1.19537e-06
3.44005e-07
-1.27808e-06
3.47865e-07
-1.35931e-06
3.48859e-07
-1.43835e-06
3.46824e-07
-1.5145e-06
3.41643e-07
-1.58711e-06
3.33246e-07
-1.65556e-06
3.21611e-07
-1.71928e-06
3.06762e-07
-1.77775e-06
2.88762e-07
-1.83052e-06
2.67716e-07
-1.87718e-06
2.43763e-07
-1.91739e-06
2.17075e-07
-1.95084e-06
1.87849e-07
-1.9773e-06
1.56309e-07
-1.99655e-06
1.22698e-07
-2.00845e-06
8.72815e-08
-2.01288e-06
5.03421e-08
-2.00975e-06
1.21913e-08
-1.99902e-06
-2.68877e-08
-1.98071e-06
-6.65425e-08
-1.95483e-06
-1.06418e-07
-1.92147e-06
-1.46152e-07
-1.88073e-06
-1.85364e-07
-1.83279e-06
-2.23655e-07
-1.77784e-06
-2.60618e-07
-1.71615e-06
-2.9583e-07
-1.64803e-06
-3.28866e-07
-1.57388e-06
-3.59299e-07
-1.49412e-06
-3.86704e-07
-1.40927e-06
-4.10674e-07
-1.31992e-06
-4.30825e-07
-1.22671e-06
-4.46803e-07
-1.13036e-06
-4.58306e-07
-1.03166e-06
-4.65084e-07
-9.31433e-07
-4.66961e-07
-8.30573e-07
-4.63842e-07
-7.29998e-07
-4.55721e-07
-6.30646e-07
-4.42692e-07
-5.33461e-07
-4.24951e-07
-4.39367e-07
-4.02801e-07
-3.49257e-07
-3.7664e-07
-2.63963e-07
-3.46963e-07
-1.84246e-07
-3.14344e-07
-1.10772e-07
-2.79422e-07
-4.41036e-08
-2.42883e-07
1.5325e-08
-2.05435e-07
6.72048e-08
-1.67789e-07
1.11362e-07
-1.30635e-07
1.4776e-07
-9.46191e-08
1.76495e-07
-6.03246e-08
1.9779e-07
-2.82545e-08
2.11994e-07
1.17261e-09
2.19542e-07
2.76609e-08
2.20973e-07
5.09791e-08
2.16893e-07
7.10155e-08
2.07962e-07
8.77322e-08
1.94881e-07
1.01155e-07
1.78374e-07
1.11347e-07
1.59182e-07
1.18376e-07
1.38055e-07
1.22281e-07
1.15753e-07
1.23038e-07
9.30483e-08
1.20532e-07
7.07464e-08
1.14533e-07
4.97037e-08
1.04699e-07
3.08685e-08
9.05912e-08
1.53407e-08
7.17179e-08
4.4635e-09
4.75963e-08
1.78303e-08
1.75129e-09
-1.25999e-08
5.25366e-09
-2.89073e-08
9.18656e-09
-3.78119e-08
1.25294e-08
-4.05072e-08
1.44823e-08
-3.80495e-08
1.44163e-08
-3.14102e-08
1.18353e-08
-2.14621e-08
6.34637e-09
-8.96928e-09
-2.36319e-09
5.41902e-09
-1.45442e-08
2.11726e-08
-3.04016e-08
3.78813e-08
-5.01083e-08
5.52512e-08
-7.38168e-08
7.30958e-08
-1.01668e-07
9.13221e-08
-1.33796e-07
1.0991e-07
-1.7033e-07
1.28891e-07
-2.11393e-07
1.48319e-07
-2.57091e-07
1.6825e-07
-3.07508e-07
1.88717e-07
-3.62693e-07
2.09713e-07
-4.22645e-07
2.31176e-07
-4.87304e-07
2.52987e-07
-5.56538e-07
2.74962e-07
-6.30136e-07
2.96862e-07
-7.07803e-07
3.18396e-07
-7.89155e-07
3.3923e-07
-8.73725e-07
3.59003e-07
-9.60964e-07
3.77333e-07
-1.05025e-06
3.93835e-07
-1.14092e-06
4.08132e-07
-1.23224e-06
4.19866e-07
-1.32347e-06
4.28712e-07
-1.41385e-06
4.34383e-07
-1.50262e-06
4.36642e-07
-1.58907e-06
4.35306e-07
-1.67249e-06
4.30246e-07
-1.75224e-06
4.21391e-07
-1.82772e-06
4.08724e-07
-1.89839e-06
3.9228e-07
-1.96377e-06
3.72141e-07
-2.02344e-06
3.48431e-07
-2.07703e-06
3.21309e-07
-2.12424e-06
2.90967e-07
-2.16478e-06
2.57624e-07
-2.19845e-06
2.2152e-07
-2.22506e-06
1.82915e-07
-2.24445e-06
1.42087e-07
-2.2565e-06
9.93297e-08
-2.26111e-06
5.49527e-08
-2.25821e-06
9.29465e-09
-2.24775e-06
-3.7346e-08
-2.22972e-06
-8.45771e-08
-2.20411e-06
-1.32028e-07
-2.17095e-06
-1.79307e-07
-2.13032e-06
-2.26e-07
-2.0823e-06
-2.71672e-07
-2.02704e-06
-3.15873e-07
-1.96474e-06
-3.58135e-07
-1.89563e-06
-3.97978e-07
-1.82002e-06
-4.34912e-07
-1.73827e-06
-4.6845e-07
-1.65083e-06
-4.98113e-07
-1.55822e-06
-5.23438e-07
-1.46102e-06
-5.43998e-07
-1.35992e-06
-5.59406e-07
-1.25567e-06
-5.69339e-07
-1.14908e-06
-5.73546e-07
-1.04106e-06
-5.71868e-07
-9.32529e-07
-5.64247e-07
-8.24484e-07
-5.50737e-07
-7.17922e-07
-5.31513e-07
-6.13846e-07
-5.06877e-07
-5.13238e-07
-4.77248e-07
-4.17036e-07
-4.43165e-07
-3.26114e-07
-4.05266e-07
-2.41259e-07
-3.64277e-07
-1.63152e-07
-3.2099e-07
-9.23536e-08
-2.76233e-07
-2.92931e-08
-2.30849e-07
2.57416e-08
-1.85669e-07
7.26054e-08
-1.41483e-07
1.11296e-07
-9.90154e-08
1.41951e-07
-5.89091e-08
1.6483e-07
-2.17071e-08
1.80329e-07
1.2162e-08
1.88932e-07
4.23768e-08
1.91218e-07
6.87288e-08
1.87843e-07
9.11077e-08
1.79516e-07
1.09482e-07
1.66991e-07
1.23872e-07
1.51052e-07
1.34315e-07
1.32505e-07
1.40828e-07
1.12174e-07
1.43369e-07
9.0907e-08
1.41799e-07
6.95869e-08
1.35853e-07
4.91541e-08
1.25131e-07
3.06473e-08
1.09098e-07
1.52618e-08
8.71034e-08
4.436e-09
5.8422e-08
2.22663e-08
1.37431e-09
-1.39742e-08
3.82869e-09
-3.13617e-08
6.10584e-09
-4.00891e-08
7.23928e-09
-4.16407e-08
6.47646e-09
-3.72867e-08
3.22851e-09
-2.81623e-08
-2.97047e-09
-1.52631e-08
-1.24945e-08
5.54723e-10
-2.56485e-08
1.8573e-08
-4.26861e-08
3.82103e-08
-6.38238e-08
5.9019e-08
-8.92523e-08
8.06796e-08
-1.19145e-07
1.02989e-07
-1.53664e-07
1.25841e-07
-1.92961e-07
1.49207e-07
-2.37174e-07
1.73104e-07
-2.86424e-07
1.97569e-07
-3.40802e-07
2.22627e-07
-4.00356e-07
2.48271e-07
-4.65081e-07
2.74438e-07
-5.34904e-07
3.00999e-07
-6.09672e-07
3.27755e-07
-6.89144e-07
3.54434e-07
-7.72986e-07
3.80705e-07
-8.60771e-07
4.06181e-07
-9.51981e-07
4.3044e-07
-1.04602e-06
4.53037e-07
-1.1422e-06
4.73519e-07
-1.23981e-06
4.91447e-07
-1.33809e-06
5.06405e-07
-1.43624e-06
5.18017e-07
-1.53348e-06
5.25956e-07
-1.62906e-06
5.29956e-07
-1.72223e-06
5.29812e-07
-1.81231e-06
5.25388e-07
-1.89867e-06
5.16611e-07
-1.98076e-06
5.03472e-07
-2.05805e-06
4.86016e-07
-2.13011e-06
4.64343e-07
-2.19656e-06
4.38592e-07
-2.25707e-06
4.08944e-07
-2.31137e-06
3.75607e-07
-2.35922e-06
3.38814e-07
-2.40041e-06
2.9882e-07
-2.43479e-06
2.55894e-07
-2.4622e-06
2.10322e-07
-2.48251e-06
1.62401e-07
-2.49562e-06
1.12441e-07
-2.50143e-06
6.07652e-08
-2.49986e-06
7.72438e-09
-2.49084e-06
-4.63663e-08
-2.47432e-06
-1.01101e-07
-2.45025e-06
-1.56096e-07
-2.41862e-06
-2.10938e-07
-2.37943e-06
-2.65191e-07
-2.33271e-06
-3.1839e-07
-2.27853e-06
-3.70051e-07
-2.21701e-06
-4.19662e-07
-2.14829e-06
-4.66694e-07
-2.0726e-06
-5.10601e-07
-1.99022e-06
-5.50829e-07
-1.90151e-06
-5.86825e-07
-1.8069e-06
-6.18045e-07
-1.70693e-06
-6.43976e-07
-1.60219e-06
-6.6414e-07
-1.49341e-06
-6.78123e-07
-1.38137e-06
-6.85584e-07
-1.26696e-06
-6.86278e-07
-1.15113e-06
-6.80073e-07
-1.03491e-06
-6.66962e-07
-9.19345e-07
-6.47078e-07
-8.05523e-07
-6.20698e-07
-6.94525e-07
-5.88246e-07
-5.87402e-07
-5.50288e-07
-4.85152e-07
-5.07516e-07
-3.88693e-07
-4.60736e-07
-2.98842e-07
-4.10841e-07
-2.16292e-07
-3.58783e-07
-1.416e-07
-3.05542e-07
-7.51749e-08
-2.52094e-07
-1.72736e-08
-1.99384e-07
3.20014e-08
-1.4829e-07
7.26975e-08
-9.96052e-08
1.05004e-07
-5.40135e-08
1.29246e-07
-1.20799e-08
1.45866e-07
2.57571e-08
1.55409e-07
5.91856e-08
1.58513e-07
8.80031e-08
1.5589e-07
1.12105e-07
1.48307e-07
1.31454e-07
1.3658e-07
1.46042e-07
1.21558e-07
1.55851e-07
1.04119e-07
1.60807e-07
8.51767e-08
1.60741e-07
6.56814e-08
1.55348e-07
4.66469e-08
1.44166e-07
2.91832e-08
1.26562e-07
1.45482e-08
1.01738e-07
4.21819e-09
6.87521e-08
2.64845e-08
8.94492e-10
-1.48687e-08
2.03245e-09
-3.24996e-08
2.26496e-09
-4.03216e-08
7.20943e-10
-4.00966e-08
-3.27277e-09
-3.3293e-08
-1.02429e-08
-2.11922e-08
-2.06101e-08
-4.89586e-09
-3.47199e-08
1.46645e-08
-5.28634e-08
3.67165e-08
-7.5293e-08
6.06398e-08
-1.02233e-07
8.5959e-08
-1.33888e-07
1.12335e-07
-1.70447e-07
1.39548e-07
-2.12085e-07
1.67479e-07
-2.58962e-07
1.96084e-07
-3.11213e-07
2.25355e-07
-3.68941e-07
2.55296e-07
-4.322e-07
2.85887e-07
-5.00987e-07
3.17058e-07
-5.7522e-07
3.48671e-07
-6.54733e-07
3.80512e-07
-7.39261e-07
4.12283e-07
-8.28439e-07
4.43613e-07
-9.21804e-07
4.74069e-07
-1.01879e-06
5.0317e-07
-1.11876e-06
5.30407e-07
-1.22099e-06
5.55266e-07
-1.32471e-06
5.77241e-07
-1.42912e-06
5.95861e-07
-1.53342e-06
6.10699e-07
-1.63679e-06
6.21388e-07
-1.73846e-06
6.27634e-07
-1.83772e-06
6.29212e-07
-1.93388e-06
6.25976e-07
-2.02635e-06
6.17854e-07
-2.11458e-06
6.04841e-07
-2.1981e-06
5.86998e-07
-2.27652e-06
5.64434e-07
-2.34949e-06
5.3731e-07
-2.41672e-06
5.05818e-07
-2.47796e-06
4.70183e-07
-2.533e-06
4.30652e-07
-2.58168e-06
3.87489e-07
-2.62383e-06
3.40971e-07
-2.65932e-06
2.91386e-07
-2.68803e-06
2.39033e-07
-2.70985e-06
1.84218e-07
-2.72466e-06
1.27258e-07
-2.73238e-06
6.84809e-08
-2.73289e-06
8.23564e-09
-2.72611e-06
-5.31411e-08
-2.71196e-06
-1.15253e-07
-2.69035e-06
-1.77706e-07
-2.66122e-06
-2.40075e-07
-2.6245e-06
-3.01908e-07
-2.58017e-06
-3.62722e-07
-2.52821e-06
-4.22005e-07
-2.46866e-06
-4.79212e-07
-2.40159e-06
-5.33771e-07
-2.32711e-06
-5.85082e-07
-2.2454e-06
-6.32531e-07
-2.15674e-06
-6.7549e-07
-2.06145e-06
-7.13334e-07
-1.95997e-06
-7.45456e-07
-1.85283e-06
-7.71279e-07
-1.74067e-06
-7.90282e-07
-1.62424e-06
-8.02017e-07
-1.50438e-06
-8.06133e-07
-1.38206e-06
-8.02397e-07
-1.25831e-06
-7.90716e-07
-1.13423e-06
-7.71151e-07
-1.011e-06
-7.43931e-07
-8.89789e-07
-7.09457e-07
-7.71776e-07
-6.68301e-07
-6.58098e-07
-6.21194e-07
-5.49822e-07
-5.69012e-07
-4.47918e-07
-5.12745e-07
-3.53233e-07
-4.53468e-07
-2.66469e-07
-3.92306e-07
-1.8817e-07
-3.30393e-07
-1.18715e-07
-2.6884e-07
-5.83124e-08
-2.08693e-07
-7.00691e-09
-1.50911e-07
3.53159e-08
-9.63363e-08
6.89171e-08
-4.56811e-08
9.41978e-08
4.76338e-10
1.11666e-07
4.17177e-08
1.21944e-07
7.77248e-08
1.25739e-07
1.08311e-07
1.23828e-07
1.33364e-07
1.1705e-07
1.5282e-07
1.0629e-07
1.66611e-07
9.24738e-08
1.74624e-07
7.65659e-08
1.76649e-07
5.95778e-08
1.72336e-07
4.25824e-08
1.61161e-07
2.67413e-08
1.42403e-07
1.33439e-08
1.15136e-07
3.8573e-09
7.82387e-08
3.03418e-08
3.13872e-10
-1.51826e-08
-1.2276e-10
-3.2063e-08
-2.29974e-09
-3.81446e-08
-6.95577e-09
-3.54406e-08
-1.46532e-08
-2.55955e-08
-2.5834e-08
-1.00114e-08
-4.08596e-08
1.01297e-08
-6.00383e-08
3.38432e-08
-8.36425e-08
6.03208e-08
-1.1192e-07
8.89169e-08
-1.45098e-07
1.19137e-07
-1.83391e-07
1.50627e-07
-2.26996e-07
1.83153e-07
-2.76094e-07
2.16577e-07
-3.30837e-07
2.50827e-07
-3.91343e-07
2.85861e-07
-4.57678e-07
3.21632e-07
-5.29845e-07
3.58054e-07
-6.07763e-07
3.94975e-07
-6.91256e-07
4.32165e-07
-7.80048e-07
4.69304e-07
-8.73751e-07
5.05985e-07
-9.7187e-07
5.41732e-07
-1.07381e-06
5.76009e-07
-1.17889e-06
6.08246e-07
-1.28635e-06
6.37867e-07
-1.39538e-06
6.64303e-07
-1.50517e-06
6.87026e-07
-1.61486e-06
7.05558e-07
-1.72366e-06
7.19493e-07
-1.83077e-06
7.28504e-07
-1.93549e-06
7.32348e-07
-2.03715e-06
7.30869e-07
-2.13516e-06
7.23992e-07
-2.22903e-06
7.11719e-07
-2.3183e-06
6.94117e-07
-2.40262e-06
6.71313e-07
-2.48166e-06
6.43478e-07
-2.55517e-06
6.10822e-07
-2.62294e-06
5.73582e-07
-2.68477e-06
5.32018e-07
-2.74052e-06
4.86403e-07
-2.79006e-06
4.37021e-07
-2.83325e-06
3.84166e-07
-2.87e-06
3.28134e-07
-2.9002e-06
2.69231e-07
-2.92374e-06
2.07764e-07
-2.94054e-06
1.44051e-07
-2.95048e-06
7.84203e-08
-2.95345e-06
1.12104e-08
-2.94936e-06
-5.72281e-08
-2.9381e-06
-1.26516e-07
-2.91955e-06
-1.96256e-07
-2.8936e-06
-2.66022e-07
-2.86015e-06
-3.35357e-07
-2.81911e-06
-4.0377e-07
-2.77038e-06
-4.70732e-07
-2.71392e-06
-5.35675e-07
-2.64969e-06
-5.97995e-07
-2.57772e-06
-6.57051e-07
-2.49808e-06
-7.12172e-07
-2.41091e-06
-7.62664e-07
-2.31642e-06
-8.0782e-07
-2.21494e-06
-8.46939e-07
-2.10688e-06
-8.79337e-07
-1.99278e-06
-9.04377e-07
-1.87332e-06
-9.21485e-07
-1.74927e-06
-9.30181e-07
-1.62156e-06
-9.30107e-07
-1.49122e-06
-9.21051e-07
-1.35941e-06
-9.02967e-07
-1.22733e-06
-8.76004e-07
-1.09629e-06
-8.40504e-07
-9.67568e-07
-7.97019e-07
-8.42468e-07
-7.46294e-07
-7.22226e-07
-6.89254e-07
-6.0799e-07
-6.26981e-07
-5.00787e-07
-5.6067e-07
-4.01496e-07
-4.91597e-07
-3.1082e-07
-4.21069e-07
-2.29282e-07
-3.50378e-07
-1.57213e-07
-2.80761e-07
-9.47599e-08
-2.13364e-07
-4.18876e-08
-1.49209e-07
1.60489e-09
-8.91736e-08
3.60648e-08
-3.39836e-08
6.19866e-08
1.57959e-08
7.99702e-08
5.97412e-08
9.0721e-08
9.75599e-08
9.50283e-08
1.29057e-07
9.37511e-08
1.54097e-07
8.78063e-08
1.72556e-07
7.81602e-08
1.8427e-07
6.58251e-08
1.88984e-07
5.18619e-08
1.863e-07
3.73896e-08
1.75634e-07
2.36034e-08
1.56189e-07
1.17991e-08
1.2694e-07
3.40122e-09
8.66366e-08
3.37431e-08
-3.68044e-10
-1.48145e-08
-2.62429e-09
-2.98067e-08
-7.55742e-09
-3.32114e-08
-1.57272e-08
-2.72709e-08
-2.75555e-08
-1.37672e-08
-4.33795e-08
5.81262e-09
-6.34888e-08
3.0239e-08
-8.81473e-08
5.85017e-08
-1.17604e-07
8.97778e-08
-1.52098e-07
1.23411e-07
-1.91858e-07
1.58897e-07
-2.37099e-07
1.95869e-07
-2.8802e-07
2.34074e-07
-3.44792e-07
2.73349e-07
-4.0755e-07
3.13584e-07
-4.76376e-07
3.54686e-07
-5.51281e-07
3.96537e-07
-6.32194e-07
4.38966e-07
-7.1894e-07
4.81722e-07
-8.11237e-07
5.24462e-07
-9.08684e-07
5.6675e-07
-1.01077e-06
6.08067e-07
-1.11686e-06
6.47828e-07
-1.22626e-06
6.85406e-07
-1.33817e-06
7.2016e-07
-1.45177e-06
7.51463e-07
-1.56619e-06
7.78725e-07
-1.68058e-06
8.01418e-07
-1.79412e-06
8.19094e-07
-1.90602e-06
8.31392e-07
-2.01556e-06
8.38048e-07
-2.12211e-06
8.38891e-07
-2.22508e-06
8.33843e-07
-2.32399e-06
8.22908e-07
-2.41844e-06
8.06161e-07
-2.50806e-06
7.83739e-07
-2.59257e-06
7.55828e-07
-2.67175e-06
7.2265e-07
-2.74538e-06
6.84457e-07
-2.81332e-06
6.41522e-07
-2.87543e-06
5.9413e-07
-2.9316e-06
5.42574e-07
-2.98174e-06
4.87154e-07
-3.02574e-06
4.28172e-07
-3.06354e-06
3.65932e-07
-3.09505e-06
3.00739e-07
-3.12019e-06
2.32902e-07
-3.13887e-06
1.62735e-07
-3.15101e-06
9.05573e-08
-3.1565e-06
1.67001e-08
-3.15524e-06
-5.84898e-08
-3.1471e-06
-1.34649e-07
-3.13197e-06
-2.1139e-07
-3.10969e-06
-2.88296e-07
-3.08013e-06
-3.64919e-07
-3.04313e-06
-4.40769e-07
-2.99855e-06
-5.15316e-07
-2.94624e-06
-5.87985e-07
-2.88608e-06
-6.58153e-07
-2.81798e-06
-7.2515e-07
-2.74189e-06
-7.88264e-07
-2.65781e-06
-8.46742e-07
-2.56583e-06
-8.99807e-07
-2.4661e-06
-9.46663e-07
-2.35892e-06
-9.86521e-07
-2.24468e-06
-1.01862e-06
-2.12392e-06
-1.04224e-06
-1.99734e-06
-1.05676e-06
-1.86578e-06
-1.06167e-06
-1.73023e-06
-1.0566e-06
-1.59184e-06
-1.04136e-06
-1.45187e-06
-1.01597e-06
-1.31169e-06
-9.80684e-07
-1.17273e-06
-9.35984e-07
-1.03643e-06
-8.82592e-07
-9.04223e-07
-8.2146e-07
-7.77468e-07
-7.53736e-07
-6.57406e-07
-6.80732e-07
-5.45127e-07
-6.03876e-07
-4.41537e-07
-5.24659e-07
-3.47336e-07
-4.44579e-07
-2.63008e-07
-3.65089e-07
-1.88824e-07
-2.87548e-07
-1.24844e-07