/*--------------------------------*- C++ -*----------------------------------*\
  =========                 |
  \\      /  F ield         | OpenFOAM: The Open Source CFD Toolbox
   \\    /   O peration     | Website:  https://openfoam.org
    \\  /    A nd           | Version:  9
     \\/     M anipulation  |
\*---------------------------------------------------------------------------*/
FoamFile
{
    format      ascii;
    class       volVectorField;
    location    "3.5";
    object      U;
}
// * * * * * * * * * * * * * * * * * * * * * * * * * * * * * * * * * * * * * //

dimensions      [0 1 -1 0 0 0 0];

internalField   nonuniform List<vector> 
10000
(
(-8.60658e-06 8.60227e-06 0)
(3.18618e-05 -2.26032e-05 0)
(0.000162435 -5.08589e-05 0)
(0.000344045 -6.6644e-05 0)
(0.000551115 -7.24348e-05 0)
(0.000762477 -7.12888e-05 0)
(0.000962074 -6.56169e-05 0)
(0.00113893 -5.72389e-05 0)
(0.00128619 -4.74747e-05 0)
(0.0014001 -3.72575e-05 0)
(0.0014792 -2.72234e-05 0)
(0.00152364 -1.77699e-05 0)
(0.00153455 -9.10444e-06 0)
(0.00151352 -1.24876e-06 0)
(0.00146217 5.88389e-06 0)
(0.00138179 1.24751e-05 0)
(0.00127317 1.87649e-05 0)
(0.00113641 2.50186e-05 0)
(0.000970873 3.14999e-05 0)
(0.000775266 3.84501e-05 0)
(0.000547678 4.60717e-05 0)
(0.000285734 5.45222e-05 0)
(-1.32509e-05 6.39093e-05 0)
(-0.000352121 7.42938e-05 0)
(-0.000733722 8.56941e-05 0)
(-0.00116076 9.80913e-05 0)
(-0.00163566 0.000111433 0)
(-0.00216046 0.000125636 0)
(-0.00273672 0.000140589 0)
(-0.00336536 0.000156148 0)
(-0.0040466 0.000172139 0)
(-0.00477987 0.000188354 0)
(-0.00556368 0.000204549 0)
(-0.00639553 0.000220445 0)
(-0.00727188 0.00023573 0)
(-0.00818804 0.000250057 0)
(-0.00913814 0.000263054 0)
(-0.0101151 0.000274322 0)
(-0.0111107 0.000283451 0)
(-0.0121154 0.000290019 0)
(-0.0131187 0.000293607 0)
(-0.0141091 0.000293811 0)
(-0.015074 0.000290247 0)
(-0.0160002 0.00028257 0)
(-0.0168739 0.000270483 0)
(-0.0176811 0.000253753 0)
(-0.0184073 0.000232221 0)
(-0.0190385 0.000205819 0)
(-0.0195609 0.000174596 0)
(-0.0199617 0.000138767 0)
(-0.020229 9.86764e-05 0)
(-0.0203528 5.46522e-05 0)
(-0.0203232 7.23454e-06 0)
(-0.0201331 -4.33711e-05 0)
(-0.0197788 -9.59627e-05 0)
(-0.0192582 -0.00014954 0)
(-0.0185722 -0.000203086 0)
(-0.0177245 -0.000255485 0)
(-0.0167224 -0.000305553 0)
(-0.0155761 -0.000352076 0)
(-0.0142991 -0.000393854 0)
(-0.0129078 -0.000429742 0)
(-0.0114217 -0.000458704 0)
(-0.00986235 -0.000479857 0)
(-0.00825366 -0.000492521 0)
(-0.00662075 -0.000496255 0)
(-0.00498961 -0.000490894 0)
(-0.00338627 -0.000476568 0)
(-0.00183609 -0.000453705 0)
(-0.000362918 -0.00042305 0)
(0.00101133 -0.000385639 0)
(0.00226766 -0.000342527 0)
(0.00339057 -0.000295207 0)
(0.00436814 -0.000245143 0)
(0.00519253 -0.000193856 0)
(0.00586003 -0.000142804 0)
(0.00637092 -9.3351e-05 0)
(0.00672927 -4.67004e-05 0)
(0.00694248 -3.841e-06 0)
(0.00702081 3.44763e-05 0)
(0.00697677 6.77484e-05 0)
(0.00682445 9.57286e-05 0)
(0.00657886 0.0001184 0)
(0.00625533 0.000135945 0)
(0.00586889 0.000148723 0)
(0.00543385 0.000157225 0)
(0.00496333 0.000162033 0)
(0.00446905 0.000163773 0)
(0.00396117 0.000163069 0)
(0.00344835 0.000160479 0)
(0.00293795 0.00015643 0)
(0.00243649 0.000151129 0)
(0.00195034 0.000144445 0)
(0.00148669 0.000135774 0)
(0.00105491 0.000123865 0)
(0.000668004 0.000106699 0)
(0.000343805 8.16504e-05 0)
(0.00010413 4.64304e-05 0)
(-2.6305e-05 2.60394e-06 0)
(-3.04714e-05 -3.07264e-05 0)
(2.2414e-05 -3.15762e-05 0)
(0.000176107 -0.000176175 0)
(0.000501072 -0.000294823 0)
(0.000922298 -0.000364547 0)
(0.00138925 -0.000390749 0)
(0.00186058 -0.000382925 0)
(0.00230177 -0.000350303 0)
(0.00268684 -0.000300881 0)
(0.00299786 -0.000241131 0)
(0.00322354 -0.000176046 0)
(0.00335782 -0.000109281 0)
(0.0033984 -4.32894e-05 0)
(0.00334556 2.05411e-05 0)
(0.00320088 8.16795e-05 0)
(0.00296627 0.000140338 0)
(0.00264322 0.000197264 0)
(0.00223223 0.000253556 0)
(0.00173247 0.000310486 0)
(0.00114166 0.000369343 0)
(0.00045611 0.00043131 0)
(-0.000329048 0.00049736 0)
(-0.00121956 0.000568202 0)
(-0.00222167 0.00064425 0)
(-0.00334173 0.00072562 0)
(-0.00458575 0.000812144 0)
(-0.00595909 0.000903388 0)
(-0.00746601 0.000998677 0)
(-0.0091094 0.00109711 0)
(-0.0108905 0.00119758 0)
(-0.0128084 0.00129876 0)
(-0.0148602 0.00139917 0)
(-0.0170405 0.00149709 0)
(-0.019341 0.00159067 0)
(-0.021751 0.0016779 0)
(-0.0242565 0.00175663 0)
(-0.0268409 0.00182463 0)
(-0.0294844 0.00187963 0)
(-0.0321646 0.00191935 0)
(-0.0348563 0.00194155 0)
(-0.037532 0.00194412 0)
(-0.0401619 0.00192511 0)
(-0.0427145 0.00188277 0)
(-0.0451572 0.00181566 0)
(-0.0474563 0.00172268 0)
(-0.049578 0.00160308 0)
(-0.0514888 0.0014566 0)
(-0.0531559 0.00128343 0)
(-0.0545482 0.00108426 0)
(-0.0556365 0.000860378 0)
(-0.0563945 0.00061371 0)
(-0.0567997 0.000346518 0)
(-0.0568334 6.10793e-05 0)
(-0.0564801 -0.000236854 0)
(-0.0557293 -0.000544876 0)
(-0.0545775 -0.00085817 0)
(-0.0530265 -0.00117154 0)
(-0.0510841 -0.00147955 0)
(-0.0487643 -0.0017765 0)
(-0.0460876 -0.00205656 0)
(-0.0430808 -0.00231393 0)
(-0.0397771 -0.00254296 0)
(-0.0362153 -0.00273837 0)
(-0.0324397 -0.00289542 0)
(-0.0284993 -0.0030101 0)
(-0.0244467 -0.00307933 0)
(-0.0203373 -0.0031011 0)
(-0.0162282 -0.00307462 0)
(-0.0121767 -0.00300039 0)
(-0.00823882 -0.00288027 0)
(-0.00446831 -0.00271749 0)
(-0.000914909 -0.00251655 0)
(0.00237673 -0.00228285 0)
(0.00536847 -0.00202285 0)
(0.00802954 -0.00174363 0)
(0.0103372 -0.00145281 0)
(0.0122773 -0.00115777 0)
(0.0138442 -0.00086574 0)
(0.0150408 -0.000583436 0)
(0.0158777 -0.000316743 0)
(0.0163727 -7.05503e-05 0)
(0.0165497 0.000151372 0)
(0.0164373 0.000346452 0)
(0.0160674 0.000513357 0)
(0.0154742 0.000651807 0)
(0.0146925 0.000762568 0)
(0.0137569 0.00084725 0)
(0.0127001 0.000908099 0)
(0.0115531 0.000947755 0)
(0.0103437 0.000968965 0)
(0.00909744 0.000974257 0)
(0.00783702 0.00096556 0)
(0.00658375 0.000943777 0)
(0.00535859 0.000908309 0)
(0.00418399 0.000856593 0)
(0.0030859 0.000783753 0)
(0.00209581 0.000682716 0)
(0.00125121 0.000545624 0)
(0.000592419 0.000367711 0)
(0.00016146 0.000157614 0)
(4.19586e-06 -2.60588e-05 0)
(5.08904e-05 -0.000161932 0)
(0.0002961 -0.000501336 0)
(0.000760243 -0.000757462 0)
(0.00133617 -0.000907518 0)
(0.00195721 -0.000960323 0)
(0.00257121 -0.000933062 0)
(0.00313322 -0.000844428 0)
(0.00360795 -0.000711863 0)
(0.00396976 -0.000550306 0)
(0.00420136 -0.000371796 0)
(0.00429214 -0.000185453 0)
(0.00423656 2.38132e-06 0)
(0.00403252 0.000187905 0)
(0.00367982 0.000369461 0)
(0.00317898 0.00054722 0)
(0.00253008 0.00072271 0)
(0.0017321 0.000898358 0)
(0.000782445 0.00107705 0)
(-0.000323207 0.00126173 0)
(-0.00159078 0.00145508 0)
(-0.00302749 0.00165922 0)
(-0.00464139 0.00187559 0)
(-0.00644077 0.00210484 0)
(-0.00843358 0.00234679 0)
(-0.0106268 0.00260047 0)
(-0.0130257 0.00286418 0)
(-0.0156338 0.00313549 0)
(-0.0184514 0.00341135 0)
(-0.0214763 0.00368813 0)
(-0.0247025 0.00396164 0)
(-0.0281203 0.00422723 0)
(-0.0317158 0.00447979 0)
(-0.035471 0.00471387 0)
(-0.0393637 0.00492375 0)
(-0.0433672 0.00510354 0)
(-0.0474508 0.00524732 0)
(-0.0515797 0.00534926 0)
(-0.0557159 0.00540377 0)
(-0.0598179 0.00540564 0)
(-0.0638421 0.0053502 0)
(-0.0677425 0.00523345 0)
(-0.0714725 0.00505218 0)
(-0.0749845 0.00480413 0)
(-0.0782316 0.00448801 0)
(-0.0811676 0.00410366 0)
(-0.0837486 0.0036521 0)
(-0.085933 0.00313552 0)
(-0.0876826 0.0025574 0)
(-0.0889632 0.00192247 0)
(-0.0897455 0.00123677 0)
(-0.0900062 0.000507388 0)
(-0.0897249 -0.000258646 0)
(-0.0888888 -0.00104879 0)
(-0.0874937 -0.001854 0)
(-0.0855404 -0.00266323 0)
(-0.0830372 -0.00346431 0)
(-0.0800002 -0.00424445 0)
(-0.0764526 -0.00499057 0)
(-0.0724255 -0.00568948 0)
(-0.067957 -0.00632817 0)
(-0.0630924 -0.00689419 0)
(-0.0578836 -0.00737592 0)
(-0.0523889 -0.00776297 0)
(-0.0466716 -0.00804659 0)
(-0.0407996 -0.00821996 0)
(-0.034844 -0.00827856 0)
(-0.0288782 -0.00822045 0)
(-0.0229762 -0.0080465 0)
(-0.0172111 -0.00776044 0)
(-0.0116539 -0.00736895 0)
(-0.00637116 -0.00688153 0)
(-0.00142426 -0.00631023 0)
(0.00313269 -0.00566915 0)
(0.00725368 -0.00497399 0)
(0.0109025 -0.00424238 0)
(0.0140533 -0.00349161 0)
(0.0166907 -0.00273905 0)
(0.0188103 -0.00200135 0)
(0.0204184 -0.00129364 0)
(0.0215311 -0.000629102 0)
(0.0221736 -1.85403e-05 0)
(0.0223787 0.000529862 0)
(0.0221854 0.0010108 0)
(0.021637 0.00142155 0)
(0.0207796 0.00176204 0)
(0.0196606 0.00203442 0)
(0.0183267 0.00224264 0)
(0.0168233 0.00239186 0)
(0.0151932 0.00248778 0)
(0.0134764 0.00253581 0)
(0.0117105 0.00254017 0)
(0.00993096 0.00250288 0)
(0.00817284 0.00242282 0)
(0.00647243 0.00229489 0)
(0.00486929 0.00210968 0)
(0.00340817 0.00185444 0)
(0.00213865 0.00151643 0)
(0.00111091 0.00109022 0)
(0.000383138 0.000592961 0)
(5.13289e-05 0.000110001 0)
(6.76775e-05 -0.000344882 0)
(0.000369964 -0.000925727 0)
(0.000918586 -0.00133515 0)
(0.00157783 -0.00156473 0)
(0.00226822 -0.00163234 0)
(0.00293053 -0.00156511 0)
(0.00351374 -0.00139233 0)
(0.00397702 -0.00114183 0)
(0.00428988 -0.000837977 0)
(0.00443065 -0.000500835 0)
(0.00438495 -0.000145878 0)
(0.00414393 0.00021592 0)
(0.00370257 0.000577762 0)
(0.00305807 0.000936565 0)
(0.00220846 0.00129228 0)
(0.00115148 0.00164719 0)
(-0.000116213 0.00200511 0)
(-0.00159951 0.00237061 0)
(-0.00330491 0.00274835 0)
(-0.00524033 0.00314242 0)
(-0.00741467 0.00355595 0)
(-0.00983716 0.00399073 0)
(-0.0125166 0.00444707 0)
(-0.0154606 0.00492376 0)
(-0.0186747 0.00541807 0)
(-0.0221617 0.00592587 0)
(-0.025921 0.00644171 0)
(-0.0299478 0.00695895 0)
(-0.0342327 0.0074699 0)
(-0.0387614 0.00796595 0)
(-0.0435142 0.00843768 0)
(-0.0484662 0.0088751 0)
(-0.0535867 0.00926775 0)
(-0.05884 0.00960498 0)
(-0.0641854 0.00987619 0)
(-0.0695775 0.0100711 0)
(-0.0749673 0.0101798 0)
(-0.0803023 0.0101935 0)
(-0.0855277 0.0101042 0)
(-0.0905874 0.00990551 0)
(-0.0954243 0.00959221 0)
(-0.0999822 0.00916095 0)
(-0.104206 0.00861013 0)
(-0.108042 0.00794003 0)
(-0.11144 0.00715284 0)
(-0.114354 0.00625276 0)
(-0.116742 0.00524589 0)
(-0.118566 0.00414027 0)
(-0.119795 0.00294572 0)
(-0.120403 0.0016736 0)
(-0.120371 0.00033748 0)
(-0.119684 -0.00104452 0)
(-0.118334 -0.00245974 0)
(-0.116323 -0.00388969 0)
(-0.11366 -0.00531534 0)
(-0.110358 -0.00671688 0)
(-0.10644 -0.00807389 0)
(-0.101934 -0.00936557 0)
(-0.0968779 -0.0105712 0)
(-0.0913151 -0.0116703 0)
(-0.0852965 -0.0126435 0)
(-0.0788795 -0.0134726 0)
(-0.0721276 -0.0141413 0)
(-0.06511 -0.0146358 0)
(-0.0579005 -0.0149451 0)
(-0.050577 -0.0150617 0)
(-0.0432197 -0.014982 0)
(-0.0359105 -0.0147067 0)
(-0.0287313 -0.0142407 0)
(-0.0217624 -0.0135937 0)
(-0.015081 -0.0127799 0)
(-0.00875922 -0.0118174 0)
(-0.00286269 -0.0107283 0)
(0.00255013 -0.00953768 0)
(0.00743081 -0.00827279 0)
(0.011742 -0.00696236 0)
(0.0154568 -0.00563528 0)
(0.0185604 -0.00432002 0)
(0.0210501 -0.00304298 0)
(0.0229348 -0.00182803 0)
(0.0242346 -0.000695558 0)
(0.0249794 0.000338046 0)
(0.0252076 0.00126067 0)
(0.0249646 0.002065 0)
(0.0243009 0.00274793 0)
(0.0232705 0.00331036 0)
(0.0219286 0.0037565 0)
(0.0203307 0.00409304 0)
(0.0185308 0.00432799 0)
(0.0165812 0.00446933 0)
(0.014532 0.0045235 0)
(0.0124315 0.00449384 0)
(0.0103274 0.00437902 0)
(0.00826799 0.00417195 0)
(0.00630434 0.00385953 0)
(0.00449172 0.0034241 0)
(0.00288947 0.00284818 0)
(0.00155733 0.00212348 0)
(0.000573769 0.00126735 0)
(9.06917e-05 0.000363877 0)
(7.52707e-05 -0.000556488 0)
(0.000402601 -0.00140091 0)
(0.000982689 -0.00196279 0)
(0.00165983 -0.00225757 0)
(0.00234482 -0.00231782 0)
(0.00297342 -0.00218327 0)
(0.00349097 -0.00189493 0)
(0.00385356 -0.00149137 0)
(0.00402778 -0.00100657 0)
(0.00398905 -0.000468732 0)
(0.00372001 0.000100164 0)
(0.00320879 0.000684376 0)
(0.00244737 0.00127402 0)
(0.00142991 0.00186443 0)
(0.000151499 0.00245526 0)
(-0.00139302 0.00304943 0)
(-0.00320969 0.00365198 0)
(-0.00530585 0.004269 0)
(-0.00769003 0.00490648 0)
(-0.0103716 0.00556951 0)
(-0.0133603 0.00626153 0)
(-0.0166651 0.00698391 0)
(-0.0202935 0.00773564 0)
(-0.0242507 0.00851333 0)
(-0.0285383 0.0093112 0)
(-0.0331538 0.0101213 0)
(-0.0380896 0.0109336 0)
(-0.0433325 0.0117363 0)
(-0.0488632 0.0125163 0)
(-0.0546562 0.013259 0)
(-0.0606794 0.013949 0)
(-0.0668945 0.0145703 0)
(-0.0732572 0.0151068 0)
(-0.0797178 0.0155425 0)
(-0.0862218 0.0158618 0)
(-0.092711 0.0160506 0)
(-0.0991242 0.0160958 0)
(-0.105398 0.0159862 0)
(-0.11147 0.0157128 0)
(-0.117276 0.0152689 0)
(-0.122754 0.01465 0)
(-0.127844 0.0138548 0)
(-0.132492 0.0128843 0)
(-0.136644 0.0117422 0)
(-0.140253 0.0104351 0)
(-0.143277 0.00897187 0)
(-0.145677 0.00736395 0)
(-0.147424 0.00562511 0)
(-0.148491 0.00377117 0)
(-0.148859 0.00181981 0)
(-0.148512 -0.000208828 0)
(-0.147444 -0.00229023 0)
(-0.145657 -0.00440513 0)
(-0.143153 -0.00652802 0)
(-0.139944 -0.00863287 0)
(-0.136048 -0.0106929 0)
(-0.131489 -0.0126806 0)
(-0.126299 -0.0145682 0)
(-0.120516 -0.016328 0)
(-0.114182 -0.0179327 0)
(-0.107351 -0.0193563 0)
(-0.100077 -0.0205742 0)
(-0.0924265 -0.0215643 0)
(-0.084467 -0.0223074 0)
(-0.0762735 -0.022788 0)
(-0.067925 -0.0229951 0)
(-0.059504 -0.0229225 0)
(-0.0510956 -0.0225697 0)
(-0.0427858 -0.0219421 0)
(-0.0346606 -0.021051 0)
(-0.026804 -0.019914 0)
(-0.0192961 -0.0185545 0)
(-0.012212 -0.0170013 0)
(-0.00561992 -0.0152882 0)
(0.000420675 -0.0134515 0)
(0.00586061 -0.0115312 0)
(0.0106612 -0.00956778 0)
(0.0147962 -0.00760218 0)
(0.0182518 -0.00567302 0)
(0.0210268 -0.00381621 0)
(0.0231323 -0.00206354 0)
(0.0245908 -0.000441687 0)
(0.0254358 0.00102836 0)
(0.0257096 0.00233203 0)
(0.0254619 0.00346091 0)
(0.0247483 0.00441229 0)
(0.0236279 0.00518859 0)
(0.0221621 0.00579623 0)
(0.0204128 0.0062441 0)
(0.0184415 0.0065417 0)
(0.0163083 0.00669712 0)
(0.0140725 0.00671481 0)
(0.0117926 0.00659356 0)
(0.00952773 0.00632495 0)
(0.00733874 0.00589296 0)
(0.00529054 0.00527562 0)
(0.00345201 0.00444977 0)
(0.00189368 0.00339998 0)
(0.000715162 0.002133 0)
(0.000118453 0.000708969 0)
(7.64088e-05 -0.00077665 0)
(0.000401538 -0.00188571 0)
(0.000964392 -0.00258646 0)
(0.00159927 -0.0029229 0)
(0.00221095 -0.00294639 0)
(0.00273199 -0.00271168 0)
(0.0031059 -0.00227255 0)
(0.00328738 -0.00167862 0)
(0.00324151 -0.000973362 0)
(0.00294189 -0.00019288 0)
(0.0023689 0.000634613 0)
(0.00150805 0.00148882 0)
(0.000348406 0.0023569 0)
(-0.00111893 0.00323268 0)
(-0.00290203 0.00411545 0)
(-0.00500903 0.00500863 0)
(-0.00744871 0.0059182 0)
(-0.0102306 0.00685125 0)
(-0.0133647 0.0078145 0)
(-0.0168611 0.00881317 0)
(-0.0207288 0.00985001 0)
(-0.0249751 0.0109247 0)
(-0.0296041 0.0120337 0)
(-0.0346161 0.0131697 0)
(-0.0400063 0.0143225 0)
(-0.0457639 0.0154786 0)
(-0.0518716 0.016622 0)
(-0.0583052 0.0177342 0)
(-0.065033 0.0187953 0)
(-0.0720165 0.0197837 0)
(-0.0792098 0.0206775 0)
(-0.0865609 0.0214542 0)
(-0.0940122 0.0220921 0)
(-0.101501 0.0225704 0)
(-0.108963 0.0228698 0)
(-0.116329 0.0229735 0)
(-0.123531 0.0228669 0)
(-0.1305 0.0225387 0)
(-0.13717 0.0219808 0)
(-0.143476 0.0211884 0)
(-0.149359 0.0201603 0)
(-0.154762 0.0188988 0)
(-0.159633 0.0174096 0)
(-0.163926 0.0157013 0)
(-0.167601 0.0137859 0)
(-0.170623 0.0116779 0)
(-0.172961 0.00939459 0)
(-0.174592 0.00695548 0)
(-0.175497 0.00438242 0)
(-0.175663 0.00169934 0)
(-0.17508 -0.00106805 0)
(-0.173745 -0.00389386 0)
(-0.171662 -0.00674765 0)
(-0.168836 -0.00959921 0)
(-0.165279 -0.012417 0)
(-0.161009 -0.0151684 0)
(-0.156049 -0.0178199 0)
(-0.150427 -0.0203374 0)
(-0.144178 -0.0226869 0)
(-0.137343 -0.0248348 0)
(-0.129969 -0.0267486 0)
(-0.12211 -0.0283975 0)
(-0.113825 -0.0297532 0)
(-0.105182 -0.0307907 0)
(-0.0962517 -0.0314895 0)
(-0.0871124 -0.0318339 0)
(-0.0778463 -0.0318143 0)
(-0.0685397 -0.0314276 0)
(-0.0592811 -0.0306782 0)
(-0.0501605 -0.0295779 0)
(-0.041267 -0.0281463 0)
(-0.0326879 -0.0264107 0)
(-0.0245065 -0.0244054 0)
(-0.0168001 -0.0221711 0)
(-0.00963853 -0.0197537 0)
(-0.00308218 -0.017203 0)
(0.00281838 -0.0145711 0)
(0.00802492 -0.0119109 0)
(0.0125124 -0.00927404 0)
(0.0162678 -0.00670923 0)
(0.0192919 -0.00426082 0)
(0.0215977 -0.0019673 0)
(0.0232107 0.000139793 0)
(0.0241673 0.00203631 0)
(0.0245129 0.00370631 0)
(0.0243011 0.00514115 0)
(0.0235915 0.00633921 0)
(0.0224479 0.00730455 0)
(0.0209368 0.00804506 0)
(0.0191259 0.00857036 0)
(0.0170833 0.00888911 0)
(0.0148769 0.00900635 0)
(0.0125743 0.00892087 0)
(0.010244 0.0086232 0)
(0.00795598 0.00809479 0)
(0.00578438 0.00730916 0)
(0.00380779 0.00623597 0)
(0.00210811 0.00484835 0)
(0.000803927 0.00313413 0)
(0.000134965 0.00111651 0)
(7.28998e-05 -0.000988971 0)
(0.000372852 -0.00234251 0)
(0.000874673 -0.00315481 0)
(0.00141212 -0.00350007 0)
(0.001888 -0.00345083 0)
(0.00223378 -0.00307847 0)
(0.00239282 -0.00245022 0)
(0.00231983 -0.00162679 0)
(0.00197946 -0.000660805 0)
(0.00134431 0.000404237 0)
(0.000393108 0.00153441 0)
(-0.000890852 0.00270531 0)
(-0.00252121 0.00390148 0)
(-0.00450981 0.00511535 0)
(-0.00686771 0.00634585 0)
(-0.00960585 0.00759661 0)
(-0.0127353 0.00887409 0)
(-0.0162673 0.0101856 0)
(-0.0202123 0.0115377 0)
(-0.0245797 0.0129345 0)
(-0.0293763 0.0143765 0)
(-0.0346056 0.0158604 0)
(-0.040266 0.017378 0)
(-0.0463505 0.018917 0)
(-0.0528451 0.0204605 0)
(-0.0597284 0.0219882 0)
(-0.0669711 0.0234765 0)
(-0.0745361 0.0248993 0)
(-0.0823781 0.026229 0)
(-0.0904447 0.0274369 0)
(-0.0986769 0.0284943 0)
(-0.10701 0.0293733 0)
(-0.115376 0.0300475 0)
(-0.123703 0.0304929 0)
(-0.131918 0.0306887 0)
(-0.13995 0.0306173 0)
(-0.147727 0.0302654 0)
(-0.155181 0.0296238 0)
(-0.162249 0.0286876 0)
(-0.16887 0.0274564 0)
(-0.174992 0.0259338 0)
(-0.180564 0.0241273 0)
(-0.185545 0.022048 0)
(-0.189896 0.0197105 0)
(-0.193585 0.017132 0)
(-0.196586 0.0143327 0)
(-0.198875 0.0113349 0)
(-0.200435 0.00816327 0)
(-0.201253 0.00484434 0)
(-0.201319 0.00140667 0)
(-0.200626 -0.00211966 0)
(-0.199172 -0.00570387 0)
(-0.19696 -0.00931165 0)
(-0.193995 -0.0129082 0)
(-0.190286 -0.0164571 0)
(-0.185847 -0.0199209 0)
(-0.180696 -0.0232608 0)
(-0.174857 -0.0264374 0)
(-0.168358 -0.0294106 0)
(-0.161235 -0.0321408 0)
(-0.153528 -0.0345891 0)
(-0.145285 -0.036718 0)
(-0.13656 -0.0384928 0)
(-0.127416 -0.0398819 0)
(-0.117921 -0.0408585 0)
(-0.108149 -0.0414014 0)
(-0.0981828 -0.0414961 0)
(-0.0881074 -0.0411357 0)
(-0.0780136 -0.0403219 0)
(-0.0679949 -0.0390654 0)
(-0.0581455 -0.0373864 0)
(-0.0485595 -0.0353145 0)
(-0.039328 -0.0328883 0)
(-0.0305378 -0.0301546 0)
(-0.0222691 -0.0271673 0)
(-0.0145936 -0.0239858 0)
(-0.00757314 -0.0206735 0)
(-0.001258 -0.0172948 0)
(0.00431449 -0.0139144 0)
(0.00912 -0.0105946 0)
(0.013148 -0.0073929 0)
(0.0164015 -0.00436071 0)
(0.0188968 -0.00154171 0)
(0.0206625 0.00102902 0)
(0.0217383 0.00332553 0)
(0.0221733 0.00533157 0)
(0.0220251 0.00703927 0)
(0.0213575 0.00844812 0)
(0.0202389 0.00956309 0)
(0.018741 0.0103921 0)
(0.0169372 0.0109432 0)
(0.0149021 0.0112209 0)
(0.0127111 0.0112236 0)
(0.0104406 0.0109405 0)
(0.00816917 0.0103504 0)
(0.00597967 0.00942183 0)
(0.00396021 0.00811573 0)
(0.00220354 0.00639077 0)
(0.000843068 0.00421112 0)
(0.000141682 0.00155785 0)
(6.57845e-05 -0.00118019 0)
(0.000320681 -0.00273805 0)
(0.000721916 -0.0036207 0)
(0.00111116 -0.0039326 0)
(0.0013934 -0.0037684 0)
(0.00150134 -0.00321677 0)
(0.00137998 -0.00235849 0)
(0.000985299 -0.00126502 0)
(0.000282476 2.51137e-06 0)
(-0.000756238 0.00139395 0)
(-0.00215328 0.00287036 0)
(-0.00392724 0.00440381 0)
(-0.00609415 0.00597659 0)
(-0.00866851 0.00757996 0)
(-0.011664 0.00921233 0)
(-0.0150938 0.0108772 0)
(-0.0189707 0.0125806 0)
(-0.0233062 0.0143293 0)
(-0.0281102 0.0161281 0)
(-0.0333897 0.0179786 0)
(-0.0391473 0.0198774 0)
(-0.0453802 0.0218161 0)
(-0.0520792 0.0237804 0)
(-0.0592272 0.0257507 0)
(-0.0667992 0.0277024 0)
(-0.074761 0.0296066 0)
(-0.0830701 0.0314315 0)
(-0.0916755 0.0331428 0)
(-0.100519 0.0347053 0)
(-0.109534 0.0360836 0)
(-0.118653 0.0372436 0)
(-0.127799 0.0381536 0)
(-0.136899 0.0387846 0)
(-0.145876 0.0391121 0)
(-0.154655 0.0391158 0)
(-0.163166 0.0387807 0)
(-0.17134 0.0380968 0)
(-0.179116 0.0370594 0)
(-0.186436 0.0356689 0)
(-0.193249 0.0339305 0)
(-0.199512 0.0318536 0)
(-0.205183 0.0294515 0)
(-0.21023 0.026741 0)
(-0.214623 0.0237418 0)
(-0.218338 0.0204762 0)
(-0.221356 0.0169685 0)
(-0.223658 0.0132454 0)
(-0.225232 0.00933488 0)
(-0.226066 0.00526696 0)
(-0.226152 0.00107328 0)
(-0.225484 -0.0032129 0)
(-0.224059 -0.00755738 0)
(-0.221876 -0.0119233 0)
(-0.218936 -0.0162723 0)
(-0.215243 -0.0205645 0)
(-0.210807 -0.0247582 0)
(-0.205639 -0.0288101 0)
(-0.199755 -0.0326757 0)
(-0.193178 -0.0363097 0)
(-0.185934 -0.0396662 0)
(-0.178056 -0.0426997 0)
(-0.169585 -0.0453659 0)
(-0.16057 -0.0476227 0)
(-0.151065 -0.0494313 0)
(-0.141134 -0.0507575 0)
(-0.130848 -0.0515731 0)
(-0.120286 -0.0518571 0)
(-0.109534 -0.0515972 0)
(-0.0986832 -0.0507906 0)
(-0.0878311 -0.0494454 0)
(-0.0770766 -0.0475806 0)
(-0.0665206 -0.0452266 0)
(-0.0562627 -0.0424249 0)
(-0.0463996 -0.0392273 0)
(-0.0370223 -0.0356946 0)
(-0.0282145 -0.0318953 0)
(-0.0200501 -0.0279032 0)
(-0.0125915 -0.0237951 0)
(-0.00588847 -0.0196486 0)
(2.28314e-05 -0.0155396 0)
(0.00512068 -0.0115397 0)
(0.00939774 -0.00771406 0)
(0.0128608 -0.00411967 0)
(0.0155301 -0.000803914 0)
(0.0174386 0.00219599 0)
(0.0186306 0.00485401 0)
(0.0191598 0.00715419 0)
(0.0190883 0.0090895 0)
(0.0184847 0.01066 0)
(0.0174227 0.0118704 0)
(0.0159793 0.0127261 0)
(0.0142342 0.0132304 0)
(0.012269 0.0133802 0)
(0.010167 0.0131629 0)
(0.00801444 0.012554 0)
(0.00590229 0.0115165 0)
(0.00392737 0.0100017 0)
(0.00219176 0.00795235 0)
(0.000838758 0.0053077 0)
(0.00014033 0.00200739 0)
(5.55471e-05 -0.00133892 0)
(0.000247445 -0.00304255 0)
(0.000511758 -0.003941 0)
(0.000705739 -0.00416833 0)
(0.000740627 -0.00384115 0)
(0.000552862 -0.00306505 0)
(9.09042e-05 -0.00193382 0)
(-0.000686754 -0.000528781 0)
(-0.00181359 0.00108137 0)
(-0.00331713 0.00284076 0)
(-0.0052206 0.0047063 0)
(-0.00754413 0.00664715 0)
(-0.0103058 0.00864376 0)
(-0.0135222 0.0106863 0)
(-0.0172091 0.0127723 0)
(-0.0213812 0.0149044 0)
(-0.0260516 0.0170877 0)
(-0.0312311 0.0193265 0)
(-0.036927 0.0216226 0)
(-0.0431419 0.023973 0)
(-0.0498721 0.0263686 0)
(-0.0571066 0.028794 0)
(-0.0648259 0.0312268 0)
(-0.0730013 0.0336386 0)
(-0.0815948 0.0359958 0)
(-0.0905589 0.0382604 0)
(-0.0998374 0.040392 0)
(-0.109366 0.0423485 0)
(-0.119076 0.0440881 0)
(-0.12889 0.0455706 0)
(-0.138731 0.0467585 0)
(-0.148521 0.0476185 0)
(-0.158181 0.0481223 0)
(-0.167636 0.0482471 0)
(-0.176816 0.0479765 0)
(-0.185654 0.0472999 0)
(-0.19409 0.046213 0)
(-0.20207 0.0447173 0)
(-0.209548 0.0428192 0)
(-0.216482 0.0405302 0)
(-0.222838 0.0378655 0)
(-0.228584 0.0348438 0)
(-0.233697 0.0314867 0)
(-0.238153 0.0278181 0)
(-0.241935 0.0238639 0)
(-0.245026 0.0196515 0)
(-0.247415 0.0152102 0)
(-0.249088 0.0105704 0)
(-0.250035 0.00576378 0)
(-0.250248 0.000823943 0)
(-0.249719 -0.00421398 0)
(-0.248443 -0.00931385 0)
(-0.246413 -0.0144368 0)
(-0.243627 -0.0195423 0)
(-0.240085 -0.0245874 0)
(-0.235788 -0.0295272 0)
(-0.230741 -0.0343147 0)
(-0.224952 -0.0389007 0)
(-0.218435 -0.0432346 0)
(-0.211208 -0.0472648 0)
(-0.203297 -0.050939 0)
(-0.194734 -0.0542056 0)
(-0.185557 -0.0570147 0)
(-0.175814 -0.0593192 0)
(-0.165563 -0.0610763 0)
(-0.15487 -0.0622495 0)
(-0.14381 -0.0628097 0)
(-0.132466 -0.0627371 0)
(-0.120931 -0.0620227 0)
(-0.109304 -0.0606697 0)
(-0.0976884 -0.0586939 0)
(-0.0861928 -0.0561248 0)
(-0.0749257 -0.0530051 0)
(-0.0639941 -0.0493903 0)
(-0.0535013 -0.0453472 0)
(-0.0435437 -0.0409527 0)
(-0.0342086 -0.0362909 0)
(-0.0255719 -0.0314508 0)
(-0.0176966 -0.0265234 0)
(-0.0106312 -0.0215988 0)
(-0.00440928 -0.0167633 0)
(0.000951307 -0.012097 0)
(0.00544784 -0.00767112 0)
(0.00909231 -0.00354678 0)
(0.0119107 0.00022664 0)
(0.0139418 0.00361143 0)
(0.0152354 0.00658197 0)
(0.015851 0.00912298 0)
(0.0158564 0.011228 0)
(0.0153261 0.0128965 0)
(0.0143394 0.0141303 0)
(0.0129799 0.0149296 0)
(0.011334 0.0152889 0)
(0.0094912 0.015193 0)
(0.00754426 0.0146135 0)
(0.00559137 0.0135074 0)
(0.00373675 0.011816 0)
(0.0020898 0.00946663 0)
(0.000798781 0.00637486 0)
(0.000132681 0.00244375 0)
(4.23259e-05 -0.0014547 0)
(0.00015435 -0.00322844 0)
(0.000247709 -0.00407564 0)
(0.00020249 -0.00415883 0)
(-5.98049e-05 -0.00361543 0)
(-0.000596522 -0.00256678 0)
(-0.00145392 -0.00111828 0)
(-0.00266978 0.000640235 0)
(-0.00427552 0.00263382 0)
(-0.00629801 0.00480204 0)
(-0.00876087 0.00709855 0)
(-0.0116854 0.00949024 0)
(-0.0150913 0.011956 0)
(-0.0189967 0.0144847 0)
(-0.0234185 0.0170727 0)
(-0.0283716 0.019721 0)
(-0.0338684 0.0224319 0)
(-0.039917 0.0252062 0)
(-0.0465202 0.0280405 0)
(-0.0536743 0.0309252 0)
(-0.061367 0.0338437 0)
(-0.0695769 0.0367714 0)
(-0.0782728 0.0396765 0)
(-0.0874131 0.0425207 0)
(-0.0969462 0.0452607 0)
(-0.106812 0.0478497 0)
(-0.11694 0.050239 0)
(-0.127258 0.0523804 0)
(-0.137686 0.0542276 0)
(-0.148142 0.0557376 0)
(-0.158546 0.0568727 0)
(-0.168817 0.0576009 0)
(-0.178882 0.0578973 0)
(-0.188669 0.0577438 0)
(-0.198115 0.0571297 0)
(-0.207163 0.0560508 0)
(-0.215762 0.0545098 0)
(-0.223868 0.0525145 0)
(-0.231445 0.050078 0)
(-0.238462 0.0472172 0)
(-0.24489 0.0439526 0)
(-0.250709 0.0403072 0)
(-0.255898 0.0363063 0)
(-0.260443 0.0319766 0)
(-0.264327 0.0273463 0)
(-0.26754 0.0224449 0)
(-0.270068 0.0173027 0)
(-0.271902 0.0119513 0)
(-0.27303 0.00642337 0)
(-0.273443 0.000753196 0)
(-0.273131 -0.00502342 0)
(-0.272086 -0.0108691 0)
(-0.270299 -0.0167439 0)
(-0.267762 -0.0226057 0)
(-0.26447 -0.0284097 0)
(-0.260417 -0.0341085 0)
(-0.255602 -0.0396518 0)
(-0.250026 -0.0449868 0)
(-0.243692 -0.050058 0)
(-0.23661 -0.0548082 0)
(-0.228796 -0.0591787 0)
(-0.220271 -0.0631104 0)
(-0.211064 -0.0665452 0)
(-0.201215 -0.0694269 0)
(-0.19077 -0.0717032 0)
(-0.17979 -0.0733277 0)
(-0.168342 -0.0742614 0)
(-0.156506 -0.074475 0)
(-0.144374 -0.073951 0)
(-0.132044 -0.0726851 0)
(-0.119626 -0.0706878 0)
(-0.107232 -0.0679849 0)
(-0.0949812 -0.0646184 0)
(-0.0829914 -0.0606458 0)
(-0.0713791 -0.0561387 0)
(-0.0602555 -0.0511814 0)
(-0.0497232 -0.0458682 0)
(-0.0398734 -0.0403002 0)
(-0.0307843 -0.0345826 0)
(-0.0225184 -0.0288206 0)
(-0.0151221 -0.0231164 0)
(-0.00862493 -0.017566 0)
(-0.0030394 -0.0122563 0)
(0.00163815 -0.00726344 0)
(0.00542681 -0.00265066 0)
(0.00835997 0.00153174 0)
(0.0104835 0.0052466 0)
(0.0118543 0.00846925 0)
(0.0125393 0.0111851 0)
(0.0126131 0.013387 0)
(0.0121568 0.0150715 0)
(0.0112569 0.0162347 0)
(0.0100039 0.0168675 0)
(0.00849244 0.016951 0)
(0.00682106 0.0164525 0)
(0.00509398 0.0153227 0)
(0.0034213 0.0134937 0)
(0.00191757 0.0108785 0)
(0.000731731 0.00737276 0)
(0.000120503 0.00285021 0)
(2.60832e-05 -0.00151739 0)
(4.18992e-05 -0.0032695 0)
(-6.80233e-05 -0.00398699 0)
(-0.000393597 -0.00385898 0)
(-0.00099909 -0.00304182 0)
(-0.00193322 -0.00167045 0)
(-0.00323525 0.000140244 0)
(-0.00493814 0.00229383 0)
(-0.00707061 0.0047108 0)
(-0.00965847 0.00732748 0)
(-0.0127254 0.0100952 0)
(-0.0162935 0.0129791 0)
(-0.0203833 0.0159566 0)
(-0.025014 0.0190151 0)
(-0.0302023 0.0221489 0)
(-0.0359621 0.025356 0)
(-0.0423031 0.0286346 0)
(-0.0492291 0.03198 0)
(-0.0567364 0.0353815 0)
(-0.0648126 0.0388212 0)
(-0.0734353 0.0422727 0)
(-0.0825712 0.045701 0)
(-0.0921762 0.0490638 0)
(-0.102196 0.0523124 0)
(-0.112565 0.0553942 0)
(-0.123212 0.0582541 0)
(-0.134058 0.0608376 0)
(-0.14502 0.0630922 0)
(-0.156016 0.0649696 0)
(-0.166961 0.0664275 0)
(-0.177776 0.0674306 0)
(-0.188385 0.0679513 0)
(-0.19872 0.0679704 0)
(-0.208718 0.0674764 0)
(-0.218324 0.0664659 0)
(-0.227491 0.0649419 0)
(-0.236179 0.0629139 0)
(-0.244354 0.0603964 0)
(-0.251988 0.0574078 0)
(-0.259056 0.0539701 0)
(-0.26554 0.0501076 0)
(-0.271423 0.0458467 0)
(-0.276689 0.0412149 0)
(-0.281328 0.0362409 0)
(-0.285327 0.0309542 0)
(-0.288676 0.0253851 0)
(-0.291365 0.0195644 0)
(-0.293384 0.0135239 0)
(-0.294723 0.00729668 0)
(-0.29537 0.000916824 0)
(-0.295316 -0.00557997 0)
(-0.294551 -0.0121558 0)
(-0.293062 -0.0187705 0)
(-0.290839 -0.0253813 0)
(-0.287871 -0.0319424 0)
(-0.284148 -0.0384049 0)
(-0.27966 -0.0447164 0)
(-0.274401 -0.0508209 0)
(-0.268367 -0.0566593 0)
(-0.261556 -0.0621693 0)
(-0.253973 -0.0672865 0)
(-0.245628 -0.0719446 0)
(-0.236539 -0.0760771 0)
(-0.226732 -0.0796183 0)
(-0.216245 -0.0825057 0)
(-0.205123 -0.0846814 0)
(-0.193428 -0.086095 0)
(-0.181233 -0.0867054 0)
(-0.168622 -0.0864839 0)
(-0.155694 -0.0854158 0)
(-0.142558 -0.0835032 0)
(-0.129333 -0.0807654 0)
(-0.116146 -0.0772409 0)
(-0.103126 -0.0729864 0)
(-0.0904031 -0.0680764 0)
(-0.0781059 -0.0626016 0)
(-0.0663541 -0.0566657 0)
(-0.0552576 -0.0503822 0)
(-0.044912 -0.043871 0)
(-0.0353971 -0.0372538 0)
(-0.0267745 -0.0306501 0)
(-0.0190871 -0.0241736 0)
(-0.0123585 -0.0179288 0)
(-0.00659419 -0.0120083 0)
(-0.00178214 -0.00649122 0)
(0.00210554 -0.0014418 0)
(0.00511136 0.0030901 0)
(0.00729041 0.00706877 0)
(0.00870844 0.0104702 0)
(0.00944056 0.0132794 0)
(0.00956955 0.0154864 0)
(0.0091845 0.017082 0)
(0.00837972 0.0180524 0)
(0.00725418 0.0183746 0)
(0.00591144 0.018011 0)
(0.00446062 0.0169062 0)
(0.00301625 0.0149839 0)
(0.00169606 0.0121457 0)
(0.00064642 0.00827171 0)
(0.00010552 0.00321484 0)
(6.74112e-06 -0.0015169 0)
(-8.97407e-05 -0.00314057 0)
(-0.000433786 -0.00363946 0)
(-0.00107802 -0.00322691 0)
(-0.00206877 -0.00207524 0)
(-0.00344371 -0.000329895 0)
(-0.00523351 0.00188763 0)
(-0.00746539 0.00447683 0)
(-0.0101648 0.00735559 0)
(-0.0133562 0.0104585 0)
(-0.017063 0.0137353 0)
(-0.0213075 0.01715 0)
(-0.0261105 0.0206783 0)
(-0.031491 0.0243055 0)
(-0.0374644 0.0280227 0)
(-0.0440421 0.0318236 0)
(-0.0512291 0.0357006 0)
(-0.0590229 0.039641 0)
(-0.0674115 0.0436254 0)
(-0.0763723 0.0476254 0)
(-0.0858711 0.0516033 0)
(-0.095862 0.0555129 0)
(-0.106288 0.059301 0)
(-0.117082 0.062909 0)
(-0.128168 0.066276 0)
(-0.139466 0.069341 0)
(-0.150889 0.0720454 0)
(-0.162351 0.0743357 0)
(-0.173769 0.0761649 0)
(-0.18506 0.0774939 0)
(-0.19615 0.0782926 0)
(-0.20697 0.0785402 0)
(-0.217459 0.0782248 0)
(-0.227566 0.0773427 0)
(-0.237243 0.0758979 0)
(-0.246454 0.0739008 0)
(-0.255168 0.0713671 0)
(-0.263357 0.0683169 0)
(-0.271002 0.0647735 0)