/*--------------------------------*- C++ -*----------------------------------*\
  =========                 |
  \\      /  F ield         | OpenFOAM: The Open Source CFD Toolbox
   \\    /   O peration     | Website:  https://openfoam.org
    \\  /    A nd           | Version:  9
     \\/     M anipulation  |
\*---------------------------------------------------------------------------*/
FoamFile
{
    format      ascii;
    class       volScalarField;
    location    "0.75";
    object      p;
}
// * * * * * * * * * * * * * * * * * * * * * * * * * * * * * * * * * * * * * //

dimensions      [0 2 -2 0 0 0 0];

internalField   nonuniform List<scalar> 
1240
(
-0.00262144
-0.00272673
-0.00282159
-0.00289827
-0.0029532
-0.00372284
-0.00390452
-0.0040727
-0.00422027
-0.00433829
-0.00442639
-0.00120078
-0.00085619
-0.000538257
-0.000254097
-9.17588e-06
0.000192883
0.000350454
0.000463922
0.00053555
0.000569199
0.000569943
0.00054361
0.000496313
0.000434015
0.000362182
0.000285549
0.000208004
0.000132582
6.15466e-05
-3.4691e-06
-6.1294e-05
-0.000111042
-0.000151955
-0.000183377
-0.000204713
-0.000214201
-0.000208622
-0.00508807
-0.0053653
-0.00562464
-0.00585862
-0.00605837
-0.00621689
-0.00632986
-0.00639233
-0.00639814
-0.00634392
-0.00622765
-0.00604893
-0.00580899
-0.00551075
-0.00515883
-0.0047596
-0.0043209
-0.00385164
-0.00336175
-0.00286412
-0.00237073
-0.0018927
-0.00144082
-0.00102549
-0.000655376
-0.000337056
-7.46455e-05
0.000130365
0.000279094
0.000375046
0.000423698
0.000431945
0.000407472
0.000358128
0.000291385
0.000213929
0.000131411
4.836e-05
-3.17667e-05
-0.000106436
-0.000173829
-0.000232618
-0.000281746
-0.000320337
-0.000347657
-0.000361875
-0.000359997
-0.00675
-0.00714249
-0.00751184
-0.00784912
-0.00814433
-0.00838834
-0.00857388
-0.0086942
-0.00874326
-0.00871645
-0.00861081
-0.00842521
-0.00816037
-0.0078189
-0.00740542
-0.0069265
-0.00639057
-0.00580777
-0.00519003
-0.00455132
-0.00390616
-0.00326897
-0.00265437
-0.00207648
-0.00154794
-0.00107921
-0.00067801
-0.00034881
-9.26824e-05
9.26524e-05
0.00021246
0.000274385
0.000287673
0.000262315
0.000208252
0.000134701
4.96994e-05
-4.0134e-05
-0.000129627
-0.00021492
-0.000293226
-0.000362539
-0.000421358
-0.000468493
-0.000502932
-0.000522899
-0.000525571
-0.00873222
-0.00925873
-0.0097557
-0.0102123
-0.0106169
-0.0109588
-0.0112283
-0.0114178
-0.0115197
-0.0115287
-0.011441
-0.0112548
-0.0109701
-0.010589
-0.010116
-0.00955732
-0.0089217
-0.0082199
-0.00746497
-0.00667208
-0.00585785
-0.00503986
-0.00423638
-0.00346566
-0.00274493
-0.00208951
-0.00151185
-0.0010208
-0.000621012
-0.000312722
-9.19485e-05
4.89744e-05
0.00012051
0.000134842
0.000104747
4.25836e-05
-4.05005e-05
-0.000135051
-0.000233492
-0.000330059
-0.000420539
-0.000501924
-0.000572036
-0.000629222
-0.000672115
-0.00069896
-0.00070716
-0.0110461
-0.0117223
-0.012361
-0.0129496
-0.0134745
-0.0139237
-0.0142863
-0.0145524
-0.0147145
-0.0147664
-0.0147036
-0.0145236
-0.0142257
-0.0138115
-0.0132846
-0.012651
-0.0119191
-0.0110994
-0.0102055
-0.00925303
-0.00826015
-0.00724682
-0.00623451
-0.00524551
-0.00430194
-0.00342464
-0.00263193
-0.00193843
-0.00135406
-0.000883323
-0.000525114
-0.000273046
-0.000116286
-4.08096e-05
-3.08666e-05
-7.04436e-05
-0.000144506
-0.000239883
-0.000345729
-0.000453608
-0.000557264
-0.00065222
-0.000735297
-0.000804187
-0.000857052
-0.000891959
-0.000906873
-0.0128225
-0.0136879
-0.0145245
-0.0153142
-0.0160422
-0.0166934
-0.0172549
-0.0177144
-0.0180613
-0.0182881
-0.0183879
-0.0183556
-0.0181882
-0.0178846
-0.0174455
-0.016874
-0.016175
-0.0153561
-0.0144271
-0.0134008
-0.0122928
-0.0111217
-0.00990855
-0.00867727
-0.00745346
-0.00626382
-0.00513489
-0.00409156
-0.00315552
-0.00234369
-0.00166689
-0.00112904
-0.000726984
-0.000451064
-0.000286378
-0.000214529
-0.000215588
-0.000269933
-0.000359711
-0.000469774
-0.000588036
-0.000705383
-0.000815236
-0.00091297
-0.000995305
-0.00105975
-0.0011042
-0.00112714
-0.0155962
-0.0166374
-0.0176391
-0.0185826
-0.0194511
-0.0202288
-0.0209017
-0.0214572
-0.0218843
-0.0221766
-0.0223259
-0.0223273
-0.0221776
-0.0218754
-0.0214209
-0.020816
-0.0200647
-0.0191733
-0.0181501
-0.0170066
-0.015757
-0.0144191
-0.013014
-0.0115662
-0.0101035
-0.00865628
-0.00725607
-0.00593444
-0.00472087
-0.00364077
-0.00271337
-0.00195014
-0.00135374
-0.000918059
-0.000629098
-0.000466863
-0.000407757
-0.000427133
-0.00050154
-0.000610357
-0.000736675
-0.000867463
-0.0009932
-0.0011072
-0.0012048
-0.00128257
-0.00133818
-0.00137076
-0.0148896
-0.0161363
-0.0173926
-0.0186405
-0.0198579
-0.021023
-0.0221164
-0.02312
-0.0240177
-0.0247954
-0.025441
-0.0259447
-0.0262976
-0.026494
-0.0265293
-0.0264002
-0.0261052
-0.025644
-0.0250177
-0.0242292
-0.0232831
-0.0221861
-0.0209472
-0.0195787
-0.0180961
-0.0165189
-0.0148709
-0.0131801
-0.0114786
-0.00980173
-0.00818681
-0.00667099
-0.00528892
-0.00407001
-0.00303576
-0.00219772
-0.0015564
-0.00110151
-0.000813451
-0.000666038
-0.0006297
-0.00067471
-0.000773813
-0.000903914
-0.00104677
-0.00118882
-0.00132051
-0.0014352
-0.00152818
-0.00159675
-0.00164077
-0.017583
-0.0190321
-0.0204827
-0.0219132
-0.0232999
-0.0246198
-0.0258526
-0.0269801
-0.0279861
-0.0288569
-0.0295817
-0.0301515
-0.0305579
-0.0307962
-0.0308626
-0.0307544
-0.0304701
-0.0300093
-0.0293726
-0.0285618
-0.0275799
-0.0264315
-0.0251232
-0.0236643
-0.0220673
-0.0203486
-0.0185293
-0.0166356
-0.0146993
-0.0127572
-0.0108505
-0.00902273
-0.00731748
-0.00577512
-0.00442923
-0.00330324
-0.00240794
-0.00174038
-0.00128457
-0.00101389
-0.000894847
-0.000891304
-0.000968398
-0.00109543
-0.0012474
-0.00140537
-0.00155581
-0.00168938
-0.00179953
-0.00188303
-0.00194058
-0.0204744
-0.0221219
-0.0237594
-0.0253621
-0.0269051
-0.0283653
-0.0297219
-0.0309569
-0.0320551
-0.0330039
-0.0337936
-0.0344164
-0.0348659
-0.0351381
-0.0352302
-0.0351404
-0.0348677
-0.0344119
-0.0337734
-0.032953
-0.0319525
-0.0307746
-0.0294234
-0.0279049
-0.026228
-0.0244049
-0.0224526
-0.0203936
-0.0182567
-0.0160778
-0.0138988
-0.0117676
-0.00973484
-0.0078514
-0.00616377
-0.00470965
-0.00351368
-0.00258457
-0.00191415
-0.00147887
-0.00124355
-0.00116644
-0.0012046
-0.0013184
-0.00147444
-0.00164675
-0.00181646
-0.0019705
-0.00209982
-0.00220039
-0.00227386
-0.0235236
-0.0253589
-0.0271697
-0.028929
-0.0306112
-0.0321928
-0.033654
-0.0349775
-0.0361496
-0.0371591
-0.0379979
-0.0386598
-0.0391403
-0.0394366
-0.0395472
-0.0394712
-0.0392085
-0.0387593
-0.038124
-0.0373032
-0.0362978
-0.0351089
-0.0337384
-0.0321893
-0.0304666
-0.0285782
-0.0265357
-0.0243565
-0.0220644
-0.019691
-0.0172765
-0.0148691
-0.012524
-0.0103002
-0.00825644
-0.00644568
-0.00490923
-0.00367171
-0.00273775
-0.00209168
-0.00170031
-0.0015184
-0.00149536
-0.00158175
-0.00173412
-0.00191757
-0.00210627
-0.00228207
-0.00243256
-0.00255247
-0.0026445
-0.0266859
-0.0286935
-0.0306597
-0.0325562
-0.0343569
-0.0360394
-0.0375845
-0.0389768
-0.040204
-0.0412571
-0.0421296
-0.042817
-0.0433165
-0.043627
-0.0437479
-0.0436798
-0.0434233
-0.0429794
-0.0423489
-0.0415326
-0.0405309
-0.0393442
-0.0379726
-0.0364168
-0.0346783
-0.0327605
-0.03067
-0.0284177
-0.0260208
-0.0235048
-0.0209043
-0.0182648
-0.0156415
-0.0130982
-0.0107032
-0.00852394
-0.00661955
-0.00503394
-0.00378958
-0.00288435
-0.00229229
-0.00196838
-0.00185618
-0.00189634
-0.00203395
-0.00222329
-0.00242955
-0.00262793
-0.00280144
-0.00294304
-0.00305655
-0.0299143
-0.0320755
-0.0341766
-0.0361891
-0.0380873
-0.0398497
-0.041459
-0.0429015
-0.044167
-0.0452483
-0.0461408
-0.0468416
-0.0473498
-0.0476652
-0.0477888
-0.047722
-0.0474667
-0.0470246
-0.0463973
-0.0455861
-0.0445916
-0.0434141
-0.0420527
-0.0405067
-0.038775
-0.0368572
-0.034755
-0.032473
-0.0300213
-0.0274173
-0.0246878
-0.0218717
-0.0190203
-0.0161974
-0.0134767
-0.0109369
-0.00865412
-0.00669324
-0.00509865
-0.00388764
-0.00304784
-0.00253988
-0.00230493
-0.00227495
-0.00238287
-0.00257024
-0.00279116
-0.00301221
-0.00321037
-0.00337605
-0.00351418
-0.0331629
-0.0354575
-0.0376728
-0.0397803
-0.0417557
-0.0435791
-0.0452351
-0.0467122
-0.0480021
-0.0490995
-0.0500013
-0.0507064
-0.0512149
-0.0515279
-0.0516474
-0.0515759
-0.051316
-0.0508707
-0.0502424
-0.0494333
-0.0484449
-0.0472776
-0.0459309
-0.0444033
-0.0426921
-0.0407945
-0.0387081
-0.036432
-0.0339692
-0.0313286
-0.0285278
-0.0255961
-0.022577
-0.0195293
-0.016527
-0.0136551
-0.0110036
-0.00865723
-0.00668471
-0.00512774
-0.00399426
-0.00325741
-0.00286135
-0.00273222
-0.00279119
-0.0029657
-0.0031965
-0.00343936
-0.0036634
-0.00385548
-0.00402152
-0.0363899
-0.0387977
-0.0411071
-0.0432907
-0.0453257
-0.0471944
-0.0488834
-0.0503832
-0.0516875
-0.0527926
-0.0536968
-0.0544
-0.0549034
-0.0552088
-0.0553191
-0.0552375
-0.0549677
-0.0545134
-0.0538783
-0.0530658
-0.0520783
-0.0509175
-0.0495836
-0.0480754
-0.0463899
-0.044523
-0.0424695
-0.0402244
-0.0377845
-0.0351506
-0.0323306
-0.0293429
-0.02622
-0.0230116
-0.019786
-0.0166289
-0.0136385
-0.0109162
-0.00855452
-0.00662266
-0.00515498
-0.00414471
-0.00354604
-0.00328419
-0.00327052
-0.00341783
-0.00365151
-0.00391405
-0.00416462
-0.00438527
-0.00458265
-0.0395586
-0.0420609
-0.0444468
-0.0466905
-0.0487711
-0.0506732
-0.0523855
-0.0539004
-0.0552133
-0.0563216
-0.0572247
-0.0579232
-0.0584187
-0.0587137
-0.0588114
-0.0587158
-0.0584312
-0.0579623
-0.0573139
-0.0564907
-0.0554966
-0.0543348
-0.053007
-0.0515132
-0.0498511
-0.0480165
-0.0460029
-0.0438027
-0.041408
-0.038813
-0.0360162
-0.0330251
-0.0298594
-0.0265565
-0.0231742
-0.0197924
-0.016511
-0.0134424
-0.0106993
-0.00837906
-0.00654659
-0.00522247
-0.0043791
-0.0039476
-0.00383345
-0.00393557
-0.00416253
-0.00444112
-0.00471813
-0.00496922
-0.00520131
-0.0426384
-0.0452188
-0.0476668
-0.049958
-0.0520743
-0.0540021
-0.0557323
-0.0572587
-0.0585781
-0.0596887
-0.0605905
-0.0612842
-0.0617717
-0.0620556
-0.0621393
-0.062027
-0.0617237
-0.061235
-0.0605667
-0.0597249
-0.0587153
-0.0575429
-0.0562114
-0.0547225
-0.0530757
-0.0512678
-0.0492924
-0.0471409
-0.0448025
-0.0422662
-0.0395231
-0.0365702
-0.0334147
-0.0300795
-0.0266083
-0.02307
-0.0195589
-0.0161911
-0.013094
-0.0103899
-0.00817601
-0.00650582
-0.00537828
-0.00473879
-0.00449295
-0.00452834
-0.00473622
-0.00502544
-0.00532783
-0.00561079
-0.00588098
-0.0456045
-0.0482499
-0.0507487
-0.053079
-0.0552247
-0.0571744
-0.0589206
-0.0604585
-0.0617856
-0.0629005
-0.0638032
-0.0644945
-0.0649759
-0.0652497
-0.0653195
-0.0651893
-0.0648646
-0.0643517
-0.0636575
-0.0627894
-0.0617551
-0.0605616
-0.0592148
-0.0577189
-0.0560756
-0.0542836
-0.0523382
-0.0502308
-0.0479496
-0.0454806
-0.0428093
-0.0399239
-0.0368199
-0.0335057
-0.0300091
-0.0263833
-0.0227112
-0.0191049
-0.0156986
-0.0126339
-0.0100385
-0.00800194
-0.00655698
-0.00567233
-0.00526161
-0.00520564
-0.00537924
-0.0056717
-0.00599727
-0.00631301
-0.00662442
-0.0484375
-0.0511377
-0.0536798
-0.056044
-0.0582164
-0.0601875
-0.0619509
-0.0635029
-0.0648412
-0.0659645
-0.0668725
-0.0675653
-0.0680439
-0.0683102
-0.0683672
-0.0682191
-0.0678714
-0.0673309
-0.0666057
-0.0657046
-0.0646369
-0.0634118
-0.0620378
-0.0605217
-0.0588682
-0.0570786
-0.0551504
-0.0530767
-0.0508462
-0.0484435
-0.0458507
-0.0430496
-0.0400258
-0.0367742
-0.0333064
-0.0296578
-0.0258947
-0.0221181
-0.0184608
-0.015076
-0.0121166
-0.00970823
-0.00792229
-0.00675946
-0.00615061
-0.00597642
-0.00609795
-0.00638422
-0.00672949
-0.00707818
-0.00743365
-0.0511226
-0.0538706
-0.0564512
-0.0588471
-0.0610462
-0.0630404
-0.0648245
-0.066395
-0.0677496
-0.0688868
-0.0698053
-0.0705045
-0.0709847
-0.0712468
-0.0712933
-0.0711281
-0.0707568
-0.0701866
-0.0694265
-0.0684865
-0.0673778
-0.0661117
-0.0646994
-0.0631505
-0.0614727
-0.0596706
-0.0577446
-0.0556906
-0.0534988
-0.0511544
-0.0486379
-0.0459269
-0.0429997
-0.0398399
-0.0364434
-0.0328275
-0.0290392
-0.0251625
-0.0213209
-0.0176701
-0.0143811
-0.0116115
-0.00947344
-0.0080066
-0.00716859
-0.00684838
-0.00689793
-0.00716658
-0.0075267
-0.00790771
-0.00830963
-0.0536482
-0.0564393
-0.0590563
-0.0614839
-0.0637116
-0.0657325
-0.0675418
-0.0691362
-0.070513
-0.0716699
-0.0726047
-0.0733157
-0.0738019
-0.0740636
-0.0741024
-0.0739218
-0.0735272
-0.0729263
-0.0721286
-0.0711455
-0.0699897
-0.0686748
-0.0672143
-0.065621
-0.0639058
-0.0620767
-0.0601376
-0.0580876
-0.0559197
-0.0536209
-0.0511718
-0.0485483
-0.0457235
-0.0426722
-0.0393774
-0.0358385
-0.0320823
-0.0281724
-0.024216
-0.0203628
-0.0167924
-0.0136881
-0.011201
-0.00941416
-0.00832067
-0.00782732
-0.00778358
-0.00802138
-0.00839007
-0.00880187
-0.00925204
-0.056005
-0.0588366
-0.0614896
-0.0639504
-0.0662097
-0.0682614
-0.070101
-0.0717249
-0.0731298
-0.0743121
-0.0752687
-0.0759966
-0.0764935
-0.0767586
-0.0767927
-0.0765988
-0.076182
-0.0755502
-0.0747136
-0.0736847
-0.0724776
-0.0711078
-0.0695915
-0.0679442
-0.0661801
-0.0643108
-0.0623441
-0.0602826
-0.0581228
-0.0558544
-0.05346
-0.0509151
-0.0481902
-0.0452541
-0.042079
-0.0386494
-0.0349721
-0.0310884
-0.0270847
-0.0230969
-0.0193037
-0.0159052
-0.0130866
-0.0109755
-0.00960726
-0.00891621
-0.00875755
-0.00894985
-0.00931948
-0.00975955
-0.0102591
-0.0581848
-0.0610559
-0.0637455
-0.0662417
-0.0685361
-0.0706229
-0.0724977
-0.0741563
-0.0755943
-0.0768073
-0.0777905
-0.0785397
-0.0790513
-0.0793234
-0.0793558
-0.0791508
-0.0787134
-0.0780516
-0.077176
-0.0761
-0.0748392
-0.0734106
-0.0718328
-0.0701242
-0.0683022
-0.0663818
-0.0643748
-0.0622875
-0.0601207
-0.0578673
-0.0555126
-0.0530337
-0.0504005
-0.047578
-0.0445311
-0.0412313
-0.0376679
-0.0338599
-0.0298702
-0.0258147
-0.0218626
-0.0182211
-0.015102
-0.012675
-0.011022
-0.0101135
-0.00981954
-0.00995119
-0.0103131
-0.010778
-0.0113272
-0.0601805
-0.0630906
-0.0658181
-0.068352
-0.0706847
-0.0728104
-0.0747245
-0.0764219
-0.0778972
-0.0791447
-0.0801582
-0.0809321
-0.0814616
-0.0817435
-0.0817768
-0.0815631
-0.0811071
-0.0804167
-0.0795029
-0.0783801
-0.077065
-0.0755759
-0.0739334
-0.0721587
-0.0702723
-0.0682927
-0.0662351
-0.0641103
-0.0619228
-0.0596698
-0.05734
-0.054913
-0.0523598
-0.049644
-0.0467254
-0.0435662
-0.0401403
-0.0364463
-0.0325228
-0.0284618
-0.0244155
-0.0205889
-0.017211
-0.0144884
-0.0125508
-0.0114116
-0.010965
-0.0110214
-0.0113667
-0.0118524
-0.0124509
-0.0619848
-0.0649338
-0.0677002
-0.0702738
-0.0726472
-0.0748146
-0.0767707
-0.0785097
-0.080025
-0.0813095
-0.0823558
-0.0831567
-0.0837063
-0.0840002
-0.0840365
-0.0838163
-0.0833439
-0.0826269
-0.0816768
-0.0805087
-0.0791404
-0.0775911
-0.0758831
-0.0740403
-0.0720859
-0.0700416
-0.0679263
-0.0657548
-0.0635358
-0.0612705
-0.0589516
-0.0565623
-0.0540757
-0.0514559
-0.0486601
-0.0456439
-0.0423693
-0.0388168
-0.0350018
-0.0309906
-0.0269133
-0.0229634
-0.0193775
-0.0163912
-0.0141793
-0.0128028
-0.0121889
-0.0121557
-0.0124746
-0.0129763
-0.0136228
)
;

boundaryField
{
    movingWall
    {
        type            zeroGradient;
    }
    fixedWalls
    {
        type            zeroGradient;
    }
    frontAndBack
    {
        type            empty;
    }
    procBoundary6to1
    {
        type            processor;
        value           nonuniform List<scalar> 
26
(
-0.00174625
-0.00179308
-0.00183196
-0.0018558
-0.00186306
-0.0025114
-0.00353535
-0.00480326
-0.00634707
-0.00819105
-0.010349
-0.010349
-0.0119469
-0.0124274
-0.0134742
-0.0145354
-0.0145354
-0.0136721
-0.0161586
-0.0188436
-0.0216935
-0.0246684
-0.0277256
-0.0308217
-0.0339158
-0.0369709
)
;
    }
    procBoundary6to3
    {
        type            processor;
        value           nonuniform List<scalar> 9(-0.0399545 -0.0428394 -0.0456036 -0.0482298 -0.0507034 -0.053013 -0.0551491 -0.0571031 -0.0588674);
    }
    procBoundary6to4
    {
        type            processor;
        value           nonuniform List<scalar> 
30
(
-0.0794403
-0.0776682
-0.0757576
-0.0737342
-0.0716227
-0.0694455
-0.067221
-0.064962
-0.0626741
-0.0603542
-0.0579893
-0.0555557
-0.0530193
-0.050337
-0.0474604
-0.0443426
-0.0409497
-0.0372759
-0.0333619
-0.029312
-0.0253013
-0.0215639
-0.0183546
-0.0158886
-0.014276
-0.0134841
-0.0133481
-0.0136301
-0.0141419
-0.0148343
)
;
    }
    procBoundary6to5
    {
        type            processor;
        value           nonuniform List<scalar> 
21
(
-0.0635895
-0.0665773
-0.0693833
-0.0719977
-0.0744133
-0.0766241
-0.0786238
-0.0804058
-0.0819624
-0.0832851
-0.0843651
-0.0851943
-0.0857652
-0.0860726
-0.0861137
-0.085889
-0.0854024
-0.0846614
-0.0836775
-0.0824669
-0.0810477
)
;
    }
    procBoundary6to7
    {
        type            processor;
        value           nonuniform List<scalar> 
45
(
-0.00298795
-0.00298795
-0.000336409
-9.92713e-05
0.000112909
0.000295504
0.000445452
0.000561203
0.000642733
0.000691466
0.000710105
0.000702351
0.000672589
0.000625531
0.000565883
0.000498064
0.000425985
0.000352935
0.000281541
0.000213798
0.000151164
9.46762e-05
4.50866e-05
2.9975e-06
-3.10268e-05
-5.64726e-05
-7.28704e-05
-7.84891e-05
-6.99473e-05
-0.00448282
-0.00448282
-0.00449924
-0.00447197
-0.00439891
-0.00427888
-0.0041121
-0.00390016
-0.00364608
-0.00335427
-0.00303053
-0.00268195
-0.00231604
-0.00193961
-0.00156399
-0.00156399
)
;
    }
}


// ************************************************************************* //
