/*--------------------------------*- C++ -*----------------------------------*\
  =========                 |
  \\      /  F ield         | OpenFOAM: The Open Source CFD Toolbox
   \\    /   O peration     | Website:  https://openfoam.org
    \\  /    A nd           | Version:  9
     \\/     M anipulation  |
\*---------------------------------------------------------------------------*/
FoamFile
{
    format      ascii;
    class       surfaceScalarField;
    location    "0.75";
    object      phi;
}
// * * * * * * * * * * * * * * * * * * * * * * * * * * * * * * * * * * * * * //

dimensions      [0 3 -1 0 0 0 0];

internalField   nonuniform List<scalar> 
2402
(
-1.91812e-06
1.76721e-07
-1.97894e-06
1.33634e-07
-2.03465e-06
8.51852e-08
-2.08453e-06
3.16806e-08
-2.66024e-08
-2.09986e-06
2.49261e-07
-2.16755e-06
2.01322e-07
-2.22959e-06
1.47223e-07
-2.28523e-06
8.73253e-08
-2.33393e-06
2.20976e-08
-4.80041e-08
-1.8344e-06
-1.07177e-06
-1.71891e-06
-1.08986e-06
-1.59653e-06
-1.09591e-06
-1.46874e-06
-1.08947e-06
-1.33725e-06
-1.07037e-06
-1.20396e-06
-1.03879e-06
-1.07089e-06
-9.953e-07
-9.40129e-07
-9.40851e-07
-8.13701e-07
-8.76765e-07
-6.93511e-07
-8.04689e-07
-5.81231e-07
-7.26526e-07
-4.78228e-07
-6.44335e-07
-3.85508e-07
-5.60229e-07
-3.03687e-07
-4.76266e-07
-2.32991e-07
-3.94357e-07
-1.73283e-07
-3.16192e-07
-1.2411e-07
-2.43203e-07
-8.47653e-08
-1.76556e-07
-5.43514e-08
-1.17171e-07
-3.18411e-08
-6.5774e-08
-1.61305e-08
-2.29606e-08
-6.07782e-09
1.0728e-08
-5.27462e-10
3.47306e-08
1.68028e-09
4.8399e-08
1.71032e-09
5.09459e-08
7.45016e-10
4.14125e-08
1.8655e-08
-2.27826e-06
3.27977e-07
-2.35159e-06
2.74651e-07
-2.4188e-06
2.14433e-07
-2.47922e-06
1.47749e-07
-2.53225e-06
7.5128e-08
-2.57747e-06
-2.78985e-09
-2.61442e-06
-8.53254e-08
-2.64264e-06
-1.71629e-07
-2.66175e-06
-2.60842e-07
-2.6714e-06
-3.52071e-07
-2.67124e-06
-4.44369e-07
-2.66093e-06
-5.36739e-07
-2.64017e-06
-6.28135e-07
-2.60864e-06
-7.17456e-07
-2.56606e-06
-8.03545e-07
-2.51221e-06
-8.85191e-07
-2.44693e-06
-9.6113e-07
-2.37017e-06
-1.03005e-06
-2.28199e-06
-1.09063e-06
-2.18273e-06
-1.14159e-06
-2.07288e-06
-1.18163e-06
-1.95319e-06
-1.20955e-06
-1.82474e-06
-1.22436e-06
-1.68893e-06
-1.22528e-06
-1.54744e-06
-1.21186e-06
-1.40225e-06
-1.18398e-06
-1.25556e-06
-1.14199e-06
-1.10972e-06
-1.08669e-06
-9.67132e-07
-1.01936e-06
-8.30109e-07
-9.41712e-07
-7.00788e-07
-8.55847e-07
-5.80998e-07
-7.64125e-07
-4.72175e-07
-6.69052e-07
-3.75305e-07
-5.73136e-07
-2.909e-07
-4.78762e-07
-2.19016e-07
-3.88076e-07
-1.59301e-07
-3.02919e-07
-1.11058e-07
-2.24798e-07
-7.33344e-08
-1.54895e-07
-4.49898e-08
-9.41185e-08
-2.47737e-08
-4.31767e-08
-1.13771e-08
-2.66865e-09
-3.4698e-09
2.68233e-08
2.80938e-10
4.46482e-08
1.20972e-09
5.00171e-08
6.58586e-10
4.19637e-08
1.93136e-08
-2.44727e-06
4.11219e-07
-2.52461e-06
3.51992e-07
-2.59541e-06
2.85228e-07
-2.65909e-06
2.11434e-07
-2.7152e-06
1.31233e-07
-2.76331e-06
4.53267e-08
-2.80312e-06
-4.55159e-08
-2.83432e-06
-1.40435e-07
-2.85659e-06
-2.38571e-07
-2.86964e-06
-3.39022e-07
-2.87316e-06
-4.40845e-07
-2.86684e-06
-5.43064e-07
-2.85031e-06
-6.44658e-07
-2.82322e-06
-7.44549e-07
-2.78517e-06
-8.41594e-07
-2.73578e-06
-9.34578e-07
-2.67471e-06
-1.0222e-06
-2.60166e-06
-1.1031e-06
-2.51645e-06
-1.17584e-06
-2.41909e-06
-1.23895e-06
-2.30978e-06
-1.29093e-06
-2.18901e-06
-1.33032e-06
-2.05756e-06
-1.35581e-06
-1.91661e-06
-1.36623e-06
-1.76772e-06
-1.36074e-06
-1.61283e-06
-1.33887e-06
-1.45422e-06
-1.3006e-06
-1.29444e-06
-1.24647e-06
-1.13622e-06
-1.17757e-06
-9.82326e-07
-1.09561e-06
-8.35393e-07
-1.00278e-06
-6.97799e-07
-9.01719e-07
-5.7152e-07
-7.9533e-07
-4.58031e-07
-6.86626e-07
-3.58249e-07
-5.78544e-07
-2.72528e-07
-4.73796e-07
-2.007e-07
-3.74748e-07
-1.42143e-07
-2.83355e-07
-9.58807e-08
-2.01158e-07
-6.06775e-08
-1.29322e-07
-3.51343e-08
-6.87199e-08
-1.7762e-08
-2.00409e-08
-7.03629e-09
1.60976e-08
-1.42696e-09
3.90389e-08
5.92133e-10
4.79981e-08
5.49784e-10
4.2006e-08
1.98634e-08
-2.6009e-06
4.97013e-07
-2.6803e-06
4.31388e-07
-2.75278e-06
3.57703e-07
-2.8179e-06
2.76558e-07
-2.87534e-06
1.88675e-07
-2.92485e-06
9.48356e-08
-2.9662e-06
-4.16253e-09
-2.99925e-06
-1.07387e-07
-3.02379e-06
-2.14028e-07
-3.03964e-06
-3.23181e-07
-3.04654e-06
-4.33942e-07
-3.04422e-06
-5.45387e-07
-3.03232e-06
-6.56556e-07
-3.01043e-06
-7.66433e-07
-2.97809e-06
-8.73938e-07
-2.93477e-06
-9.77899e-07
-2.87993e-06
-1.07704e-06
-2.81305e-06
-1.16999e-06
-2.73365e-06
-1.25524e-06
-2.6414e-06
-1.3312e-06
-2.53613e-06
-1.39619e-06
-2.41794e-06
-1.44852e-06
-2.28725e-06
-1.4865e-06
-2.14488e-06
-1.50859e-06
-1.99212e-06
-1.51351e-06
-1.83072e-06
-1.50027e-06
-1.66292e-06
-1.46841e-06
-1.49135e-06
-1.41803e-06
-1.319e-06
-1.34992e-06
-1.14902e-06
-1.26558e-06
-9.84602e-07
-1.1672e-06
-8.28719e-07
-1.0576e-06
-6.83999e-07
-9.40051e-07
-5.52537e-07
-8.18088e-07
-4.358e-07
-6.95281e-07
-3.34576e-07
-5.7502e-07
-2.48996e-07
-4.60328e-07
-1.78601e-07
-3.53749e-07
-1.22453e-07
-2.57307e-07
-7.92507e-08
-1.72524e-07
-4.74561e-08
-1.00515e-07
-2.53922e-08
-4.21047e-08
-1.1322e-08
2.02733e-09
-3.49425e-09
3.12112e-08
-1.64547e-10
4.46683e-08
4.14259e-10
4.14272e-08
2.02776e-08
-2.73359e-06
5.8315e-07
-2.81287e-06
5.10676e-07
-2.88494e-06
4.29766e-07
-2.94951e-06
3.4113e-07
-3.00643e-06
2.45596e-07
-3.05561e-06
1.44015e-07
-3.09702e-06
3.72451e-08
-3.1306e-06
-7.38094e-08
-3.15633e-06
-1.88298e-07
-3.17412e-06
-3.05385e-07
-3.18384e-06
-4.24223e-07
-3.18526e-06
-5.43969e-07
-3.17806e-06
-6.63754e-07
-3.16182e-06
-7.82669e-07
-3.13603e-06
-8.99735e-07
-3.10005e-06
-1.01388e-06
-3.05318e-06
-1.12391e-06
-2.99468e-06
-1.22849e-06
-2.92379e-06
-1.32613e-06
-2.83982e-06
-1.41518e-06
-2.74218e-06
-1.49383e-06
-2.63054e-06
-1.56016e-06
-2.50482e-06
-1.61221e-06
-2.3654e-06
-1.64802e-06
-2.21311e-06
-1.66579e-06
-2.04936e-06
-1.66402e-06
-1.87615e-06
-1.64162e-06
-1.69606e-06
-1.59813e-06
-1.51217e-06
-1.53381e-06
-1.32796e-06
-1.44979e-06
-1.14709e-06
-1.34807e-06
-9.73188e-07
-1.2315e-06
-8.0961e-07
-1.10363e-06
-6.59211e-07
-9.68487e-07
-5.24163e-07
-8.30329e-07
-4.05857e-07
-6.93326e-07
-3.04875e-07
-5.61309e-07
-2.21047e-07
-4.37578e-07
-1.53558e-07
-3.24795e-07
-1.01102e-07
-2.24981e-07
-6.20221e-08
-1.39594e-07
-3.44572e-08
-6.96696e-08
-1.6442e-08
-1.59879e-08
-5.98039e-09
2.07496e-08
-1.07891e-09
3.97669e-08
2.46448e-10
4.01018e-08
2.05241e-08
-2.75636e-06
7.37565e-07
-2.84058e-06
6.67365e-07
-2.91756e-06
5.87656e-07
-2.9871e-06
4.99304e-07
-3.04912e-06
4.03154e-07
-3.10366e-06
3.0013e-07
-3.15079e-06
1.91153e-07
-3.19067e-06
7.71232e-08
-3.22339e-06
-4.10949e-08
-3.24909e-06
-1.62591e-07
-3.26783e-06
-2.86649e-07
-3.27956e-06
-4.12493e-07
-3.28415e-06
-5.39374e-07
-3.28136e-06
-6.66547e-07
-3.27079e-06
-7.93237e-07
-3.25192e-06
-9.1861e-07
-3.22406e-06
-1.04174e-06
-3.18639e-06
-1.16157e-06
-3.138e-06
-1.27688e-06
-3.07787e-06
-1.38626e-06
-3.00498e-06
-1.48807e-06
-2.91834e-06
-1.58047e-06
-2.81712e-06
-1.66139e-06
-2.70072e-06
-1.72861e-06
-2.56892e-06
-1.77982e-06
-2.42199e-06
-1.81272e-06
-2.26081e-06
-1.8252e-06
-2.08695e-06
-1.81549e-06
-1.90269e-06
-1.78239e-06
-1.71103e-06
-1.72547e-06
-1.51559e-06
-1.64523e-06
-1.32042e-06
-1.54325e-06
-1.12974e-06
-1.42218e-06
-9.47685e-07
-1.28568e-06
-7.77975e-07
-1.1382e-06
-6.23657e-07
-9.84647e-07
-4.8691e-07
-8.30073e-07
-3.68957e-07
-6.79262e-07
-2.70081e-07
-5.36455e-07
-1.89723e-07
-4.05152e-07
-1.26653e-07
-2.88051e-07
-7.91474e-08
-1.87099e-07
-4.51735e-08
-1.03643e-07
-2.2532e-08
-3.86294e-08
-8.96061e-09
7.17821e-09
-2.19014e-09
3.29964e-08
3.91905e-11
3.78725e-08
2.05633e-08
-2.8383e-06
8.25056e-07
-2.91841e-06
7.47474e-07
-2.99101e-06
6.60249e-07
-3.05606e-06
5.64358e-07
-3.1137e-06
4.60791e-07
-3.16413e-06
3.50563e-07
-3.20763e-06
2.34658e-07
-3.24453e-06
1.14018e-07
-3.27502e-06
-1.05987e-08
-3.2995e-06
-1.38112e-07
-3.31808e-06
-2.68074e-07
-3.33085e-06
-3.99717e-07
-3.33781e-06
-5.32417e-07
-3.33879e-06
-6.65569e-07
-3.33347e-06
-7.98557e-07
-3.32136e-06
-9.30721e-07
-3.30178e-06
-1.06132e-06
-3.27387e-06
-1.18948e-06
-3.2366e-06
-1.31415e-06
-3.18877e-06
-1.43409e-06
-3.12908e-06
-1.54776e-06
-3.05619e-06
-1.65336e-06
-2.96878e-06
-1.7488e-06
-2.86571e-06
-1.83168e-06
-2.74612e-06
-1.89941e-06
-2.60959e-06
-1.94925e-06
-2.45631e-06
-1.97847e-06
-2.28721e-06
-1.98459e-06
-2.10404e-06
-1.96556e-06
-1.90947e-06
-1.92004e-06
-1.70701e-06
-1.84769e-06
-1.5009e-06
-1.74936e-06
-1.29584e-06
-1.62724e-06
-1.09669e-06
-1.48483e-06
-9.08114e-07
-1.32678e-06
-7.3416e-07
-1.1586e-06
-5.77997e-07
-9.86235e-07
-4.4171e-07
-8.15549e-07
-3.2624e-07
-6.51925e-07
-2.3146e-07
-4.99933e-07
-1.5634e-07
-3.63171e-07
-9.91689e-08
-2.4427e-07
-5.77802e-08
-1.45032e-07
-2.97452e-08
-6.66644e-08
-1.252e-08
-1.00469e-08
-3.53321e-09
2.40096e-08
-2.19422e-10
3.45587e-08
2.03438e-08
-2.62302e-06
1.09509e-06
-2.71973e-06
1.04446e-06
-2.80918e-06
9.8151e-07
-2.89103e-06
9.06908e-07
-2.96515e-06
8.21588e-07
-3.03158e-06
7.26681e-07
-3.09051e-06
6.23286e-07
-3.14225e-06
5.12527e-07
-3.18718e-06
3.95501e-07
-3.22577e-06
2.7324e-07
-3.25844e-06
1.46687e-07
-3.28568e-06
1.6641e-08
-3.30779e-06
-1.15998e-07
-3.32515e-06
-2.50714e-07
-3.33796e-06
-3.86907e-07
-3.34631e-06
-5.24067e-07
-3.35015e-06
-6.61729e-07
-3.34926e-06
-7.99446e-07
-3.34324e-06
-9.36745e-07
-3.33147e-06
-1.07309e-06
-3.31312e-06
-1.20783e-06
-3.28712e-06
-1.34015e-06
-3.2522e-06
-1.469e-06
-3.20688e-06
-1.59308e-06
-3.14953e-06
-1.71071e-06
-3.07845e-06
-1.81988e-06
-2.99196e-06
-1.91817e-06
-2.88858e-06
-2.00279e-06
-2.76714e-06
-2.07068e-06
-2.62702e-06
-2.11859e-06
-2.46833e-06
-2.14328e-06
-2.29208e-06
-2.14181e-06
-2.10029e-06
-2.11183e-06
-1.89608e-06
-2.0519e-06
-1.68358e-06
-1.96186e-06
-1.46777e-06
-1.84306e-06
-1.25409e-06
-1.6985e-06
-1.0481e-06
-1.53277e-06
-8.54955e-07
-1.35175e-06
-6.78981e-07
-1.16221e-06
-5.23355e-07
-9.71174e-07
-3.89927e-07
-7.85353e-07
-2.79219e-07
-6.10641e-07
-1.9058e-07
-4.5181e-07
-1.22429e-07
-3.12422e-07
-7.25292e-08
-1.94932e-07
-3.82476e-08
-1.00946e-07
-1.67536e-08
-3.1541e-08
-5.1508e-09
1.24068e-08
-5.37539e-10
2.99455e-08
1.98063e-08
-2.66621e-06
1.19295e-06
-2.75665e-06
1.1349e-06
-2.83925e-06
1.06411e-06
-2.91385e-06
9.81503e-07
-2.98052e-06
8.88256e-07
-3.03949e-06
7.85651e-07
-3.09113e-06
6.74932e-07
-3.13594e-06
5.57332e-07
-3.17445e-06
4.34015e-07
-3.20725e-06
3.0604e-07
-3.23491e-06
1.74347e-07
-3.25801e-06
3.97397e-08
-3.27698e-06
-9.70309e-08
-3.29226e-06
-2.35435e-07
-3.30417e-06
-3.74997e-07
-3.31291e-06
-5.15326e-07
-3.31854e-06
-6.56095e-07
-3.32097e-06
-7.97013e-07
-3.31992e-06
-9.37795e-07
-3.3149e-06
-1.07812e-06
-3.30516e-06
-1.21756e-06
-3.28973e-06
-1.35558e-06
-3.26733e-06
-1.4914e-06
-3.23643e-06
-1.62398e-06
-3.19524e-06
-1.7519e-06
-3.14179e-06
-1.87333e-06
-3.07399e-06
-1.98597e-06
-2.98977e-06
-2.08702e-06
-2.88724e-06
-2.17321e-06
-2.76494e-06
-2.24089e-06
-2.62204e-06
-2.28619e-06
-2.45856e-06
-2.30529e-06
-2.27566e-06
-2.29473e-06
-2.07572e-06
-2.25183e-06
-1.86244e-06
-2.17514e-06
-1.64068e-06
-2.06481e-06
-1.41627e-06
-1.92292e-06
-1.19549e-06
-1.75354e-06
-9.84592e-07
-1.56265e-06
-7.89185e-07
-1.35762e-06
-6.13756e-07
-1.1466e-06
-4.61326e-07
-9.37783e-07
-3.33336e-07
-7.3863e-07
-2.2974e-07
-5.55406e-07
-1.49253e-07
-3.92909e-07
-8.96728e-08
-2.54512e-07
-4.82119e-08
-1.42407e-07
-2.17626e-08
-5.79903e-08
-7.09003e-09
-2.26575e-09
-9.28923e-10
2.37844e-08
1.88774e-08
-2.6842e-06
1.28372e-06
-2.76691e-06
1.21761e-06
-2.84135e-06
1.13855e-06
-2.90759e-06
1.04774e-06
-2.96589e-06
9.46556e-07
-3.01666e-06
8.36418e-07
-3.06043e-06
7.18707e-07
-3.09784e-06
5.94741e-07
-3.12955e-06
4.65724e-07
-3.15623e-06
3.32723e-07
-3.17854e-06
1.96659e-07
-3.19711e-06
5.83046e-08
-3.21245e-06
-8.1686e-08
-3.22506e-06
-2.22823e-07
-3.23533e-06
-3.64727e-07
-3.24355e-06
-5.07107e-07
-3.2499e-06
-6.49754e-07
-3.25439e-06
-7.92519e-07
-3.25691e-06
-9.3528e-07
-3.25711e-06
-1.07791e-06
-3.25444e-06
-1.22023e-06
-3.24806e-06
-1.36196e-06
-3.23684e-06
-1.50263e-06
-3.2193e-06
-1.64151e-06
-3.19366e-06
-1.77754e-06
-3.1578e-06
-1.90918e-06
-3.10938e-06
-2.03439e-06
-3.04588e-06
-2.15052e-06
-2.9648e-06
-2.25429e-06
-2.86385e-06
-2.34183e-06
-2.74123e-06
-2.40881e-06
-2.5959e-06
-2.45062e-06
-2.42787e-06
-2.46275e-06
-2.23851e-06
-2.44119e-06
-2.03068e-06
-2.38297e-06
-1.80878e-06
-2.28671e-06
-1.57858e-06
-2.15311e-06
-1.34686e-06
-1.98527e-06
-1.12079e-06
-1.78872e-06
-9.07286e-07
-1.57112e-06
-7.12312e-07
-1.34158e-06
-5.40319e-07
-1.10978e-06
-3.93966e-07
-8.84984e-07
-2.74089e-07
-6.75283e-07
-1.79921e-07
-4.87078e-07
-1.09447e-07
-3.24985e-07
-5.98074e-08
-1.92046e-07
-2.76508e-08
-9.01468e-08
-9.39873e-09
-2.05179e-08
-1.40644e-09
1.57921e-08
1.74709e-08
-2.6774e-06
1.36623e-06
-2.75144e-06
1.29165e-06
-2.81702e-06
1.20414e-06
-2.87441e-06
1.10513e-06
-2.92403e-06
9.96178e-07
-2.96646e-06
8.78852e-07
-3.00238e-06
7.54629e-07
-3.03252e-06
6.24876e-07
-3.05761e-06
4.9081e-07
-3.07836e-06
3.53482e-07
-3.09548e-06
2.13774e-07
-3.10958e-06
7.24066e-08
-3.12123e-06
-7.00408e-08
-3.13092e-06
-2.13134e-07
-3.13908e-06
-3.56566e-07
-3.14606e-06
-5.00124e-07
-3.15212e-06
-6.43689e-07
-3.15743e-06
-7.87217e-07
-3.16199e-06
-9.30719e-07
-3.16566e-06
-1.07424e-06
-3.1681e-06
-1.21779e-06
-3.1687e-06
-1.36137e-06
-3.16654e-06
-1.50479e-06
-3.16035e-06
-1.6477e-06
-3.14847e-06
-1.78941e-06
-3.12886e-06
-1.9288e-06
-3.09905e-06
-2.0642e-06
-3.05629e-06
-2.19328e-06
-2.99761e-06
-2.31297e-06
-2.92005e-06
-2.41939e-06
-2.82089e-06
-2.50797e-06
-2.69798e-06
-2.57354e-06
-2.5501e-06
-2.61063e-06
-2.37734e-06
-2.61396e-06
-2.18137e-06
-2.57894e-06
-1.9657e-06
-2.50239e-06
-1.73559e-06
-2.38321e-06
-1.49789e-06
-2.22298e-06
-1.2604e-06
-2.0262e-06
-1.03124e-06
-1.80029e-06
-8.17866e-07
-1.55495e-06
-6.264e-07
-1.30124e-06
-4.61014e-07
-1.05037e-06
-3.2375e-07
-8.12547e-07
-2.14637e-07
-5.96191e-07
-1.32052e-07
-4.07571e-07
-7.31896e-08
-2.50909e-07
-3.45158e-08
-1.28821e-07
-1.21268e-08
-4.29069e-08
-1.98384e-09
5.6491e-09
1.54871e-08
-2.64734e-06
1.43983e-06
-2.71233e-06
1.35663e-06
-2.7689e-06
1.26071e-06
-2.8175e-06
1.15373e-06
-2.85872e-06
1.0374e-06
-2.89327e-06
9.13403e-07
-2.92192e-06
7.83275e-07
-2.94544e-06
6.48396e-07
-2.9646e-06
5.09965e-07
-2.9801e-06
3.68987e-07
-2.99261e-06
2.26287e-07
-3.00273e-06
8.25238e-08
-3.01098e-06
-6.17913e-08
-3.01784e-06
-2.06278e-07
-3.02372e-06
-3.50678e-07
-3.02902e-06
-4.94831e-07
-3.03404e-06
-6.3867e-07
-3.03904e-06
-7.82217e-07
-3.04419e-06
-9.25569e-07
-3.04954e-06
-1.06889e-06
-3.05497e-06
-1.21236e-06
-3.06015e-06
-1.35618e-06
-3.06446e-06
-1.50048e-06
-3.06693e-06
-1.64524e-06
-3.06616e-06
-1.79017e-06
-3.06031e-06
-1.93465e-06
-3.04704e-06
-2.07747e-06
-3.02354e-06
-2.21679e-06
-2.9866e-06
-2.34991e-06
-2.93277e-06
-2.47322e-06
-2.85858e-06
-2.58216e-06
-2.76087e-06
-2.67124e-06
-2.63717e-06
-2.73433e-06
-2.48615e-06
-2.76498e-06
-2.30804e-06
-2.75704e-06
-2.10503e-06
-2.7054e-06
-1.88142e-06
-2.60683e-06
-1.64358e-06
-2.46082e-06
-1.39953e-06
-2.27025e-06
-1.15825e-06
-2.04157e-06
-9.28649e-07
-1.78455e-06
-7.18602e-07
-1.51129e-06
-5.34076e-07
-1.2349e-06
-3.78657e-07
-9.67966e-07
-2.53498e-07
-7.2135e-07
-1.57633e-07
-5.03436e-07
-8.8489e-08
-3.20053e-07
-4.24477e-08
-1.74862e-07
-1.53192e-08
-7.00354e-08
-2.67401e-09
-6.99607e-09
1.28131e-08
-2.5963e-06
1.50442e-06
-2.65236e-06
1.4127e-06
-2.7003e-06
1.30865e-06
-2.74072e-06
1.19414e-06
-2.77433e-06
1.07101e-06
-2.80193e-06
9.41005e-07
-2.82433e-06
8.05678e-07
-2.84232e-06
6.66387e-07
-2.85663e-06
5.24274e-07
-2.86792e-06
3.80275e-07
-2.87677e-06
2.35139e-07
-2.8837e-06
8.94553e-08
-2.88917e-06
-5.63247e-08
-2.89358e-06
-2.01866e-07
-2.89732e-06
-3.46937e-07
-2.90076e-06
-4.91397e-07
-2.90423e-06
-6.35196e-07
-2.90807e-06
-7.78374e-07
-2.91258e-06
-9.21066e-07
-2.91797e-06
-1.06349e-06
-2.92436e-06
-1.20596e-06
-2.93172e-06
-1.34883e-06
-2.93975e-06
-1.49245e-06
-2.94784e-06
-1.63714e-06
-2.95499e-06
-1.78303e-06
-2.95968e-06
-1.92995e-06
-2.95986e-06
-2.07729e-06
-2.95289e-06
-2.22376e-06
-2.93555e-06
-2.36725e-06
-2.90415e-06
-2.50462e-06
-2.85471e-06
-2.6316e-06
-2.78324e-06
-2.74271e-06
-2.68613e-06
-2.83144e-06
-2.56063e-06
-2.89048e-06
-2.40539e-06
-2.91228e-06
-2.22098e-06
-2.88982e-06
-2.01026e-06
-2.81754e-06
-1.77861e-06
-2.69247e-06
-1.5337e-06
-2.51516e-06
-1.28489e-06
-2.29038e-06
-1.04227e-06
-2.02716e-06
-8.1546e-07
-1.7381e-06
-6.12384e-07
-1.43797e-06
-4.38503e-07
-1.14185e-06
-2.96458e-07
-8.63394e-07
-1.86258e-07
-6.13636e-07
-1.05798e-07
-4.00512e-07
-5.15201e-08
-2.2914e-07
-1.90164e-08
-1.02539e-07
-3.4893e-09
-2.25232e-08
9.32379e-09
-2.52703e-06
1.56035e-06
-2.57477e-06
1.46044e-06
-2.61489e-06
1.34877e-06
-2.64813e-06
1.22738e-06
-2.67529e-06
1.09818e-06
-2.69722e-06
9.62936e-07
-2.71473e-06
8.23181e-07
-2.72855e-06
6.80206e-07
-2.73934e-06
5.35065e-07
-2.74766e-06
3.88601e-07
-2.754e-06
2.41475e-07
-2.75875e-06
9.42008e-08
-2.76225e-06
-5.28219e-08
-2.76483e-06
-1.99289e-07
-2.76679e-06
-3.44975e-07
-2.76846e-06
-4.89728e-07
-2.77017e-06
-6.33477e-07
-2.77231e-06
-7.76238e-07
-2.77525e-06
-9.18129e-07
-2.77936e-06
-1.05938e-06
-2.78498e-06
-1.20034e-06
-2.79234e-06
-1.34147e-06
-2.80148e-06
-1.48331e-06
-2.8122e-06
-1.62642e-06
-2.82391e-06
-1.77132e-06
-2.83556e-06
-1.9183e-06
-2.84552e-06
-2.06733e-06
-2.85149e-06
-2.21779e-06
-2.85048e-06
-2.36826e-06
-2.83882e-06
-2.51628e-06
-2.81231e-06
-2.65812e-06
-2.76637e-06
-2.78865e-06
-2.69648e-06
-2.90133e-06
-2.59862e-06
-2.98835e-06
-2.46982e-06
-3.04107e-06
-2.30889e-06
-3.05075e-06
-2.11692e-06
-3.00951e-06
-1.89777e-06
-2.91162e-06
-1.65814e-06
-2.75479e-06
-1.40722e-06
-2.5413e-06
-1.15581e-06
-2.27857e-06
-9.15007e-07
-1.97891e-06
-6.94778e-07
-1.6582e-06
-5.02709e-07
-1.33392e-06
-3.43299e-07
-1.0228e-06
-2.17897e-07
-7.39038e-07
-1.25161e-07
-4.93248e-07
-6.17846e-08
-2.92516e-07
-2.32514e-08
-1.41072e-07
-4.44067e-09
-4.13339e-08
4.88312e-09
-2.44249e-06
1.60832e-06
-2.48285e-06
1.50079e-06
-2.51629e-06
1.38222e-06
-2.54365e-06
1.25473e-06
-2.56577e-06
1.1203e-06
-2.5835e-06
9.80661e-07
-2.59758e-06
8.3727e-07
-2.6087e-06
6.91319e-07
-2.61738e-06
5.43747e-07
-2.62406e-06
3.95286e-07
-2.62909e-06
2.465e-07
-2.63272e-06
9.78287e-08
-2.63517e-06
-5.03732e-08
-2.63664e-06
-1.97817e-07
-2.63735e-06
-3.44261e-07
-2.63756e-06
-4.89518e-07
-2.63758e-06
-6.3346e-07
-2.63778e-06
-7.76037e-07
-2.6386e-06
-9.17308e-07
-2.64053e-06
-1.05745e-06
-2.64406e-06
-1.19681e-06
-2.64967e-06
-1.33587e-06
-2.65771e-06
-1.47526e-06
-2.66837e-06
-1.61576e-06
-2.68152e-06
-1.75817e-06
-2.6966e-06
-1.90323e-06
-2.71249e-06
-2.05144e-06
-2.7274e-06
-2.20288e-06
-2.73876e-06
-2.3569e-06
-2.74318e-06
-2.51186e-06
-2.73648e-06
-2.66482e-06
-2.71384e-06
-2.81129e-06
-2.67011e-06
-2.94506e-06
-2.60021e-06
-3.05824e-06
-2.49976e-06
-3.14152e-06
-2.36576e-06
-3.18475e-06
-2.19734e-06
-3.17793e-06
-1.99646e-06
-3.11251e-06
-1.76827e-06
-2.98298e-06
-1.52113e-06
-2.78844e-06
-1.26591e-06
-2.53378e-06
-1.01483e-06
-2.23e-06
-7.79702e-07
-1.89332e-06
-5.704e-07
-1.54322e-06
-3.93608e-07
-1.1996e-06
-2.52406e-07
-8.80239e-07
-1.46559e-07
-5.99095e-07
-7.32657e-08
-3.6581e-07
-2.80482e-08
-1.8629e-07
-5.53759e-09
-6.38445e-08
-6.54468e-10
-2.34562e-06
1.64934e-06
-2.37977e-06
1.53494e-06
-2.40785e-06
1.4103e-06
-2.43073e-06
1.27762e-06
-2.44929e-06
1.13886e-06
-2.4643e-06
9.95671e-07
-2.47644e-06
8.49415e-07
-2.48627e-06
7.01143e-07
-2.49418e-06
5.51662e-07
-2.50047e-06
4.01577e-07
-2.50533e-06
2.51351e-07
-2.50885e-06
1.01356e-07
-2.51114e-06
-4.8088e-08
-2.51226e-06
-1.96694e-07
-2.51234e-06
-3.44186e-07
-2.51154e-06
-4.90317e-07
-2.51012e-06
-6.34874e-07
-2.50845e-06
-7.77714e-07
-2.50696e-06
-9.18791e-07
-2.50622e-06
-1.05819e-06
-2.50685e-06
-1.19618e-06
-2.5095e-06
-1.33322e-06
-2.51479e-06
-1.46997e-06
-2.52326e-06
-1.6073e-06
-2.53519e-06
-1.74624e-06
-2.55055e-06
-1.88787e-06
-2.56878e-06
-2.03321e-06
-2.58867e-06
-2.18299e-06
-2.60822e-06
-2.33735e-06
-2.62451e-06
-2.49557e-06
-2.63368e-06
-2.65566e-06
-2.63095e-06
-2.81401e-06
-2.61087e-06
-2.96514e-06
-2.56765e-06
-3.10146e-06
-2.49571e-06
-3.21346e-06
-2.39043e-06
-3.29004e-06
-2.24895e-06
-3.31941e-06
-2.07108e-06
-3.29037e-06
-1.86e-06
-3.19406e-06
-1.62256e-06
-3.02588e-06
-1.36906e-06
-2.78729e-06
-1.11216e-06
-2.48689e-06
-8.65245e-07
-2.14024e-06
-6.40405e-07
-1.76806e-06
-4.46762e-07
-1.39324e-06
-2.89509e-07
-1.03749e-06
-1.69905e-07
-7.187e-07
-8.5954e-08
-4.49761e-07
-3.3418e-08
-2.38826e-07
-6.78835e-09
-9.04742e-08
-7.44282e-09
-2.23909e-06
1.68455e-06
-2.26829e-06
1.56414e-06
-2.29236e-06
1.43437e-06
-2.31219e-06
1.29744e-06
-2.32858e-06
1.15525e-06
-2.34226e-06
1.00935e-06
-2.35378e-06
8.60939e-07
-2.36357e-06
7.10927e-07
-2.37187e-06
5.59966e-07
-2.37883e-06
4.08533e-07
-2.38447e-06
2.56993e-07
-2.38877e-06
1.05656e-07
-2.39167e-06
-4.51831e-08
-2.39314e-06
-1.95222e-07
-2.39319e-06
-3.44137e-07
-2.39191e-06
-4.91602e-07
-2.38948e-06
-6.37303e-07
-2.38622e-06
-7.80976e-07
-2.38256e-06
-9.22445e-07
-2.37909e-06
-1.06167e-06
-2.37648e-06
-1.19879e-06
-2.37552e-06
-1.33417e-06
-2.37705e-06
-1.46845e-06
-2.38185e-06
-1.6025e-06
-2.39059e-06
-1.73749e-06
-2.40371e-06
-1.87475e-06
-2.42121e-06
-2.01571e-06
-2.44251e-06
-2.16169e-06
-2.46625e-06
-2.3136e-06
-2.49015e-06
-2.47167e-06
-2.51087e-06
-2.63494e-06
-2.52395e-06
-2.80093e-06
-2.52399e-06
-2.9651e-06
-2.50481e-06
-3.12064e-06
-2.46001e-06
-3.25826e-06
-2.38358e-06
-3.36647e-06
-2.27084e-06
-3.43214e-06
-2.11941e-06
-3.4418e-06
-1.93017e-06
-3.3833e-06
-1.70798e-06
-3.24807e-06
-1.4618e-06
-3.03346e-06
-1.2041e-06
-2.7446e-06
-9.49222e-07
-2.39512e-06
-7.11282e-07
-2.006e-06
-5.01925e-07
-1.6026e-06
-3.28791e-07
-1.21063e-06
-1.95028e-07
-8.52463e-07
-9.98007e-08
-5.44988e-07
-3.93567e-08
-2.9927e-07
-8.19378e-09
-1.21637e-07
-1.56366e-08
-2.12517e-06
1.71511e-06
-2.15068e-06
1.58966e-06
-2.17203e-06
1.45572e-06
-2.19006e-06
1.31548e-06
-2.20553e-06
1.17072e-06
-2.21904e-06
1.02286e-06
-2.23102e-06
8.72924e-07
-2.24175e-06
7.21656e-07
-2.25134e-06
5.69552e-07
-2.25977e-06
4.1696e-07
-2.26693e-06
2.64155e-07
-2.27267e-06
1.11394e-07
-2.27681e-06
-4.10402e-08
-2.27921e-06
-1.92818e-07
-2.27979e-06
-3.43558e-07
-2.27855e-06
-4.92843e-07
-2.27561e-06
-6.40246e-07
-2.27121e-06
-7.85368e-07
-2.26577e-06
-9.27887e-07
-2.25984e-06
-1.06761e-06
-2.25411e-06
-1.20452e-06
-2.24944e-06
-1.33884e-06
-2.24678e-06
-1.47111e-06
-2.24713e-06
-1.60215e-06
-2.25146e-06
-1.73316e-06
-2.26059e-06
-1.86562e-06
-2.27503e-06
-2.00127e-06
-2.29481e-06
-2.14191e-06
-2.31927e-06
-2.28915e-06
-2.34683e-06
-2.4441e-06
-2.37483e-06
-2.60694e-06
-2.39939e-06
-2.77637e-06
-2.41541e-06
-2.94908e-06
-2.41672e-06
-3.11934e-06
-2.39642e-06
-3.27856e-06
-2.34752e-06
-3.41537e-06
-2.26375e-06
-3.51591e-06
-2.14068e-06
-3.56488e-06
-1.97679e-06
-3.5472e-06
-1.77456e-06
-3.4503e-06
-1.54106e-06
-3.26696e-06
-1.28775e-06
-2.9979e-06
-1.0293e-06
-2.65357e-06
-7.81373e-07
-2.25392e-06
-5.58068e-07
-1.8259e-06
-3.69693e-07
-1.399e-06
-2.21673e-07
-1.00048e-06
-1.14714e-07
-6.51947e-07
-4.58439e-08
-3.6814e-07
-9.75582e-09
-1.57725e-07
-2.53924e-08
-2.00568e-06
1.74216e-06
-2.02864e-06
1.61261e-06
-2.04838e-06
1.47546e-06
-2.06568e-06
1.33278e-06
-2.0812e-06
1.18624e-06
-2.09543e-06
1.03708e-06
-2.10865e-06
8.86152e-07
-2.12101e-06
7.34015e-07
-2.13248e-06
5.81015e-07
-2.1429e-06
4.27381e-07
-2.15205e-06
2.73306e-07
-2.15966e-06
1.19007e-07
-2.16547e-06
-3.5234e-08
-2.16924e-06
-1.8905e-07
-2.1708e-06
-3.41993e-07
-2.17009e-06
-4.93551e-07
-2.16716e-06
-6.43179e-07
-2.16219e-06
-7.90342e-07
-2.15551e-06
-9.3456e-07
-2.14765e-06
-1.07547e-06
-2.13927e-06
-1.2129e-06
-2.13122e-06
-1.34689e-06
-2.12452e-06
-1.47781e-06
-2.12028e-06
-1.60639e-06
-2.11968e-06
-1.73376e-06
-2.12384e-06
-1.86146e-06
-2.13371e-06
-1.99141e-06
-2.14986e-06
-2.12576e-06
-2.17229e-06
-2.26672e-06
-2.20017e-06
-2.41623e-06
-2.2316e-06
-2.57551e-06
-2.26344e-06
-2.74453e-06
-2.29115e-06
-2.92137e-06
-2.30887e-06
-3.10162e-06
-2.3096e-06
-3.27783e-06
-2.28573e-06
-3.43924e-06
-2.22979e-06
-3.57184e-06
-2.13552e-06
-3.65915e-06
-1.99911e-06
-3.68361e-06
-1.82049e-06
-3.62892e-06
-1.60435e-06
-3.48309e-06
-1.36051e-06
-3.24175e-06
-1.10315e-06
-2.91094e-06
-8.48893e-07
-2.50818e-06
-6.14e-07
-2.06079e-06
-4.11527e-07
-1.60147e-06
-2.49498e-07
-1.16251e-06
-1.30556e-07
-7.70889e-07
-5.28409e-08
-4.45856e-07
-1.14709e-08
-1.99095e-07
-3.68633e-08
-1.88197e-06
1.76666e-06
-1.90332e-06
1.63397e-06
-1.92234e-06
1.49447e-06
-1.93971e-06
1.35015e-06
-1.95597e-06
1.20251e-06
-1.9715e-06
1.0526e-06
-1.98644e-06
9.01098e-07
-2.00081e-06
7.48382e-07
-2.01445e-06
5.94656e-07
-2.02711e-06
4.40039e-07
-2.03846e-06
2.84659e-07
-2.04816e-06
1.28704e-07
-2.05586e-06
-2.75327e-08
-2.06127e-06
-1.83641e-07
-2.06416e-06
-3.39103e-07
-2.0644e-06
-4.93312e-07
-2.06197e-06
-6.45607e-07
-2.05699e-06
-7.95318e-07
-2.04974e-06
-9.41816e-07
-2.04064e-06
-1.08457e-06
-2.03032e-06
-1.22322e-06
-2.01957e-06
-1.35763e-06
-2.00941e-06
-1.48797e-06
-2.00098e-06
-1.61482e-06
-1.99557e-06
-1.73916e-06
-1.99453e-06
-1.86251e-06
-1.9991e-06
-1.98683e-06
-2.01034e-06
-2.11452e-06
-2.02882e-06
-2.24823e-06
-2.05444e-06
-2.39061e-06
-2.08611e-06
-2.54384e-06
-2.1215e-06
-2.70914e-06
-2.15682e-06
-2.88604e-06
-2.18677e-06
-3.07167e-06
-2.2046e-06
-3.26e-06
-2.20247e-06
-3.44137e-06
-2.17211e-06
-3.60221e-06
-2.10578e-06
-3.72547e-06
-1.99761e-06
-3.79178e-06
-1.845e-06
-3.78154e-06
-1.65001e-06
-3.67808e-06
-1.42022e-06
-3.47153e-06
-1.16862e-06
-3.16254e-06
-9.12039e-07
-2.76476e-06
-6.68429e-07
-2.30441e-06
-4.53492e-07
-1.81641e-06
-2.78081e-07
-1.33792e-06
-1.47141e-07
-9.01828e-07
-6.02876e-08
-5.32709e-07
-1.33302e-08
-2.46053e-07
-5.01935e-08
-1.75493e-06
1.78943e-06
-1.77541e-06
1.65444e-06
-1.79433e-06
1.51339e-06
-1.81229e-06
1.36811e-06
-1.82971e-06
1.21992e-06
-1.84681e-06
1.06971e-06
-1.86366e-06
9.17943e-07
-1.88013e-06
7.64853e-07
-1.89598e-06
6.10506e-07
-1.91087e-06
4.54933e-07
-1.92442e-06
2.98205e-07
-1.93621e-06
1.40498e-07
-1.94587e-06
-1.78792e-08
-1.95304e-06
-1.76462e-07
-1.95748e-06
-3.34669e-07
-1.95899e-06
-4.91802e-07
-1.9575e-06
-6.47092e-07
-1.95308e-06
-7.99743e-07
-1.94591e-06
-9.48985e-07
-1.93635e-06
-1.09413e-06
-1.92494e-06
-1.23463e-06
-1.91239e-06
-1.37018e-06
-1.89963e-06
-1.50073e-06
-1.88781e-06
-1.62664e-06
-1.87824e-06
-1.74874e-06
-1.87235e-06
-1.8684e-06
-1.87163e-06
-1.98755e-06
-1.87747e-06
-2.10869e-06
-1.89093e-06
-2.23477e-06
-1.91256e-06
-2.36898e-06
-1.94205e-06
-2.51436e-06
-1.97791e-06
-2.67328e-06
-2.01724e-06
-2.84671e-06
-2.05548e-06
-3.03343e-06
-2.0864e-06
-3.22908e-06
-2.1023e-06
-3.42547e-06
-2.0945e-06
-3.61001e-06
-2.05422e-06
-3.76575e-06
-1.97383e-06
-3.87217e-06
-1.84838e-06
-3.90698e-06
-1.67723e-06
-3.84924e-06
-1.46536e-06
-3.6834e-06
-1.22388e-06
-3.40402e-06
-9.69111e-07
-3.01953e-06
-7.20031e-07
-2.55349e-06
-4.94715e-07
-2.04173e-06
-3.06926e-07
-1.52571e-06
-1.64239e-07
-1.04452e-06
-6.81036e-08
-6.28845e-07
-1.53196e-08
-2.98837e-07
-6.55131e-08
-1.62508e-06
1.81104e-06
-1.64518e-06
1.67454e-06
-1.6644e-06
1.53261e-06
-1.68321e-06
1.38692e-06
-1.70191e-06
1.23863e-06
-1.72063e-06
1.08843e-06
-1.73931e-06
9.36623e-07
-1.75775e-06
7.8329e-07
-1.77563e-06
6.28385e-07
-1.79256e-06
4.71863e-07
-1.80811e-06
3.13758e-07
-1.82186e-06
1.54243e-07
-1.83338e-06
-6.35757e-09
-1.84233e-06
-1.6751e-07
-1.84841e-06
-3.28587e-07
-1.85142e-06
-4.88796e-07
-1.85124e-06
-6.47276e-07
-1.84786e-06
-8.03119e-07
-1.84141e-06
-9.55429e-07
-1.83217e-06
-1.10337e-06
-1.82056e-06
-1.24625e-06
-1.8072e-06
-1.38354e-06
-1.79291e-06
-1.51501e-06
-1.77876e-06
-1.64079e-06
-1.766e-06
-1.76149e-06
-1.75611e-06
-1.87829e-06
-1.75067e-06
-1.99299e-06
-1.75128e-06
-2.10807e-06
-1.75942e-06
-2.22663e-06
-1.77615e-06
-2.35225e-06
-1.80185e-06
-2.48865e-06
-1.8359e-06
-2.63923e-06
-1.87629e-06
-2.80633e-06
-1.91933e-06
-2.99038e-06
-1.95955e-06
-3.18886e-06
-1.98968e-06
-3.39534e-06
-2.00101e-06
-3.59868e-06
-1.98413e-06
-3.78263e-06
-1.93007e-06
-3.92623e-06
-1.8318e-06
-4.00525e-06
-1.68607e-06
-3.99496e-06
-1.49509e-06
-3.87438e-06
-1.26759e-06
-3.63152e-06
-1.01863e-06
-3.26849e-06
-7.67535e-07
-2.80458e-06
-5.34286e-07
-2.27498e-06
-3.3549e-07
-1.72451e-06
-1.81579e-07
-1.19843e-06
-7.61878e-08
-7.34236e-07
-1.74195e-08
-3.57605e-07
-8.29325e-08
-1.49267e-06
1.8319e-06
-1.51267e-06
1.69454e-06
-1.53234e-06
1.55228e-06
-1.55203e-06
1.40661e-06
-1.57194e-06
1.25855e-06
-1.5921e-06
1.10858e-06
-1.61235e-06
9.56877e-07
-1.63244e-06
8.03382e-07
-1.65201e-06
6.47956e-07
-1.67065e-06
4.90495e-07
-1.6879e-06
3.31009e-07
-1.70333e-06
1.69676e-07
-1.71654e-06
6.85634e-09
-1.72717e-06
-1.56884e-07
-1.73492e-06
-3.2084e-07
-1.73956e-06
-4.84157e-07
-1.74094e-06
-6.45888e-07
-1.73903e-06
-8.05033e-07
-1.73387e-06
-9.60585e-07
-1.72566e-06
-1.11159e-06
-1.71472e-06
-1.25719e-06
-1.70154e-06
-1.39672e-06
-1.68683e-06
-1.52972e-06
-1.67152e-06
-1.65609e-06
-1.65679e-06
-1.77623e-06
-1.64403e-06
-1.89105e-06
-1.63485e-06
-2.00218e-06
-1.63097e-06
-2.11195e-06
-1.6341e-06
-2.2235e-06
-1.64574e-06
-2.34061e-06
-1.66686e-06
-2.46753e-06
-1.69759e-06
-2.6085e-06
-1.73682e-06
-2.7671e-06
-1.78182e-06
-2.94538e-06
-1.82798e-06
-3.14269e-06
-1.86872e-06
-3.35461e-06
-1.89564e-06
-3.57176e-06
-1.89909e-06
-3.77918e-06
-1.86916e-06
-3.95617e-06
-1.79713e-06
-4.07727e-06
-1.67737e-06
-4.11472e-06
-1.50928e-06
-4.04247e-06
-1.29891e-06
-3.84189e-06
-1.05944e-06
-3.50796e-06
-8.09804e-07
-3.05422e-06
-5.71318e-07
-2.51346e-06
-3.63201e-07
-1.93262e-06
-1.9886e-07
-1.36277e-06
-8.44189e-08
-8.48677e-07
-1.96031e-08
-4.22421e-07
-1.02536e-07
-1.35775e-06
1.8522e-06
-1.37774e-06
1.71453e-06
-1.39782e-06
1.57236e-06
-1.41826e-06
1.42705e-06
-1.43914e-06
1.27942e-06
-1.46039e-06
1.12984e-06
-1.48184e-06
9.78318e-07
-1.50316e-06
8.24703e-07
-1.52398e-06
6.68781e-07
-1.54389e-06
5.10405e-07
-1.56246e-06
3.49572e-07
-1.57925e-06
1.86473e-07
-1.5939e-06
2.15018e-08
-1.60604e-06
-1.44739e-07
-1.6154e-06
-3.11486e-07
-1.62173e-06
-4.77825e-07
-1.62488e-06
-6.42741e-07
-1.62475e-06
-8.0516e-07
-1.62135e-06
-9.63984e-07
-1.61479e-06
-1.11815e-06
-1.60529e-06
-1.26669e-06
-1.59322e-06
-1.40879e-06
-1.57916e-06
-1.54378e-06
-1.5639e-06