/*--------------------------------*- C++ -*----------------------------------*\
  =========                 |
  \\      /  F ield         | OpenFOAM: The Open Source CFD Toolbox
   \\    /   O peration     | Website:  https://openfoam.org
    \\  /    A nd           | Version:  9
     \\/     M anipulation  |
\*---------------------------------------------------------------------------*/
FoamFile
{
    format      ascii;
    class       volScalarField;
    location    "2.75";
    object      p;
}
// * * * * * * * * * * * * * * * * * * * * * * * * * * * * * * * * * * * * * //

dimensions      [0 2 -2 0 0 0 0];

internalField   nonuniform List<scalar> 
1260
(
-0.0967912
-0.0951914
-0.093529
-0.0918096
-0.0900388
-0.0882227
-0.0863673
-0.0844785
-0.0825613
-0.0806195
-0.0786546
-0.0766646
-0.0746433
-0.0725789
-0.0704531
-0.0682411
-0.0659132
-0.063438
-0.0607901
-0.0579622
-0.0549817
-0.0519286
-0.0489474
-0.0462398
-0.0440287
-0.0424938
-0.0416965
-0.0415462
-0.0418935
-0.0426755
-0.0967993
-0.0951951
-0.0935292
-0.091807
-0.0900347
-0.0882186
-0.0863652
-0.0844811
-0.0825721
-0.080643
-0.0786965
-0.0767324
-0.0747463
-0.0727286
-0.0706632
-0.0685276
-0.0662931
-0.0639283
-0.0614053
-0.0587105
-0.0558604
-0.0529208
-0.0500203
-0.0473496
-0.0451307
-0.0435556
-0.0427076
-0.0425163
-0.0428437
-0.0436291
-0.0966879
-0.0950777
-0.0934063
-0.0916796
-0.0899038
-0.0880857
-0.0862323
-0.0843506
-0.0824473
-0.080528
-0.0785968
-0.0766548
-0.0746995
-0.0727232
-0.0707123
-0.0686462
-0.0664981
-0.064237
-0.0618335
-0.0592688
-0.0565505
-0.0537308
-0.0509229
-0.0483045
-0.0460938
-0.0444919
-0.0436013
-0.0433725
-0.0436802
-0.0444669
-0.0964568
-0.0948387
-0.09316
-0.0914267
-0.0896454
-0.0878231
-0.0859674
-0.0840858
-0.0821855
-0.0802733
-0.078354
-0.0764305
-0.0745016
-0.0725618
-0.0705995
-0.0685964
-0.0665276
-0.0643632
-0.0620729
-0.0596342
-0.057047
-0.0543512
-0.0516451
-0.0490924
-0.0469048
-0.0452888
-0.0443643
-0.0441019
-0.0443905
-0.0451769
-0.0961063
-0.0944782
-0.0927901
-0.091048
-0.0892589
-0.0874302
-0.0855698
-0.0836856
-0.0817858
-0.0798776
-0.0779671
-0.0760583
-0.0741517
-0.0722435
-0.0703242
-0.0683778
-0.0663813
-0.0643062
-0.0621223
-0.0598044
-0.0573459
-0.0547759
-0.0521785
-0.0497027
-0.0475514
-0.0459337
-0.0449841
-0.0446926
-0.044963
-0.045748
-0.0956369
-0.0939967
-0.0922968
-0.0905436
-0.0887443
-0.0869066
-0.0850388
-0.0831495
-0.0812472
-0.07934
-0.0774351
-0.0755373
-0.0736488
-0.0717675
-0.0698857
-0.0679897
-0.0660586
-0.0640656
-0.0619807
-0.0597775
-0.0574439
-0.0549998
-0.0525156
-0.0501259
-0.0480228
-0.046415
-0.0454488
-0.045133
-0.0453868
-0.0461694
-0.0950494
-0.0933948
-0.0916807
-0.0899139
-0.0881018
-0.0862524
-0.0843745
-0.0824771
-0.0805693
-0.0786601
-0.0767572
-0.0748668
-0.0729923
-0.0711331
-0.0692836
-0.0674319
-0.0655594
-0.063641
-0.0616478
-0.0595524
-0.0573388
-0.0550189
-0.0526505
-0.0503539
-0.0483092
-0.046722
-0.0457478
-0.0454125
-0.0456515
-0.0464313
-0.094345
-0.0926736
-0.0909428
-0.0891596
-0.0873319
-0.085468
-0.0835771
-0.0816686
-0.0797522
-0.0778376
-0.0759333
-0.0740465
-0.0721819
-0.0703403
-0.0685177
-0.0667044
-0.0648836
-0.0630325
-0.0611233
-0.0591283
-0.0570289
-0.0548298
-0.0525781
-0.0503796
-0.0484019
-0.0468451
-0.045871
-0.0455214
-0.0457476
-0.0465248
-0.0935253
-0.0918345
-0.0900843
-0.0882821
-0.0864358
-0.0845544
-0.0826473
-0.0807245
-0.0787963
-0.0768729
-0.0749636
-0.0730766
-0.0712177
-0.069389
-0.0675882
-0.0658073
-0.0640318
-0.0622405
-0.0604074
-0.0585051
-0.056513
-0.0544303
-0.0522941
-0.0501971
-0.0482933
-0.0467755
-0.0458093
-0.0454503
-0.0456662
-0.0464413
-0.0925922
-0.0908794
-0.0891071
-0.0872829
-0.0854151
-0.083513
-0.0815866
-0.0796462
-0.0777026
-0.0757668
-0.0738489
-0.0719578
-0.0701002
-0.0682798
-0.0664956
-0.0647413
-0.0630044
-0.0612657
-0.0595007
-0.057683
-0.0557906
-0.0538186
-0.0517954
-0.0498012
-0.0479766
-0.0465053
-0.0455541
-0.0451908
-0.0453989
-0.046173
-0.0915481
-0.0898107
-0.0880134
-0.0861642
-0.0842718
-0.0823459
-0.0803967
-0.0784352
-0.0764728
-0.0745209
-0.0725905
-0.0706912
-0.0688307
-0.0670139
-0.065241
-0.0635075
-0.0618026
-0.060109
-0.0584042
-0.0566625
-0.0548618
-0.0529937
-0.0510794
-0.0491877
-0.0474458
-0.0460272
-0.0450976
-0.0447348
-0.044938
-0.0457124
-0.0903959
-0.0886312
-0.0868061
-0.0849288
-0.0830087
-0.0810555
-0.0790801
-0.077094
-0.0751091
-0.0731374
-0.0711904
-0.0692788
-0.067411
-0.0655929
-0.0638262
-0.0621076
-0.060428
-0.0587721
-0.0571191
-0.0554449
-0.0537271
-0.0519551
-0.0501441
-0.0483528
-0.0466956
-0.0453346
-0.0444323
-0.0440746
-0.0442759
-0.0450527
-0.0891389
-0.0873441
-0.0854884
-0.0835801
-0.0816289
-0.0796452
-0.0776402
-0.0756259
-0.0736147
-0.0716191
-0.0696516
-0.0677233
-0.0658437
-0.0640194
-0.0622534
-0.0605437
-0.0588827
-0.057257
-0.0556475
-0.0540315
-0.0523873
-0.0507028
-0.0489883
-0.0472936
-0.045721
-0.0444211
-0.043551
-0.0432027
-0.0434051
-0.0441867
-0.0877811
-0.0859537
-0.0840644
-0.0821221
-0.0801367
-0.0781191
-0.0760809
-0.0740346
-0.0719933
-0.06997
-0.0679777
-0.0660283
-0.0641321
-0.0622966
-0.0605258
-0.0588188
-0.0571697
-0.0555663
-0.0539916
-0.0524245
-0.050844
-0.0492372
-0.0476109
-0.0460073
-0.0445176
-0.0432806
-0.0424466
-0.0421115
-0.042318
-0.0431075
-0.0863269
-0.0844643
-0.0825387
-0.0805595
-0.0785368
-0.0764819
-0.0744071
-0.0723252
-0.0702498
-0.0681947
-0.0661733
-0.0641983
-0.0622806
-0.0604287
-0.0586472
-0.0569367
-0.0552922
-0.0537033
-0.0521544
-0.0506262
-0.0490988
-0.0475592
-0.0460114
-0.0444914
-0.0430808
-0.0419068
-0.0411117
-0.0407931
-0.0410066
-0.0418074
-0.0788979
-0.0768349
-0.0747396
-0.0726246
-0.0705034
-0.0683901
-0.0662989
-0.0642441
-0.0622388
-0.0602946
-0.0584207
-0.0566227
-0.0549018
-0.0532545
-0.0516718
-0.0501393
-0.0486395
-0.047154
-0.0456697
-0.0441893
-0.0427438
-0.0414063
-0.0402934
-0.0395384
-0.0392387
-0.0394623
-0.0402785
-0.077144
-0.0750377
-0.0728987
-0.0707402
-0.0685761
-0.066421
-0.0642898
-0.062197
-0.0601565
-0.0581806
-0.0562789
-0.0544579
-0.0527198
-0.0510619
-0.0494762
-0.0479504
-0.0464678
-0.0450118
-0.0435701
-0.0421442
-0.0407619
-0.0394892
-0.0384333
-0.0377181
-0.0374388
-0.037675
-0.0385111
-0.0753051
-0.0731529
-0.0709674
-0.0687622
-0.0665516
-0.0643509
-0.0621753
-0.06004
-0.0579593
-0.0559461
-0.0540107
-0.05216
-0.050397
-0.04872
-0.047122
-0.0455919
-0.0441147
-0.0426749
-0.0412615
-0.0398757
-0.038543
-0.0373243
-0.0363186
-0.0356408
-0.0353823
-0.0356334
-0.0364945
-0.07339
-0.0711894
-0.0689546
-0.0666997
-0.0644393
-0.0621892
-0.0599651
-0.0577826
-0.0556566
-0.0536003
-0.0516245
-0.0497369
-0.047941
-0.0462356
-0.044615
-0.043069
-0.0415841
-0.0401461
-0.0387451
-0.037383
-0.0360839
-0.0349053
-0.0339402
-0.033295
-0.0330561
-0.0333236
-0.0342156
-0.0714084
-0.0691573
-0.0668709
-0.0645634
-0.0622501
-0.0599469
-0.0576701
-0.0554356
-0.0532588
-0.0511533
-0.0491303
-0.0471979
-0.04536
-0.0436164
-0.0419618
-0.0403871
-0.03888
-0.0374278
-0.0360217
-0.0346645
-0.0333803
-0.0322249
-0.0312873
-0.030667
-0.0304445
-0.0307294
-0.0316584
-0.0693716
-0.0670683
-0.0647281
-0.0623655
-0.0599963
-0.0576365
-0.0553028
-0.0530115
-0.0507783
-0.048617
-0.0465392
-0.0445533
-0.0426638
-0.0408707
-0.0391696
-0.037552
-0.0360067
-0.0345222
-0.0330913
-0.0317178
-0.0304267
-0.0292738
-0.0283466
-0.0277403
-0.0275289
-0.0278306
-0.0288037
-0.067292
-0.0649352
-0.0625395
-0.0601198
-0.0576918
-0.055272
-0.0528773
-0.0505243
-0.0482286
-0.0460045
-0.0438637
-0.0418149
-0.0398628
-0.0380077
-0.0362459
-0.0345694
-0.0329678
-0.031431
-0.0299529
-0.028539
-0.0272156
-0.0260404
-0.0251024
-0.0244948
-0.0242862
-0.0246029
-0.0256276
-0.0651835
-0.0627726
-0.0603201
-0.0578413
-0.0553521
-0.0528692
-0.0504094
-0.0479894
-0.045625
-0.0433305
-0.0411177
-0.0389953
-0.0369683
-0.0350373
-0.0331986
-0.0314451
-0.0297669
-0.0281548
-0.0266042
-0.0251221
-0.0237372
-0.0225102
-0.0215348
-0.0209061
-0.0206886
-0.0210164
-0.0221009
-0.0630617
-0.0605962
-0.0580863
-0.0555471
-0.0529945
-0.0504452
-0.0479162
-0.0454239
-0.042984
-0.0406109
-0.0383161
-0.0361084
-0.0339927
-0.0319697
-0.0300359
-0.0281845
-0.0264062
-0.0246926
-0.0230404
-0.0214585
-0.019978
-0.0186646
-0.0176193
-0.0169442
-0.0167019
-0.0170343
-0.0181879
-0.0609434
-0.0584236
-0.0558559
-0.0532552
-0.0506374
-0.0480189
-0.0454164
-0.0428462
-0.0403237
-0.0378628
-0.035475
-0.0331687
-0.0309486
-0.0288154
-0.0267656
-0.0247924
-0.022887
-0.0210415
-0.0192541
-0.0175359
-0.0159204
-0.0144794
-0.0133252
-0.0125718
-0.012284
-0.0126119
-0.0138445
-0.0588466
-0.0562735
-0.0536482
-0.0509854
-0.0483007
-0.0456102
-0.0429299
-0.0402759
-0.037663
-0.0351044
-0.0326112
-0.0301914
-0.0278492
-0.025585
-0.0233951
-0.0212726
-0.0192087
-0.0171964
-0.015235
-0.0133364
-0.0115401
-0.00992382
-0.00861405
-0.00774296
-0.00738296
-0.00769368
-0.00901661
-0.0567905
-0.0541655
-0.0514833
-0.0487582
-0.0460052
-0.0432399
-0.0404776
-0.0377334
-0.0350216
-0.0323544
-0.0297422
-0.0271921
-0.0247077
-0.0222887
-0.0199309
-0.0176271
-0.0153685
-0.0131487
-0.0109684
-0.00883604
-0.00680591
-0.00495844
-0.00343734
-0.00240007
-0.00193425
-0.00221159
-0.00363749
-0.0547952
-0.0521201
-0.0493821
-0.0465947
-0.0437723
-0.0409293
-0.0380804
-0.0352394
-0.0324194
-0.0296317
-0.0268852
-0.024186
-0.0215366
-0.0189357
-0.0163782
-0.013856
-0.0113602
-0.0088841
-0.0064287
-0.0040103
-0.00167976
0.000466526
0.00226588
0.00352889
0.00414295
0.00391911
0.00237611
-0.0528807
-0.0501578
-0.0473653
-0.044516
-0.0416229
-0.0386996
-0.0357591
-0.0328141
-0.029876
-0.0269546
-0.024057
-0.0211878
-0.0183478
-0.0155341
-0.0127403
-0.00995699
-0.00717435
-0.00438552
-0.00159262
0.00118358
0.00388989
0.00641439
0.00857237
0.0101346
0.0109506
0.0108046
0.0091294
-0.0510665
-0.0482984
-0.045453
-0.042542
-0.0395772
-0.0365705
-0.0335334
-0.0304767
-0.0274097
-0.0243401
-0.021273
-0.0182105
-0.0151513
-0.0120902
-0.00901835
-0.00592463
-0.00279758
0.000370263
0.00357569
0.0067943
0.00996628
0.0129649
0.0155786
0.0175313
0.0186178
0.0185795
0.016758
-0.0493708
-0.04656
-0.0436634
-0.040691
-0.0376532
-0.0345599
-0.0314206
-0.0282438
-0.0250363
-0.0218031
-0.0185464
-0.0152653
-0.0119552
-0.00860768
-0.00521077
-0.00175022
0.00178789
0.00541236
0.00911931
0.0128805
0.0166257
0.0202188
0.0234059
0.0258627
0.0273091
0.0274168
0.0254406
-0.0478091
-0.044958
-0.0420114
-0.0389778
-0.0358654
-0.032682
-0.0294347
-0.0261291
-0.0227688
-0.0193556
-0.0158877
-0.0123604
-0.00876477
-0.00508781
-0.00131299
0.00257843
0.00660424
0.0107758
0.015089
0.019511
0.0239609
0.0282976
0.0322041
0.0353094
0.0372345
0.0375412
0.0354166
-0.0463928
-0.0435035
-0.040508
-0.0374128
-0.034224
-0.0309468
-0.0275852
-0.0241415
-0.0206158
-0.0170052
-0.0133035
-0.00950069
-0.00558212
-0.00152873
0.00268244
0.00707657
0.0116773
0.0165003
0.0215429
0.0267692
0.0320888
0.037324
0.0421549
0.046097
0.0486597
0.0492462
0.0470104
-0.0451284
-0.0422023
-0.0391583
-0.0360008
-0.0327334
-0.0293584
-0.0258761
-0.0222851
-0.0185807
-0.0147551
-0.0107961
-0.00668717
-0.00240617
0.00207403
0.00678515
0.0117613
0.0170349
0.0226287
0.0285436
0.0347414
0.0411171
0.0474626
0.0534778
0.0584944
0.0619127
0.0629121
0.06066
-0.0440156
-0.0410535
-0.037961
-0.0347402
-0.0313918
-0.0279146
-0.0243053
-0.0205576
-0.0166617
-0.0126035
-0.00836372
-0.00391743
0.000766755
0.00572655
0.0110053
0.0166494
0.0227037
0.0292019
0.0361527
0.0435181
0.0511844
0.0589254
0.0663552
0.072802
0.0773886
0.0790243
0.0769479
-0.0430474
-0.0400493
-0.0369078
-0.0336223
-0.0301902
-0.0266069
-0.0228644
-0.0189514
-0.0148518
-0.0105442
-0.00600085
-0.00118667
0.0039413
0.00943417
0.0153503
0.0217526
0.028703
0.0362519
0.0444214
0.0531801
0.0624084
0.0718533
0.0810642
0.0893737
0.0955537
0.0981931
0.0966336
-0.0422099
-0.0391755
-0.0359842
-0.0326324
-0.0291144
-0.0254213
-0.0215404
-0.0174545
-0.0131404
-0.00856841
-0.0037007
0.00150969
0.00711982
0.0131973
0.0198194
0.0270705
0.0350358
0.0437897
0.0533764
0.0637803
0.0748846
0.086418
0.0978881
0.108518
0.116945
0.121185
0.120693
-0.0414839
-0.0384127
-0.0351708
-0.0317517
-0.0281461
-0.0243407
-0.0203175
-0.016053
-0.0115161
-0.00666781
-0.00145884
0.00417151
0.0102969
0.0170045
0.024395
0.0325798
0.0416747
0.0517873
0.0629957
0.0753142
0.0886455
0.102715
0.116992
0.13059
0.142184
0.148935
0.15034
-0.0408481
-0.03774
-0.0344474
-0.0309608
-0.0272671
-0.0233486
-0.0191816
-0.0147357
-0.00997174
-0.00484017
0.000720678
0.00678686
0.0134507
0.0208222
0.0290297
0.0382176
0.0485406
0.060151
0.0731763
0.0876806
0.103611
0.120716
0.138453
0.155907
0.171766
0.182423
0.18696
-0.0402839
-0.0371397
-0.0337974
-0.0302448
-0.0264648
-0.022435
-0.0181262
-0.0135009
-0.00851113
-0.00309691
0.00281671
0.00932209
0.0165318
0.024581
0.0336293
0.0438598
0.0554753
0.0686861
0.0836889
0.100625
0.119521
0.140195
0.162152
0.184521
0.205924
0.222417
0.232028
-0.0397813
-0.0366033
-0.0332146
-0.0295997
-0.0257382
-0.021603
-0.0171595
-0.0123631
-0.00715749
-0.00147213
0.00478104
0.0117107
0.01945
0.0281602
0.038034
0.0492975
0.0622096
0.0770527
0.0941182
0.113662
0.135852
0.160645
0.187682
0.216161
0.24474
0.269267
0.287813
-0.0393442
-0.0361371
-0.0327078
-0.0290381
-0.0251042
-0.020875
-0.0163107
-0.0113606
-0.0059606
-3.04572e-05
0.00652986
0.0138441
0.0220645
0.0313768
0.0420062
0.0542213
0.0683408
0.0847293
0.103798
0.125969
0.151645
0.181061
0.214197
0.250437
0.28855
0.32445
0.359731
-0.0389968
-0.0357679
-0.0323073
-0.0285946
-0.0246033
-0.0202989
-0.0156374
-0.0105631
-0.00500551
0.00112325
0.007933
0.0155596
0.0241709
0.0339725
0.0452165
0.0582078
0.0733186
0.0909912
0.111765
0.136261
0.165226
0.199405
0.239569
0.285905
0.338212
0.394031
0.460082
-0.038793
-0.0355539
-0.0320766
-0.0283395
-0.0243141
-0.0199639
-0.0152424
-0.0100904
-0.00443379
0.00182032
0.00878769
0.0166116
0.0254694
0.0355788
0.0472087
0.0606864
0.0764194
0.0949023
0.116772
0.14281
0.174115
0.212078
0.258883
0.317087
0.390805
0.482983
0.608546
-0.038792
-0.0355589
-0.0320851
-0.0283487
-0.0243209
-0.0199645
-0.0152323
-0.0100647
-0.00438632
0.00189658
0.00890108
0.016772
0.0256887
0.0358713
0.0475924
0.0611847
0.0770658
0.0957456
0.117898
0.144365
0.176429
0.21584
0.266104
0.332773
0.429787
0.573922
0.794488
)
;

boundaryField
{
    movingWall
    {
        type            zeroGradient;
    }
    fixedWalls
    {
        type            zeroGradient;
    }
    frontAndBack
    {
        type            empty;
    }
    procBoundary4to5
    {
        type            processor;
        value           nonuniform List<scalar> 
48
(
-0.0983238
-0.0983367
-0.0982317
-0.0980088
-0.0976685
-0.0972113
-0.0966382
-0.0959506
-0.09515
-0.0942384
-0.0932184
-0.0920928
-0.0908648
-0.0895385
-0.0881182
-0.0847817
-0.0828815
-0.080917
-0.080917
-0.0792055
-0.0774116
-0.0755435
-0.0736109
-0.0716243
-0.0695959
-0.0675391
-0.0654688
-0.0634012
-0.0613537
-0.059345
-0.0573945
-0.0555218
-0.0537462
-0.0520858
-0.0505561
-0.049169
-0.0479316
-0.0468444
-0.0459012
-0.0450887
-0.0443882
-0.0437781
-0.0432392
-0.04276
-0.0423427
-0.0420093
-0.0418105
-0.0418015
)
;
    }
    procBoundary4to6
    {
        type            processor;
        value           nonuniform List<scalar> 
30
(
-0.096664
-0.0950669
-0.0934066
-0.0916883
-0.0899173
-0.0880994
-0.08624
-0.0843443
-0.0824165
-0.0804592
-0.0784725
-0.0764527
-0.0743916
-0.072275
-0.0700825
-0.0677875
-0.0653593
-0.0627673
-0.0599901
-0.0570279
-0.0539205
-0.0507632
-0.0477156
-0.0449885
-0.0428023
-0.0413208
-0.0405822
-0.0404756
-0.0408424
-0.0416188
)
;
    }
}


// ************************************************************************* //
