/*--------------------------------*- C++ -*----------------------------------*\
  =========                 |
  \\      /  F ield         | OpenFOAM: The Open Source CFD Toolbox
   \\    /   O peration     | Website:  https://openfoam.org
    \\  /    A nd           | Version:  9
     \\/     M anipulation  |
\*---------------------------------------------------------------------------*/
FoamFile
{
    format      ascii;
    class       surfaceScalarField;
    location    "2.75";
    object      phi;
}
// * * * * * * * * * * * * * * * * * * * * * * * * * * * * * * * * * * * * * //

dimensions      [0 3 -1 0 0 0 0];

internalField   nonuniform List<scalar> 
2445
(
-4.07341e-07
-1.85628e-06
-4.26536e-07
-1.96654e-06
-4.45694e-07
-2.07669e-06
-4.64768e-07
-2.18658e-06
-4.83743e-07
-2.2961e-06
-5.02656e-07
-2.40523e-06
-5.21623e-07
-2.5141e-06
-5.4087e-07
-2.62314e-06
-5.60768e-07
-2.73319e-06
-5.81865e-07
-2.84573e-06
-6.04895e-07
-2.96306e-06
-6.30763e-07
-3.0885e-06
-6.60457e-07
-3.22653e-06
-6.94876e-07
-3.38268e-06
-7.34542e-07
-3.56312e-06
-7.79184e-07
-3.77366e-06
-8.27226e-07
-4.01807e-06
-8.75263e-07
-4.29565e-06
-9.1767e-07
-4.598e-06
-9.46581e-07
-4.90569e-06
-9.52485e-07
-5.18553e-06
-9.25706e-07
-5.3899e-06
-8.58824e-07
-5.4601e-06
-7.4974e-07
-5.33558e-06
-6.04433e-07
-4.96944e-06
-4.37923e-07
-4.34716e-06
-2.72141e-07
-3.50026e-06
-1.31029e-07
-2.50447e-06
-3.53421e-08
-1.45874e-06
-4.5413e-07
-3.19952e-07
-1.83569e-06
-3.40663e-07
-1.94583e-06
-3.61428e-07
-2.05593e-06
-3.8219e-07
-2.16582e-06
-4.02919e-07
-2.27537e-06
-4.23624e-07
-2.38452e-06
-4.44385e-07
-2.49334e-06
-4.65377e-07
-2.60214e-06
-4.86908e-07
-2.71166e-06
-5.0945e-07
-2.82319e-06
-5.33668e-07
-2.93884e-06
-5.60406e-07
-3.06176e-06
-5.90635e-07
-3.1963e-06
-6.25306e-07
-3.34801e-06
-6.65095e-07
-3.52333e-06
-7.10015e-07
-3.72874e-06
-7.58905e-07
-3.96918e-06
-8.08882e-07
-4.24567e-06
-8.5487e-07
-4.55201e-06
-8.89439e-07
-4.87112e-06
-9.03243e-07
-5.17173e-06
-8.86313e-07
-5.40683e-06
-8.30388e-07
-5.51602e-06
-7.3205e-07
-5.43392e-06
-5.95804e-07
-5.10569e-06
-4.35551e-07
-4.50741e-06
-2.72911e-07
-3.6629e-06
-1.32418e-07
-2.64496e-06
-3.6014e-08
-1.55514e-06
-4.90144e-07
-2.3202e-07
-1.81365e-06
-2.54279e-07
-1.92357e-06
-2.76691e-07
-2.03351e-06
-2.99195e-07
-2.14332e-06
-3.21748e-07
-2.25282e-06
-3.44339e-07
-2.36193e-06
-3.67017e-07
-2.47066e-06
-3.89911e-07
-2.57925e-06
-4.13272e-07
-2.6883e-06
-4.37503e-07
-2.79896e-06
-4.63192e-07
-2.91315e-06
-4.91118e-07
-3.03383e-06
-5.22213e-07
-3.1652e-06
-5.5745e-07
-3.31277e-06
-5.97617e-07
-3.48316e-06
-6.42959e-07
-3.68339e-06
-6.92686e-07
-3.91946e-06
-7.44402e-07
-4.19396e-06
-7.93571e-07
-4.50284e-06
-8.33238e-07
-4.83145e-06
-8.54291e-07
-5.15068e-06
-8.4658e-07
-5.41454e-06
-8.0112e-07
-5.56148e-06
-7.13262e-07
-5.52177e-06
-5.86057e-07
-5.23289e-06
-4.32238e-07
-4.66123e-06
-2.73031e-07
-3.8221e-06
-1.33464e-07
-2.78453e-06
-3.65857e-08
-1.65202e-06
-5.26729e-07
-1.4351e-07
-1.79015e-06
-1.67346e-07
-1.89974e-06
-1.91444e-07
-2.00942e-06
-2.1574e-07
-2.11902e-06
-2.40181e-07
-2.22838e-06
-2.64743e-07
-2.33737e-06
-2.89446e-07
-2.44596e-06
-3.14383e-07
-2.55431e-06
-3.39753e-07
-2.66293e-06
-3.65892e-07
-2.77282e-06
-3.93314e-07
-2.88573e-06
-4.22726e-07
-3.00442e-06
-4.55009e-07
-3.13292e-06
-4.91128e-07
-3.27665e-06
-5.31946e-07
-3.44234e-06
-5.77897e-07
-3.63744e-06
-6.28513e-07
-3.86884e-06
-6.81849e-07
-4.14062e-06
-7.33893e-07
-4.4508e-06
-7.78186e-07
-4.78716e-06
-8.05914e-07
-5.12295e-06
-8.06841e-07
-5.41361e-06
-7.71368e-07
-5.59695e-06
-6.937e-07
-5.59944e-06
-5.75462e-07
-5.35113e-06
-4.28182e-07
-4.80851e-06
-2.72616e-07
-3.97767e-06
-1.34219e-07
-2.92293e-06
-3.70675e-08
-1.74917e-06
-5.63797e-07
-5.43796e-08
-1.76515e-06
-7.98238e-08
-1.87429e-06
-1.05645e-07
-1.98359e-06
-1.31779e-07
-2.09289e-06
-1.58169e-07
-2.20199e-06
-1.84778e-07
-2.31076e-06
-2.11606e-07
-2.41913e-06
-2.38714e-07
-2.5272e-06
-2.66252e-07
-2.63539e-06
-2.94499e-07
-2.74457e-06
-3.23895e-07
-2.85633e-06
-3.55073e-07
-2.97324e-06
-3.88849e-07
-3.09914e-06
-4.26163e-07
-3.23934e-06
-4.67919e-07
-3.40059e-06
-5.14697e-07
-3.59067e-06
-5.66306e-07
-3.81723e-06
-6.2121e-07
-4.08572e-06
-6.75904e-07
-4.3961e-06
-7.24434e-07
-4.73863e-06
-7.58334e-07
-5.08905e-06
-7.67371e-07
-5.40457e-06
-7.41432e-07
-5.62289e-06
-6.73658e-07
-5.66722e-06
-5.64278e-07
-5.46051e-06
-4.23581e-07
-4.9492e-06
-2.7179e-07
-4.12946e-06
-1.34736e-07
-3.05998e-06
-3.74718e-08
-1.84643e-06
-6.01269e-07
3.54198e-08
-1.73863e-06
8.33779e-09
-1.84721e-06
-1.92449e-08
-1.95601e-06
-4.72639e-08
-2.06487e-06
-7.56603e-08
-2.17359e-06
-1.04389e-07
-2.28203e-06
-1.33433e-07
-2.39008e-06
-1.62827e-07
-2.49781e-06
-1.92682e-07
-2.60554e-06
-2.23219e-07
-2.71403e-06
-2.54811e-07
-2.82474e-06
-2.88014e-07
-2.94004e-06
-3.23575e-07
-3.06358e-06
-3.62388e-07
-3.20052e-06
-4.05373e-07
-3.3576e-06
-4.53218e-07
-3.54282e-06
-5.05962e-07
-3.76449e-06
-5.62441e-07
-4.02924e-06
-6.1963e-07
-4.33891e-06
-6.72084e-07
-4.68618e-06
-7.11725e-07
-5.04941e-06
-7.28399e-07
-5.3879e-06
-7.11572e-07
-5.63972e-06
-6.53401e-07
-5.72539e-06
-5.52746e-07
-5.56116e-06
-4.18626e-07
-5.08332e-06
-2.70681e-07
-4.2774e-06
-1.35076e-07
-3.19559e-06
-3.78134e-08
-1.9437e-06
-6.39082e-07
1.25944e-07
-1.71056e-06
9.71912e-08
-1.81846e-06
6.78097e-08
-1.92663e-06
3.78601e-08
-2.03492e-06
7.40174e-09
-2.14313e-06
-2.35166e-08
-2.25111e-06
-5.48651e-08
-2.35873e-06
-8.66545e-08
-2.46602e-06
-1.1896e-07
-2.57323e-06
-1.51955e-07
-2.68104e-06
-1.85948e-07
-2.79075e-06
-2.21419e-07
-2.90457e-06
-2.59038e-07
-3.02596e-06
-2.99645e-07
-3.15992e-06
-3.4415e-07
-3.3131e-06
-3.93312e-07
-3.49366e-06
-4.47366e-07
-3.71043e-06
-5.05473e-07
-3.97113e-06
-5.65062e-07
-4.27932e-06
-6.21193e-07
-4.63005e-06
-6.66211e-07
-5.00439e-06
-6.90103e-07
-5.36401e-06
-6.82004e-07
-5.64782e-06
-6.33159e-07
-5.77423e-06
-5.41087e-07
-5.65324e-06
-4.13505e-07
-5.21091e-06
-2.69417e-07
-4.42149e-06
-1.35305e-07
-3.3297e-06
-3.8109e-08
-2.04089e-06
-6.77191e-07
2.17254e-07
-1.68093e-06
1.86799e-07
-1.788e-06
1.55579e-07
-1.89541e-06
1.23651e-07
-2.00299e-06
9.1072e-08
-2.11056e-06
5.78965e-08
-2.21794e-06
2.41617e-08
-2.325e-06
-1.01248e-08
-2.43173e-06
-4.50092e-08
-2.53835e-06
-8.06186e-08
-2.64543e-06
-1.17201e-07
-2.75416e-06
-1.55164e-07
-2.86661e-06
-1.95101e-07
-2.98603e-06
-2.37784e-07
-3.11723e-06
-2.84094e-07
-3.26679e-06
-3.34834e-07
-3.44292e-06
-3.90391e-07
-3.65488e-06
-4.50217e-07
-3.91131e-06
-5.12162e-07
-4.21738e-06
-5.71783e-07
-4.57043e-06
-6.21872e-07
-4.9543e-06
-6.52618e-07
-5.33326e-06
-6.52902e-07
-5.64754e-06
-6.1313e-07
-5.814e-06
-5.29502e-07
-5.73686e-06
-4.08397e-07
-5.33201e-06
-2.68129e-07
-4.56176e-06
-1.3549e-07
-3.46234e-06
-3.83769e-08
-2.13801e-06
-7.15568e-07
3.0942e-07
-1.64969e-06
2.77228e-07
-1.75581e-06
2.44128e-07
-1.86231e-06
2.10172e-07
-1.96903e-06
1.75416e-07
-2.0758e-06
1.39914e-07
-2.18243e-06
1.0371e-07
-2.2888e-06
6.68266e-08
-2.39485e-06
2.92449e-08
-2.50077e-06
-9.12394e-09
-2.60706e-06
-4.84736e-08
-2.71481e-06
-8.91397e-08
-2.82594e-06
-1.31636e-07
-2.94353e-06
-1.76663e-07
-3.07221e-06
-2.25055e-07
-3.21839e-06
-2.77634e-07
-3.39034e-06
-3.34903e-07
-3.59761e-06
-3.96568e-07
-3.84964e-06
-4.60868e-07
-4.15308e-06
-5.23844e-07
-4.50745e-06
-5.78752e-07
-4.89939e-06
-6.16038e-07
-5.29598e-06
-6.24403e-07
-5.63917e-06
-5.93479e-07
-5.84493e-06
-5.18168e-07
-5.81218e-06
-4.03467e-07
-5.44671e-06
-2.66944e-07
-4.69828e-06
-1.35701e-07
-3.59358e-06
-3.86372e-08
-2.23507e-06
-7.54205e-07
4.02514e-07
-1.61682e-06
3.68548e-07
-1.72184e-06
3.33525e-07
-1.82729e-06
2.97492e-07
-1.933e-06
2.60499e-07
-2.03881e-06
2.22601e-07
-2.14454e-06
1.83847e-07
-2.25004e-06
1.4427e-07
-2.35527e-06
1.03875e-07
-2.46037e-06
6.26071e-08
-2.56579e-06
2.03262e-08
-2.67253e-06
-2.32388e-08
-2.78238e-06
-6.8523e-08
-2.89825e-06
-1.16147e-07
-3.02458e-06
-1.66889e-07
-3.16765e-06
-2.21565e-07
-3.33567e-06
-2.80765e-07
-3.53841e-06
-3.44409e-07
-3.786e-06
-4.11096e-07
-4.08639e-06
-4.77335e-07
-4.44121e-06
-5.36861e-07
-4.83987e-06
-5.80421e-07
-5.25242e-06
-5.96606e-07
-5.62299e-06
-5.7434e-07
-5.86719e-06
-5.0724e-07
-5.87928e-06
-3.98874e-07
-5.55508e-06
-2.65992e-07
-4.83117e-06
-1.36013e-07
-3.72356e-06
-3.89116e-08
-2.33217e-06
-7.93117e-07
4.96613e-07
-1.58229e-06
4.60834e-07
-1.68607e-06
4.23843e-07
-1.7903e-06
3.8568e-07
-1.89484e-06
3.4639e-07
-1.99952e-06
3.06025e-07
-2.10417e-06
2.64638e-07
-2.20865e-06
2.22273e-07
-2.31291e-06
1.78953e-07
-2.41705e-06
1.34655e-07
-2.5215e-06
8.92854e-08
-2.62716e-06
4.26377e-08
-2.73573e-06
-5.64717e-09
-2.84996e-06
-5.61082e-08
-2.97412e-06
-1.09455e-07
-3.1143e-06
-1.6648e-07
-3.27864e-06
-2.27833e-07
-3.47705e-06
-2.93613e-07
-3.72022e-06
-3.62746e-07
-4.01726e-06
-4.32193e-07
-4.37176e-06
-4.96177e-07
-4.77588e-06
-5.45787e-07
-5.2028e-06
-5.69574e-07
-5.5992e-06
-5.55812e-07
-5.88096e-06
-4.96848e-07
-5.93824e-06
-3.94758e-07
-5.65717e-06
-2.65396e-07
-4.96053e-06
-1.36501e-07
-3.85246e-06
-3.92231e-08
-2.42945e-06
-8.3234e-07
5.91796e-07
-1.54606e-06
5.54165e-07
-1.64843e-06
5.15158e-07
-1.75129e-06
4.74808e-07
-1.85449e-06
4.33157e-07
-1.95787e-06
3.90254e-07
-2.06127e-06
3.46152e-07
-2.16455e-06
3.00904e-07
-2.26766e-06
2.54549e-07
-2.37069e-06
2.07095e-07
-2.47404e-06
1.58489e-07
-2.57856e-06
1.08586e-07
-2.68582e-06
5.71008e-08
-2.79848e-06
3.57821e-09
-2.9206e-06
-5.26161e-08
-3.05811e-06
-1.12235e-07
-3.21902e-06
-1.75961e-07
-3.41333e-06
-2.44042e-07
-3.65214e-06
-3.157e-07
-3.9456e-06
-3.88331e-07
-4.29913e-06
-4.56648e-07
-4.70756e-06
-5.12127e-07
-5.14733e-06
-5.43337e-07
-5.56799e-06
-5.37964e-07
-5.88633e-06
-4.87096e-07
-5.98911e-06
-3.91251e-07
-5.75301e-06
-2.65279e-07
-5.0865e-06
-1.37242e-07
-3.98049e-06
-3.95965e-08
-2.52709e-06
-8.71936e-07
6.88145e-07
-1.50809e-06
6.48618e-07
-1.60891e-06
6.07544e-07
-1.71022e-06
5.6495e-07
-1.81189e-06
5.20872e-07
-1.91379e-06
4.75355e-07
-2.01575e-06
4.28455e-07
-2.11765e-06
3.8023e-07
-2.21944e-06
3.30734e-07
-2.3212e-06
2.80001e-07
-2.42331e-06
2.28019e-07
-2.52658e-06
1.74699e-07
-2.6325e-06
1.19828e-07
-2.74361e-06
6.30342e-08
-2.86381e-06
3.76316e-09
-2.99884e-06
-5.86805e-08
-3.15658e-06
-1.24996e-07
-3.34701e-06
-1.95549e-07
-3.58158e-06
-2.69827e-07
-3.87132e-06
-3.45639e-07
-4.22332e-06
-4.18198e-07
-4.63501e-06
-4.79395e-07
-5.08613e-06
-5.17887e-07
-5.5295e-06
-5.20831e-07
-5.88338e-06
-4.78064e-07
-6.03187e-06
-3.88463e-07
-5.84261e-06
-2.65759e-07
-5.2092e-06
-1.38317e-07
-4.10793e-06
-4.00581e-08
-2.62535e-06
-9.11994e-07
7.85738e-07
-1.46836e-06
7.44269e-07
-1.56744e-06
7.01075e-07
-1.66702e-06
6.56176e-07
-1.76699e-06
6.09603e-07
-1.86721e-06
5.61397e-07
-1.96755e-06
5.11614e-07
-2.06787e-06
4.60318e-07
-2.16814e-06
4.07577e-07
-2.26846e-06
3.53448e-07
-2.36918e-06
2.97958e-07
-2.47108e-06
2.41068e-07
-2.57561e-06
1.82639e-07
-2.68518e-06
1.22381e-07
-2.80355e-06
5.98234e-08
-2.93628e-06
-5.66971e-09
-3.09109e-06
-7.47809e-08
-3.2779e-06
-1.47977e-07
-3.50839e-06
-2.24979e-07
-3.79432e-06
-3.03989e-07
-4.14431e-06
-3.8072e-07
-4.55828e-06
-4.47517e-07
-5.01933e-06
-4.93183e-07
-5.48383e-06
-5.04412e-07
-5.87215e-06
-4.698e-07
-6.06649e-06
-3.86493e-07
-5.92592e-06
-2.66948e-07
-5.32875e-06
-1.39807e-07
-4.23508e-06
-4.06364e-08
-2.72452e-06
-9.52631e-07
8.84648e-07
8.41189e-07
7.95821e-07
7.48555e-07
-1.71973e-06
6.99416e-07
-1.81808e-06
6.48444e-07
-1.91657e-06
5.95693e-07
-2.01512e-06
5.41234e-07
-2.11368e-06
4.85147e-07
-2.21237e-06
4.2751e-07
-2.31154e-06
3.68386e-07
-2.41196e-06
3.07788e-07
-2.51502e-06
2.45642e-07
-2.62303e-06
1.81741e-07
-2.73965e-06
1.15701e-07
-2.87024e-06
4.696e-08
-3.02234e-06
-2.51489e-08
-3.20579e-06
-1.01154e-07
-3.43238e-06
-1.80989e-07
-3.71448e-06
-2.63228e-07
-4.06207e-06
-3.44082e-07
-4.47742e-06
-4.16385e-07
-4.94703e-06
-4.6915e-07
-5.43107e-06
-4.88674e-07
-5.85263e-06
-4.62323e-07
-6.09284e-06
-3.85415e-07
-6.00283e-06
-2.68956e-07
-5.44521e-06
-1.41799e-07
-4.36223e-06
-4.13616e-08
-2.82496e-06
-9.93992e-07
8.42145e-07
-1.67003e-06
7.9037e-07
-1.7663e-06
7.36555e-07
-1.86276e-06
6.80753e-07
-1.95932e-06
6.23041e-07
-2.05597e-06
5.63509e-07
-2.15284e-06
5.02259e-07
-2.25029e-06
4.39386e-07
-2.34909e-06
3.74951e-07
-2.45058e-06
3.08947e-07
-2.55703e-06
2.41243e-07
-2.67194e-06
1.71545e-07
-2.80054e-06
9.93657e-08
-2.95016e-06
2.40784e-08
-3.13051e-06
-5.48958e-08
-3.35341e-06
-1.37673e-07
-3.63171e-06
-2.23179e-07
-3.97657e-06
-3.08122e-07
-4.39248e-06
-3.85857e-07
-4.86929e-06
-4.45673e-07
-5.37125e-06
-4.73541e-07
-5.82476e-06
-4.55617e-07
-6.11076e-06
-3.85283e-07
-6.07316e-06
-2.71882e-07
-5.55861e-06
-1.44378e-07
-4.48974e-06
-4.22663e-08
-2.92707e-06
-1.03626e-06
9.36999e-07
-1.61784e-06
8.82518e-07
-1.71182e-06
8.25783e-07
-1.80602e-06
7.6685e-07
-1.90038e-06
7.05798e-07
-1.99492e-06
6.42731e-07
-2.08977e-06
5.77771e-07
-2.18533e-06
5.11044e-07
-2.28236e-06
4.4266e-07
-2.3822e-06
3.7267e-07
-2.48704e-06
3.01023e-07
-2.6003e-06
2.27511e-07
-2.72703e-06
1.51728e-07
-2.87438e-06
7.30952e-08
-3.05187e-06
-8.99918e-09
-3.27131e-06
-9.48231e-08
-3.54588e-06
-1.83638e-07
-3.88775e-06
-2.72647e-07
-4.30347e-06
-3.55754e-07
-4.78619e-06
-4.22596e-07
-5.30441e-06
-4.58896e-07
-5.78846e-06
-4.49627e-07
-6.12003e-06
-3.86124e-07
-6.13666e-06
-2.75819e-07
-5.66891e-06
-1.47636e-07
-4.61792e-06
-4.33857e-08
-3.03132e-06
-1.07964e-06
1.03315e-06
-1.56308e-06
9.759e-07
-1.65457e-06
9.16173e-07
-1.7463e-06
8.54031e-07
-1.83824e-06
7.89561e-07
-1.93045e-06
7.22877e-07
-2.02309e-06
6.54121e-07
-2.11658e-06
5.83451e-07
-2.21169e-06
5.1102e-07
-2.30977e-06
4.36939e-07
-2.41296e-06
3.61232e-07
-2.52459e-06
2.83775e-07
-2.64957e-06
2.04245e-07
-2.79485e-06
1.22119e-07
-2.96975e-06
3.67741e-08
-3.18597e-06
-5.22001e-08
-3.45691e-06
-1.44369e-07
-3.79558e-06
-2.37427e-07
-4.21041e-06
-3.25858e-07
-4.69776e-06
-3.99719e-07
-5.23055e-06
-4.44577e-07
-5.7436e-06
-4.44254e-07
-6.12036e-06
-3.87931e-07
-6.19299e-06
-2.80843e-07
-5.776e-06
-1.51664e-07
-4.7471e-06
-4.47579e-08
-3.13823e-06
-1.1244e-06
1.13063e-06
-1.50571e-06
1.07054e-06
-1.59447e-06
1.00776e-06
-1.68351e-06
9.42339e-07
-1.77283e-06
8.74382e-07
-1.86249e-06
8.04011e-07
-1.95272e-06
7.3139e-07
-2.04395e-06
6.56705e-07
-2.13701e-06
5.80152e-07
-2.23321e-06
5.01899e-07
-2.3347e-06
4.2204e-07
-2.44473e-06
3.40533e-07
-2.56807e-06
2.5714e-07
-2.71146e-06
1.71396e-07
-2.884e-06
8.26793e-08
-3.09725e-06
-9.53498e-09
-3.36469e-06
-1.05097e-07
-3.70002e-06
-2.0219e-07
-4.11332e-06
-2.95905e-07
-4.60404e-06
-3.76792e-07
-5.14966e-06
-4.30364e-07
-5.69003e-06
-4.39349e-07
-6.11137e-06
-3.9066e-07
-6.24168e-06
-2.87019e-07
-5.87964e-06
-1.56557e-07
-4.87756e-06
-4.64241e-08
-3.24836e-06
-1.17083e-06
1.22944e-06
-1.44566e-06
1.16645e-06
-1.53148e-06
1.10056e-06
-1.61761e-06
1.03181e-06
-1.70408e-06
9.60309e-07
-1.79099e-06
8.86201e-07
-1.87861e-06
8.09665e-07
-1.96742e-06
7.30918e-07
-2.05826e-06
6.50194e-07
-2.15249e-06
5.67717e-07
-2.25223e-06
4.83645e-07
-2.36066e-06
3.98015e-07
-2.48244e-06
3.10671e-07
-2.62411e-06
2.21211e-07
-2.79454e-06
1.29026e-07
-3.00507e-06
3.34955e-08
-3.26916e-06
-6.55001e-08
-3.60103e-06
-1.66615e-07
-4.0122e-06
-2.65578e-07
-4.50508e-06
-3.53509e-07
-5.06173e-06
-4.15982e-07
-5.62756e-06
-4.34702e-07
-6.09265e-06
-3.94219e-07
-6.28216e-06
-2.94386e-07
-5.97947e-06
-1.62411e-07
-5.00954e-06
-4.84289e-08
-3.36234e-06
-1.21926e-06
1.32955e-06
-1.3829e-06
1.26363e-06
-1.46556e-06
1.19458e-06
-1.54856e-06
1.12246e-06
-1.63196e-06
1.04739e-06
-1.71592e-06
9.69518e-07
-1.80074e-06
8.89046e-07
-1.88695e-06
8.06219e-07
-1.97543e-06
7.2131e-07
-2.06758e-06
6.3459e-07
-2.16551e-06
5.46282e-07
-2.27235e-06
4.56494e-07
-2.39265e-06
3.65145e-07
-2.53277e-06
2.71902e-07
-2.7013e-06
1.76173e-07
-2.90934e-06
7.72602e-08
-3.17025e-06
-2.51997e-08
-3.49857e-06
-1.30324e-07
-3.90708e-06
-2.34499e-07
-4.4009e-06
-3.295e-07
-4.96673e-06
-4.01086e-07
-5.55597e-06
-4.30039e-07
-6.0637e-06
-3.98463e-07
-6.31374e-06
-3.02957e-07
-6.07498e-06
-1.6932e-07
-5.14317e-06
-5.0821e-08
-3.48084e-06
-1.27008e-06
1.43092e-06
-1.31739e-06
1.36204e-06
-1.39668e-06
1.28981e-06
-1.47634e-06
1.21432e-06
-1.55647e-06
1.13568e-06
-1.63727e-06
1.05405e-06
-1.71911e-06
9.69652e-07
-1.80255e-06
8.82768e-07
-1.88855e-06
7.937e-07
-1.97851e-06
7.02764e-07
-2.07457e-06
6.10238e-07
-2.17982e-06
5.16298e-07
-2.29871e-06
4.20934e-07
-2.4374e-06
3.23874e-07
-2.60424e-06
2.24551e-07
-2.81001e-06
1.22206e-07
-3.06791e-06
1.62558e-08
-3.39262e-06
-9.28651e-08
-3.79796e-06
-2.02221e-07
-4.29155e-06
-3.04318e-07
-4.86463e-06
-3.8525e-07
-5.47504e-06
-4.25002e-07
-6.02395e-06
-4.03177e-07
-6.33556e-06
-3.12706e-07
-6.16545e-06
-1.77378e-07
-5.2785e-06
-5.36534e-08
-3.60457e-06
-1.32373e-06
1.53348e-06
-1.24913e-06
1.46164e-06
-1.32484e-06
1.38626e-06
-1.40096e-06
1.30741e-06
-1.47762e-06
1.22523e-06
-1.55509e-06
1.13989e-06
-1.63377e-06
1.05163e-06
-1.7143e-06
9.60764e-07
-1.79768e-06
8.67615e-07
-1.88536e-06
7.72542e-07
-1.9795e-06
6.75871e-07
-2.08315e-06
5.77836e-07
-2.20067e-06
4.78489e-07
-2.33805e-06
3.77616e-07
-2.50337e-06
2.7468e-07
-2.70708e-06
1.6887e-07
-2.9621e-06
5.94078e-08
-3.28315e-06
-5.37e-08
-3.68485e-06
-1.68207e-07
-4.17704e-06
-2.77433e-07
-4.75541e-06
-3.67962e-07
-5.38451e-06
-4.19146e-07
-5.97276e-06
-4.08067e-07
-6.34664e-06
-3.23565e-07
-6.24995e-06
-1.86676e-07
-5.41539e-06
-5.69849e-08
-3.73426e-06
-1.38071e-06
1.63713e-06
-1.17814e-06
1.56238e-06
-1.25008e-06
1.48389e-06
-1.32247e-06
1.40176e-06
-1.39549e-06
1.31613e-06
-1.46945e-06
1.22718e-06
-1.54482e-06
1.13519e-06
-1.62231e-06
1.04047e-06
-1.70295e-06
9.43378e-07
-1.78827e-06
8.4431e-07
-1.88043e-06
7.43629e-07
-1.98247e-06
6.41613e-07
-2.09866e-06
5.38369e-07
-2.23481e-06
4.33732e-07
-2.39873e-06
3.27193e-07
-2.60054e-06
2.17903e-07
-2.85281e-06
1.0491e-07
-3.17016e-06
-1.21804e-08
-3.56776e-06
-1.31816e-07
-4.0574e-06
-2.48209e-07
-4.63901e-06
-3.48601e-07
-5.28412e-06
-4.11917e-07
-5.90945e-06
-4.12744e-07
-6.34581e-06
-3.35402e-07
-6.3273e-06
-1.97297e-07
-5.5535e-06
-6.08825e-08
-3.87067e-06
-1.4416e-06
1.74177e-06
-1.10449e-06
1.66419e-06
-1.1725e-06
1.58271e-06
-1.24099e-06
1.49743e-06
-1.31021e-06
1.40849e-06
-1.38052e-06
1.31612e-06
-1.45245e-06
1.22059e-06
-1.52677e-06
1.12222e-06
-1.60459e-06
1.02141e-06
-1.68746e-06
9.18566e-07
-1.77758e-06
8.14081e-07
-1.87799e-06
7.08267e-07
-1.99284e-06
6.01272e-07
-2.12782e-06
4.92969e-07
-2.29043e-06
3.82872e-07
-2.49044e-06
2.70104e-07
-2.74004e-06
1.53561e-07
-3.05362e-06
3.24751e-08
-3.44667e-06
-9.22829e-08
-3.93265e-06
-2.15889e-07
-4.51541e-06
-3.26425e-07
-5.17358e-06
-4.02635e-07
-5.83324e-06
-4.16707e-07
-6.33174e-06
-3.48017e-07
-6.39598e-06
-2.09318e-07
-5.6922e-06
-6.54263e-08
-4.01456e-06
-1.50702e-06
1.8473e-06
-1.02832e-06
1.76704e-06
-1.09223e-06
1.68274e-06
-1.1567e-06
1.59452e-06
-1.22199e-06
1.50253e-06
-1.28853e-06
1.40699e-06
-1.35692e-06
1.30819e-06
-1.42798e-06
1.20649e-06
-1.50288e-06
1.10227e-06
-1.58324e-06
9.95955e-07
-1.67127e-06
8.87958e-07
-1.76999e-06
7.78608e-07
-1.8835e-06
6.68074e-07
-2.01728e-06
5.56257e-07
-2.17861e-06
4.42685e-07
-2.37687e-06
3.26458e-07
-2.62381e-06
2.06343e-07
-2.9335e-06
8.12314e-08
-3.32156e-06
-4.8698e-08
-3.80272e-06
-1.79556e-07
-4.38455e-06
-3.0054e-07
-5.0526e-06
-3.90478e-07
-5.7433e-06
-4.19319e-07
-6.3029e-06
-3.61122e-07
-6.45418e-06
-2.22805e-07
-5.83051e-06
-7.07181e-08
-4.16665e-06
-1.57774e-06
1.95363e-06
-9.49823e-07
1.87093e-06
-1.00953e-06
1.78409e-06
-1.06986e-06
1.69323e-06
-1.13113e-06
1.59852e-06
-1.19382e-06
1.50019e-06
-1.25859e-06
1.39853e-06
-1.32632e-06
1.2939e-06
-1.39825e-06
1.18669e-06
-1.47603e-06
1.07732e-06
-1.5619e-06
9.662e-07
-1.65887e-06
8.53663e-07
-1.77096e-06
7.39879e-07
-1.9035e-06
6.24758e-07
-2.06349e-06
5.07833e-07
-2.25994e-06
3.8818e-07
-2.50416e-06
2.64461e-07
-2.80978e-06
1.3529e-07
-3.19239e-06
2.6364e-10
-3.66769e-06
-1.3809e-07
-4.2462e-06
-2.69888e-07
-4.9208e-06
-3.74455e-07
-5.63873e-06
-4.19789e-07
-6.25757e-06
-3.74318e-07
-6.49965e-06
-2.37814e-07
-5.96702e-06
-7.68957e-08
-4.32757e-06
-1.65464e-06
2.06078e-06
-8.69303e-07
1.97598e-06
-9.24738e-07
1.88699e-06
-9.80862e-07
1.79392e-06
-1.03806e-06
1.69696e-06
-1.09686e-06
1.59633e-06
-1.15796e-06
1.49234e-06
-1.22232e-06
1.38532e-06
-1.29123e-06
1.27566e-06
-1.36637e-06
1.16376e-06
-1.45001e-06
1.05002e-06
-1.54513e-06
9.34745e-07
-1.65568e-06
8.18084e-07
-1.78684e-06
6.99936e-07
-1.94534e-06
5.7982e-07
-2.13983e-06
4.56786e-07
-2.38112e-06
3.29403e-07
-2.6824e-06
1.96003e-07
-3.05899e-06
5.55229e-08
-3.52721e-06
-9.02629e-08
-4.10041e-06
-2.33195e-07
-4.77787e-06
-3.53362e-07
-5.51856e-06
-4.1713e-07
-6.1938e-06
-3.87073e-07
-6.52971e-06
-2.54383e-07
-6.0997e-06
-8.41554e-08
-4.4978e-06
-1.73879e-06
2.16891e-06
-7.87191e-07
2.08249e-06
-8.38326e-07
1.99187e-06
-8.90239e-07
1.89717e-06
-9.43357e-07
1.79857e-06
-9.98254e-07
1.69629e-06
-1.05569e-06
1.59064e-06
-1.11667e-06
1.48192e-06
-1.18251e-06
1.37049e-06
-1.25495e-06
1.25674e-06
-1.33625e-06
1.141e-06
-1.42939e-06
1.02353e-06
-1.53821e-06
9.04457e-07
-1.66776e-06
7.83627e-07
-1.82451e-06
6.60531e-07
-2.01673e-06
5.34177e-07
-2.25477e-06
4.03052e-07
-2.55128e-06
2.6527e-07
-2.92121e-06
1.19262e-07
-3.3812e-06
-3.43405e-08
-3.94681e-06
-1.88888e-07
-4.62332e-06
-3.25736e-07
-5.38172e-06
-4.10117e-07
-6.10942e-06
-3.98683e-07
-6.54115e-06
-2.72524e-07
-6.22586e-06
-9.2783e-08
-4.67754e-06
-1.83158e-06
2.27845e-06
-7.04075e-07
2.19107e-06
-7.50942e-07
2.09951e-06
-7.98683e-07
2.00392e-06
-8.47763e-07
1.90446e-06
-8.98798e-07
1.80137e-06
-9.52591e-07
1.69488e-06
-1.01018e-06
1.58531e-06
-1.07294e-06
1.47296e-06
-1.1426e-06
1.35815e-06
-1.22144e-06
1.24115e-06
-1.31239e-06
1.12217e-06
-1.41923e-06
1.00124e-06
-1.54683e-06
8.78145e-07
-1.70142e-06
7.52321e-07
-1.89091e-06
6.22718e-07
-2.12517e-06
4.87743e-07
-2.4163e-06
3.45325e-07
-2.77879e-06
1.93428e-07
-3.22931e-06
3.16382e-08
-3.78502e-06
-1.35092e-07
-4.45659e-06
-2.89795e-07
-5.22701e-06
-3.97226e-07
-6.00199e-06
-4.08221e-07
-6.53015e-06
-2.92204e-07
-6.34188e-06
-1.03192e-07
-4.86655e-06
-1.93477e-06
2.39032e-06
-6.2073e-07
2.3028e-06
-6.6342e-07
2.2112e-06
-7.07082e-07
2.11565e-06
-7.52215e-07
2.01632e-06
-7.99466e-07
1.9134e-06
-8.49669e-07
1.80711e-06
-9.03897e-07
1.6977e-06
-9.63525e-07
1.58541e-06
-1.03031e-06
1.47049e-06
-1.10652e-06
1.35312e-06
-1.19502e-06
1.2334e-06
-1.29951e-06
1.11126e-06
-1.42469e-06
9.864e-07
-1.57656e-06
8.58147e-07
-1.76266e-06
7.25375e-07
-1.9924e-06
5.86401e-07
-2.27733e-06
4.38995e-07
-2.63138e-06
2.8071e-07
-3.07102e-06
1.10158e-07
-3.61447e-06
-6.94818e-08
-4.27695e-06
-2.43309e-07
-5.05319e-06
-3.76537e-07
-5.86876e-06
-4.14453e-07
-6.49224e-06
-3.13288e-07
-6.44304e-06
-1.15955e-07
-5.06388e-06
-2.05072e-06
2.50614e-06
-5.38152e-07
2.41954e-06
-5.76811e-07
2.32899e-06
-6.16538e-07
2.23463e-06
-6.57855e-07
2.13659e-06
-7.0143e-07
2.03504e-06
-7.48115e-07
1.93014e-06
-7.98996e-07
1.82207e-06
-8.55452e-07
1.71099e-06
-9.19236e-07
1.59704e-06
-9.92569e-07
1.48029e-06
-1.07828e-06
1.36072e-06
-1.17994e-06
1.23812e-06
-1.30209e-06
1.11205e-06
-1.45048e-06
9.81708e-07
-1.63231e-06
8.45853e-07
-1.85654e-06
7.02688e-07
-2.13416e-06
5.49831e-07
-2.47853e-06
3.845e-07
-2.90569e-06
2.04494e-07
-3.43446e-06
1.12839e-08
-4.08374e-06
-1.83504e-07
-4.8584e-06
-3.45629e-07
-5.70663e-06
-4.15701e-07
-6.42216e-06
-3.35447e-07
-6.5233e-06
-1.31824e-07
-5.26751e-06
-2.18255e-06
2.62864e-06
-4.57573e-07
2.54422e-06
-4.92393e-07
2.45605e-06
-5.28367e-07
2.36423e-06
-5.66027e-07
2.26885e-06
-6.06049e-07
2.17002e-06
-6.49289e-07
2.06785e-06
-6.9683e-07
1.96244e-06
-7.50036e-07
1.85384e-06
-8.10633e-07
1.74206e-06
-8.80793e-07
1.62704e-06
-9.63258e-07
1.50859e-06
-1.06149e-06
1.38635e-06
-1.17985e-06
1.25968e-06
-1.32382e-06
1.12763e-06
-1.50026e-06
9.88781e-07
-1.71769e-06
8.41189e-07
-1.98657e-06
6.82303e-07
-2.31964e-06
5.09047e-07
-2.73243e-06
3.18416e-07
-3.24383e-06
1.09913e-07
-3.87524e-06
-1.07211e-07
-4.64127e-06
-3.01278e-07
-5.51257e-06
-4.09616e-07
-6.31382e-06
-3.57982e-07
-6.57493e-06
-1.51695e-07
-5.47379e-06
-2.33424e-06
2.76215e-06
-3.80452e-07
2.68141e-06
-4.11657e-07
2.59712e-06
-4.44078e-07
2.50934e-06
-4.78247e-07
2.41813e-06
-5.14835e-07
2.32353e-06
-5.54686e-07
2.22556e-06
-5.98861e-07
2.12422e-06
-6.48694e-07
2.01944e-06
-7.05858e-07
1.9111e-06
-7.72456e-07
1.79897e-06
-8.51129e-07
1.68268e-06
-9.45194e-07
1.56165e-06
-1.05882e-06
1.43504e-06
-1.19721e-06
1.30168e-06
-1.3669e-06
1.15993e-06
-1.57594e-06
1.00763e-06
-1.83427e-06
8.42031e-07
-2.15404e-06
6.59768e-07
-2.55017e-06
4.57218e-07
-3.04128e-06
2.32461e-07
-3.65048e-06
-8.30425e-09
-4.40051e-06
-2.39136e-07
-5.28174e-06
-3.9295e-07
-6.16001e-06
-3.79557e-07
-6.58833e-06
-1.76488e-07
-5.67686e-06
-2.51073e-06
2.91326e-06
-3.08431e-07
2.83785e-06
-3.36243e-07
2.75908e-06
-3.65303e-07
2.67696e-06
-3.9613e-07
2.5915e-06
-4.29374e-07
2.50266e-06
-4.65852e-07
2.41039e-06
-5.06587e-07
2.31455e-06
-5.52859e-07
2.21496e-06
-6.0627e-07
2.11134e-06
-6.68828e-07
2.00326e-06
-7.43047e-07
1.89014e-06
-8.32077e-07
1.77118e-06
-9.3986e-07
1.6453e-06
-1.07133e-06
1.51102e-06
-1.23262e-06
1.36644e-06
-1.43136e-06
1.20913e-06
-1.67696e-06
1.03604e-06
-1.98095e-06
8.43489e-07
-2.35762e-06
6.27304e-07
-2.82509e-06
3.83935e-07
-3.40711e-06
1.15535e-07
-4.13211e-06
-1.54474e-07
-5.01173e-06
-3.60987e-07
-5.9535e-06
-3.97656e-07
-6.55166e-06
-2.06846e-07
-5.86767e-06
-2.71758e-06
3.09164e-06
-2.43217e-07
3.02323e-06
-2.67829e-07
2.95161e-06
-2.9368e-07
2.87674e-06
-3.21265e-07
2.79857e-06
-3.51202e-07
2.71698e-06
-3.84263e-07
2.63181e-06
-4.21416e-07
2.54282e-06
-4.63867e-07
2.44967e-06
-5.13125e-07
2.35192e-06
-5.71076e-07
2.24895e-06
-6.40078e-07
2.13995e-06
-7.23081e-07
2.02387e-06
-8.23775e-07
1.89931e-06
-9.46769e-07
1.7645e-06
-1.09781e-06
1.61717e-06
-1.28404e-06
1.45451e-06
-1.5143e-06
1.2731e-06
-1.79954e-06
1.06887e-06
-2.15339e-06
8.37094e-07
-2.59331e-06
5.72939e-07
-3.14296e-06
2.75503e-07
-3.83467e-06
-3.78798e-08
-4.69834e-06
-3.06799e-07
-5.68458e-06
-4.08013e-07
-6.45044e-06
-2.42586e-07
-6.0331e-06
-2.96016e-06
3.31085e-06
-1.86396e-07
3.25096e-06
-2.07934e-07
3.18794e-06
-2.30659e-07
3.12171e-06
-2.55032e-07
3.05213e-06
-2.81624e-07
2.97902e-06
-3.11152e-07
2.90211e-06
-3.44507e-07
2.82104e-06
-3.82803e-07
2.73535e-06
-4.27432e-07
2.6444e-06
-4.80131e-07
2.5474e-06
-5.4307e-07
2.44328e-06
-6.18964e-07
2.33071e-06
-7.11207e-07
2.20798e-06
-8.24041e-07
2.07294e-06
-9.62768e-07
1.92291e-06
-1.134e-06
1.7546e-06
-1.34599e-06
1.56409e-06
-1.60902e-06
1.34674e-06
-1.93605e-06
1.09723e-06
-2.3438e-06
8.09638e-07
-2.85536e-06
4.798e-07
-3.50483e-06
1.17401e-07
-4.33595e-06
-2.21755e-07
-5.34542e-06
-4.03605e-07
-6.26859e-06
-2.81791e-07
-6.15491e-06
-3.24195e-06
3.58911e-06
-1.39148e-07
3.53882e-06
-1.57651e-07
3.48541e-06
-1.77249e-07
3.42874e-06
-1.98356e-07
3.3686e-06
-2.21488e-07
3.30474e-06
-2.47289e-07
3.23679e-06
-2.76563e-07
3.1643e-06
-3.1031e-07
3.08665e-06
-3.49781e-07
3.00306e-06
-3.96536e-07
2.91251e-06
-4.52524e-07
2.81373e-06
-5.20181e-07
2.70508e-06
-6.02558e-07
2.58451e-06
-7.03476e-07
2.44947e-06
-8.27726e-07
2.29679e-06
-9.81319e-07
2.12261e-06
-1.17182e-06
1.92236e-06
-1.40877e-06
1.69067e-06
-1.70437e-06
1.42142e-06
-2.07455e-06
1.10761e-06
-2.54155e-06
7.42219e-07
-3.13944e-06
3.27581e-07
-3.92131e-06
-9.01503e-08
-4.92769e-06
-3.73061e-07
-5.98568e-06
-3.19651e-07
-6.20832e-06
-3.5616e-06
3.94952e-06
-1.01908e-07
3.9092e-06
-1.1733e-07
3.86567e-06
-1.33718e-07
3.81874e-06
-1.51433e-07
3.76818e-06
-1.70925e-07
3.71365e-06
-1.92757e-07
3.65471e-06
-2.17626e-07
3.59081e-06
-2.46405e-07
3.5212e-06
-2.80178e-07
3.44497e-06
-3.203e-07
3.36091e-06
-3.68465e-07
3.26752e-06
-4.26789e-07
3.16288e-06
-4.97926e-07
3.04461e-06
-5.85205e-07
2.90972e-06
-6.92829e-07
2.7545e-06
-8.26101e-07
2.57446e-06
-9.91783e-07
2.36422e-06
-1.19853e-06
2.11748e-06
-1.45763e-06
1.82702e-06
-1.78409e-06
1.48463e-06
-2.19916e-06
1.08088e-06
-2.7357e-06
6.1072e-07
-3.45114e-06
1.04944e-07
-4.42192e-06
-3.00773e-07
-5.57996e-06
-3.47511e-07
-6.16159e-06
-3.90911e-06
4.41937e-06
-7.40267e-08
4.38831e-06
-8.6271e-08
4.35392e-06
-9.93266e-08
4.31598e-06
-1.13496e-07
4.27421e-06
-1.29155e-07
4.22823e-06
-1.46773e-07
4.17753e-06
-1.66931e-07
4.12148e-06
-1.90354e-07
4.05925e-06
-2.17944e-07
3.98977e-06
-2.50825e-07
3.91171e-06
-2.90402e-07
3.82335e-06
-3.38429e-07
3.72253e-06
-3.97111e-07
3.60654e-06
-4.69216e-07
3.47198e-06
-5.58264e-07
3.3146e-06
-6.68725e-07
3.12922e-06
-8.06402e-07
2.90953e-06
-9.78833e-07
2.64808e-06
-1.19617e-06
2.3362e-06
-1.47222e-06
1.96413e-06
-1.82709e-06
1.52021e-06
-2.29177e-06
9.92187e-07
-2.92312e-06
3.9045e-07
-3.82018e-06
-1.59544e-07
-5.02997e-06
-3.52776e-07
-5.96835e-06
-4.26189e-06
5.02762e-06
-5.35966e-08
5.00394e-06
-6.25947e-08
4.97685e-06
-7.22353e-08
4.94611e-06
-8.27565e-08
4.91141e-06
-9.44541e-08
4.87233e-06
-1.07695e-07
4.82834e-06
-1.22934e-07
4.77872e-06
-1.40738e-07
4.72259e-06
-1.61809e-07
4.65878e-06
-1.87022e-07
4.58585e-06
-2.17465e-07
4.50192e-06
-2.54499e-07
4.40464e-06
-2.99834e-07
4.29104e-06
-3.55615e-07
4.15737e-06
-4.24591e-07
3.99891e-06
-5.10263e-07
3.80979e-06
-6.17285e-07
3.58273e-06
-7.51776e-07
3.30895e-06
-9.22389e-07
2.97791e-06
-1.14118e-06
2.57763e-06
-1.4268e-06
2.0939e-06
-1.80804e-06
1.5093e-06
-2.33853e-06
8.13122e-07
-3.124e-06
9.71978e-08
-4.31405e-06
-3.02532e-07
-5.56862e-06
-4.56442e-06
5.80031e-06
-3.76742e-08
5.78122e-06
-4.35021e-08
5.75878e-06
-4.9798e-08
5.73276e-06
-5.67322e-08
5.70282e-06
-6.45154e-08
5.66853e-06
-7.34081e-08
5.62933e-06
-8.37334e-08
5.58448e-06
-9.58903e-08
5.53305e-06
-1.10375e-07
5.47382e-06
-1.27798e-07
5.40529e-06
-1.48927e-07
5.32549e-06
-1.74704e-07
5.23198e-06
-2.06326e-07
5.12164e-06
-2.45274e-07
4.99053e-06
-2.93476e-07
4.83362e-06
-3.53354e-07
4.64457e-06
-4.28242e-07
4.41529e-06
-5.22496e-07
4.13564e-06
-6.42741e-07
3.79282e-06
-7.98352e-07
3.37155e-06
-1.00554e-06
2.85325e-06
-1.28974e-06
2.21593e-06
-1.7012e-06
1.43028e-06
-2.33836e-06
5.40929e-07
-3.42469e-06
-1.14691e-07
-4.913e-06
-4.67911e-06
6.75447e-06
-2.32464e-08
6.73722e-06
-2.6256e-08
6.71698e-06
-2.9558e-08
6.69351e-06
-3.32541e-08
6.66646e-06
-3.74698e-08
6.63541e-06