/*--------------------------------*- C++ -*----------------------------------*\
  =========                 |
  \\      /  F ield         | OpenFOAM: The Open Source CFD Toolbox
   \\    /   O peration     | Website:  https://openfoam.org
    \\  /    A nd           | Version:  9
     \\/     M anipulation  |
\*---------------------------------------------------------------------------*/
FoamFile
{
    format      ascii;
    class       volScalarField;
    location    "2.75";
    object      p;
}
// * * * * * * * * * * * * * * * * * * * * * * * * * * * * * * * * * * * * * //

dimensions      [0 2 -2 0 0 0 0];

internalField   nonuniform List<scalar> 
1250
(
3.76293e-08
1.95653e-05
3.09546e-05
2.99028e-05
1.29394e-05
-2.09743e-05
-7.1224e-05
-0.000136445
-0.000215014
-0.000305321
-0.000405935
-0.000515695
-0.00063375
-0.00075958
-0.00089296
-0.00103393
-0.00118271
-0.00133969
-0.0015053
-0.00167997
-0.00186409
-0.00205792
-0.00226158
-0.00247498
-0.00269781
-0.0029295
-0.00316921
-0.0034158
-0.0036678
-1.91989e-05
3.21378e-07
7.22128e-06
1.70574e-06
-1.72928e-05
-5.06938e-05
-9.8286e-05
-0.000159195
-0.000232274
-0.000316323
-0.000410227
-0.000513053
-0.00062406
-0.000742842
-0.00086918
-0.00100308
-0.00114471
-0.00129438
-0.00145244
-0.00161925
-0.00179513
-0.00198031
-0.00217489
-0.0023788
-0.00259176
-0.00281328
-0.00304261
-0.00327873
-0.00352031
-3.05059e-05
-6.45689e-06
3.46569e-07
-6.52886e-06
-2.62544e-05
-5.93511e-05
-0.000105555
-0.000164067
-0.000233889
-0.000313981
-0.000403372
-0.000501241
-0.000607016
-0.00072028
-0.00084088
-0.00096885
-0.00110437
-0.00124775
-0.00139933
-0.00155949
-0.00172855
-0.00190676
-0.00209425
-0.002291
-0.00249683
-0.00271131
-0.00293382
-0.00316346
-0.00339905
-2.95696e-05
-1.00264e-06
6.71936e-06
-6.07627e-07
-2.08097e-05
-5.39559e-05
-9.95584e-05
-0.000156716
-0.000224424
-0.000301685
-0.000387595
-0.000481417
-0.000582626
-0.000690909
-0.000806175
-0.000928519
-0.00105819
-0.00119553
-0.00134096
-0.0014949
-0.00165774
-0.00182981
-0.00201132
-0.00220236
-0.00240283
-0.00261247
-0.00283078
-0.003057
-0.00329013
-1.25683e-05
1.79689e-05
2.5668e-05
1.74747e-05
-3.64363e-06
-3.73813e-05
-8.30137e-05
-0.0001395
-0.000205777
-0.000280842
-0.000363826
-0.000454051
-0.000551061
-0.000654636
-0.000764774
-0.000881668
-0.00100566
-0.00113722
-0.00127685
-0.00142509
-0.00158244
-0.00174937
-0.00192623
-0.00211324
-0.00231048
-0.00251786
-0.00273504
-0.00296147
-0.00319629
2.22249e-05
5.18724e-05
5.81354e-05
4.82395e-05
2.54905e-05
-9.5202e-06
-5.58599e-05
-0.000112352
-0.000177861
-0.000251365
-0.000332017
-0.000419193
-0.000512518
-0.000611874
-0.00071738
-0.000829361
-0.000948309
-0.00107483
-0.00120961
-0.00135334
-0.00150672
-0.00167038
-0.00184487
-0.00203065
-0.00222799
-0.00243701
-0.00265759
-0.00288937
-0.00313167
7.51439e-05
0.000101209
0.000104514
9.19065e-05
6.66908e-05
2.96761e-05
-1.80419e-05
-7.51838e-05
-0.000140558
-0.000213129
-0.000292079
-0.000376849
-0.000467161
-0.000563026
-0.000664715
-0.000772726
-0.000887742
-0.00101058
-0.00114213
-0.00128334
-0.00143514
-0.00159841
-0.00177399
-0.00196256
-0.00216469
-0.00238074
-0.0026108
-0.00285472
-0.00311193
0.000145878
0.000165906
0.000164756
0.000148389
0.00011986
8.01397e-05
3.04171e-05
-2.79588e-05
-9.37903e-05
-0.000166052
-0.000243978
-0.000327098
-0.000415263
-0.000508643
-0.0006077
-0.000713153
-0.000825926
-0.000947101
-0.00107786
-0.00121944
-0.0013731
-0.00154003
-0.00172139
-0.00191819
-0.00213129
-0.0023613
-0.00260855
-0.00287302
-0.00315422
0.000233769
0.000245529
0.000238528
0.00021742
0.000184808
0.000141763
8.94537e-05
2.93188e-05
-3.75397e-05
-0.000110148
-0.000187823
-0.000270225
-0.000357368
-0.000449625
-0.000547696
-0.000652571
-0.000765477
-0.000887825
-0.00102115
-0.00116707
-0.00132719
-0.00150314
-0.00169641
-0.00190837
-0.00214019
-0.00239273
-0.00266649
-0.00296152
-0.00327731
0.000337862
0.000339305
0.000325193
0.000298486
0.000261123
0.000214196
0.000158891
9.64717e-05
2.79923e-05
-4.56912e-05
-0.000124041
-0.000206891
-0.000294468
-0.000387398
-0.000486674
-0.000593616
-0.00070982
-0.000837096
-0.0009774
-0.00113278
-0.00130531
-0.00149701
-0.00170981
-0.00194542
-0.0022053
-0.0024905
-0.00280161
-0.00313863
-0.00350088
0.000456867
0.000446086
0.000423748
0.000390736
0.000348098
0.000296876
0.000238152
0.000172957
0.00010222
2.66078e-05
-5.35466e-05
-0.000138308
-0.000228174
-0.000324081
-0.000427379
-0.000539786
-0.000663333
-0.000800298
-0.000953125
-0.00112436
-0.00131656
-0.00153221
-0.00177363
-0.00204289
-0.00234163
-0.00267101
-0.00303159
-0.00342318
-0.00384477
0.000589129
0.000564283
0.000532757
0.000492879
0.000444573
0.000388731
0.000326196
0.000257739
0.000184019
0.000105449
2.20972e-05
-6.63993e-05
-0.000160873
-0.00026264
-0.000373475
-0.000495565
-0.000631446
-0.000783928
-0.000956002
-0.00115075
-0.00137124
-0.00162041
-0.00190095
-0.00221516
-0.00256483
-0.00295107
-0.00337424
-0.00383379
-0.00432823
0.000732404
0.000691839
0.000650287
0.000603118
0.000548871
0.000488153
0.000421454
0.000349163
0.000271585
0.000188803
0.000100541
6.06715e-06
-9.5858e-05
-0.000207003
-0.000329642
-0.000466501
-0.000620687
-0.000795599
-0.000994813
-0.00122197
-0.00148062
-0.00177413
-0.00210546
-0.00247707
-0.0028907
-0.00334729
-0.0038468
-0.00438815
-0.00496918
0.00088391
0.000826079
0.000773811
0.000719066
0.000658698
0.000592883
0.000521632
0.000444826
0.000362326
0.000273797
0.000178539
7.5377e-05
-3.7415e-05
-0.000162134
-0.000301626
-0.000459224
-0.000638663
-0.000843968
-0.00107932
-0.00134888
-0.00165668
-0.00200638
-0.00240113
-0.00284336
-0.00333463
-0.00387547
-0.00446529
-0.00510232
-0.00578356
0.00104018
0.000963688
0.000900163
0.00083767
0.000771061
0.00069993
0.000623657
0.0005415
0.000452772
0.000356633
0.000251881
0.000136812
9.1372e-06
-0.000134046
-0.000296223
-0.000481393
-0.000693958
-0.000938583
-0.00122003
-0.00154296
-0.00191175
-0.00233027
-0.00280166
-0.00332816
-0.00391095
-0.00454998
-0.00524392
-0.00599011
-0.00678462
0.00119702
0.00110067
0.00102548
0.000955152
0.000882223
0.000805512
0.000723624
0.000635074
0.00053853
0.000432557
0.000315366
0.000184646
3.74656e-05
-0.000129753
-0.000321196
-0.00054157
-0.000795958
-0.00108965
-0.00142794
-0.00181589
-0.0022581
-0.00275847
-0.00331996
-0.00394444
-0.00463245
-0.00538319
-0.00619442
-0.00706245
-0.00798228
0.00134951
0.00123231
0.00114518
0.00106701
0.000987669
0.000905029
0.000816771
0.000720546
0.000614282
0.000495864
0.000362834
0.000212194
4.03009e-05
-0.000157162
-0.000385128
-0.000649024
-0.000954607
-0.00130774
-0.00171416
-0.00217919
-0.00270749
-0.0033028
-0.00396771
-0.00470344
-0.00550976
-0.00638489
-0.00732551
-0.0083268
-0.00938254
0.00149194
0.00135316
0.00125397
0.00116799
0.00108211
0.000993075
0.000897493
0.000792044
0.000673825
0.00053996
0.000387244
0.000211923
9.57549e-06
-0.0002249
-0.000497204
-0.00081348
-0.00118011
-0.00160344
-0.00208952
-0.00264377
-0.00327072
-0.00397374
-0.00475477
-0.00561424
-0.00655089
-0.00756181
-0.00864243
-0.00978664
-0.0109869
0.00161791
0.00145714
0.0013459
0.00125215
0.00115955
0.00106349
0.000959408
0.000842906
0.000710165
0.000557475
0.000380816
0.000175612
-6.33829e-05
-0.000342082
-0.00066695
-0.00104481
-0.00148257
-0.00198697
-0.00256418
-0.00321953
-0.0039572
-0.00477992
-0.00568883
-0.00668327
-0.00776081
-0.00891719
-0.0101465
-0.0114411
-0.0127922
0.00172045
0.00153758
0.0014144
0.00131294
0.00121332
0.00110945
0.000995459
0.000865796
0.000715654
0.000540423
0.000335208
9.45652e-05
-0.000187608
-0.000518039
-0.000903923
-0.00135268
-0.00187167
-0.0024678
-0.00314721
-0.00391492
-0.00477449
-0.00572782
-0.00677497
-0.00791401
-0.0091411
-0.0104505
-0.0118347
-0.0132847
-0.01479
0.00179208
0.00158731
0.00145244
0.00134329
0.00123624
0.00112359
0.000998063
0.000852873
0.000682175
0.000480406
0.000241752
-4.0134e-05
-0.000372215
-0.000762009
-0.00121738
-0.00174624
-0.00235623
-0.00305427
-0.00384623
-0.00473657
-0.00572802
-0.00682138
-0.00801539
-0.00930666
-0.0106898
-0.0121573
-0.0137001
-0.0153075
0.00182497
0.00159886
0.00145263
0.00133577
0.00122078
0.0010982
0.000959293
0.000795991
0.000601364
0.000368858
9.17083e-05
-0.00023734
-0.000626097
-0.00108282
-0.00161594
-0.00223373
-0.00294392
-0.00375324
-0.00466706
-0.00568902
-0.00682077
-0.00806177
-0.00940923
-0.0108581
-0.0124012
-0.0140292
-0.0157314
-0.0174952
0.00181113
0.00156458
0.00140742
0.00128279
0.00115921
0.00102541
0.000871099
0.000686929
0.000464853
0.000197303
-0.000123446
-0.000505547
-0.000957613
-0.00148855
-0.00210724
-0.00282216
-0.00364092
-0.00456981
-0.00561347
-0.00677446
-0.00805311
-0.0094473
-0.0109525
-0.0125618
-0.0142661
-0.0160543
-0.0179136
-0.0198298
0.00174265
0.00147688
0.0013093
0.00117677
0.00104386
0.000897386
0.000725541
0.000517647
0.000264542
-4.23598e-05
-0.000411731
-0.00085259
-0.00137428
-0.00198626
-0.00269769
-0.00351706
-0.00445164
-0.00550707
-0.00668696
-0.00799259
-0.00942269
-0.0109734
-0.0126382
-0.0144082
-0.0162722
-0.0182172
-0.0202285
-0.0222903
0.00161185
0.00132841
0.00115099
0.0010104
0.000867308
0.000706642
0.000515046
0.000280544
-7.1357e-06
-0.000357581
-0.000780383
-0.00128536
-0.0018825
-0.00258166
-0.00339213
-0.00432219
-0.00537854
-0.00656592
-0.00788669
-0.00934056
-0.0109245
-0.0126326
-0.0144563
-0.0163846
-0.0184042
-0.0205
-0.0226556
-0.0248535
0.00141158
0.0011123
0.000925682
0.000776835
0.000622664
0.000446226
0.000232657
-3.12828e-05
-0.000356949
-0.000754898
-0.00123558
-0.00180955
-0.0024873
-0.00327893
-0.00419369
-0.00523941
-0.00642201
-0.00774506
-0.00920943
-0.0108131
-0.0125509
-0.014415
-0.0163945
-0.0184762
-0.0206447
-0.0228829
-0.0251726
-0.027495
0.00113541
0.000822372
0.000627265
0.000469932
0.000303757
0.000109976
-0.000127723
-0.000423794
-0.000790625
-0.00123969
-0.00178223
-0.00242941
-0.00319212
-0.00408053
-0.00510362
-0.00626857
-0.00758027
-0.00904091
-0.0106496
-0.0124025
-0.0142922
-0.0163085
-0.0184383
-0.0206662
-0.0229746
-0.0253447
-0.0277566
-0.0301903
0.000777832
0.000453358
0.000250518
8.44718e-05
-9.46198e-05
-0.000307257
-0.000571115
-0.000901789
-0.00131264
-0.00181597
-0.00242375
-0.00314762
-0.0039987
-0.00498707
-0.00612122
-0.00740746
-0.00884945
-0.0104478
-0.0121997
-0.014099
-0.0161363
-0.0182989
-0.0205715
-0.0229363
-0.025374
-0.0278638
-0.0303846
-0.0329155
0.000334467
1.06426e-06
-0.000208694
-0.000383659
-0.000576529
-0.00080942
-0.00110127
-0.00146872
-0.00192603
-0.00248625
-0.00316194
-0.00396511
-0.00490696
-0.00599726
-0.00724382
-0.00865189
-0.0102237
-0.0119579
-0.0138499
-0.0158912
-0.0180699
-0.020371
-0.022777
-0.0252679
-0.0278225
-0.0304188
-0.0330346
-0.0356482
-0.000197778
-0.000537454
-0.00075326
-0.000937304
-0.00114472
-0.0013991
-0.00172052
-0.00212657
-0.00263228
-0.00325138
-0.0039969
-0.00488107
-0.00591498
-0.00710793
-0.00846687
-0.00999577
-0.0116952
-0.013562
-0.0155891
-0.0177659
-0.0200781
-0.0225084
-0.0250369
-0.0276419
-0.0303005
-0.0329895
-0.0356858
-0.0383675
-0.000820588
-0.00116378
-0.0013847
-0.00157792
-0.00180052
-0.00207742
-0.00242968
-0.00287571
-0.00343124
-0.00411055
-0.00492699
-0.00589289
-0.00701905
-0.00831414
-0.00978403
-0.0114313
-0.0132546
-0.0152489
-0.0174048
-0.0197092
-0.0221456
-0.0246944
-0.0273336
-0.0300399
-0.0327889
-0.0355565
-0.0383193
-0.0410553
-0.00153416
-0.00187803
-0.0021031
-0.00230548
-0.00254375
-0.00284393
-0.00322795
-0.00371491
-0.0043211
-0.00506122
-0.00594885
-0.00699623
-0.00821373
-0.00960921
-0.0111873
-0.0129491
-0.0148913
-0.0170066
-0.0192834
-0.0217064
-0.0242566
-0.0269123
-0.0296498
-0.0324441
-0.0352699
-0.0381024
-0.0409182
-0.0436956
-0.00233714
-0.00267884
-0.00290702
-0.00311845
-0.00337268
-0.00369665
-0.00411298
-0.00464132
-0.0052984
-0.00609924
-0.00705747
-0.00818513
-0.00949202
-0.010985
-0.0126674
-0.0145386
-0.0165933
-0.018822
-0.0212109
-0.0237424
-0.0263952
-0.0291457
-0.0319687
-0.0348379
-0.0377273
-0.0406118
-0.043468
-0.0462749
-0.00322668
-0.00356337
-0.00379356
-0.00401379
-0.00428406
-0.00463201
-0.00508081
-0.00565049
-0.00635812
-0.00721887
-0.00824633
-0.00945217
-0.0108455
-0.0124321
-0.0142138
-0.0161881
-0.018348
-0.0206816
-0.0231729
-0.0258021
-0.0285459
-0.0313791
-0.0342749
-0.0372063
-0.0401466
-0.0430709
-0.0459561
-0.048782
-0.0041984
-0.0045273
-0.00475836
-0.00498702
-0.00527317
-0.00564501
-0.00612603
-0.00673654
-0.00749378
-0.00841296
-0.00950751
-0.0107886
-0.0122645
-0.0139398
-0.0158149
-0.0178855
-0.0201423
-0.0225716
-0.0251551
-0.0278709
-0.030694
-0.0335977
-0.0365541
-0.0395355
-0.0425151
-0.0454681
-0.0483722
-0.051208
-0.00524656
-0.00556496
-0.00579571
-0.00603226
-0.00633393
-0.00672924
-0.00724186
-0.00789222
-0.00869759
-0.00967312
-0.0108319
-0.0121846
-0.0137385
-0.015497
-0.0174588
-0.0196178
-0.0219629
-0.0244781
-0.0271433
-0.0299345
-0.0328255
-0.035788
-0.0387933
-0.0418134
-0.0448216
-0.0477935
-0.0507077
-0.0535458
-0.00636413
-0.00666944
-0.00689865
-0.00714241
-0.00745901
-0.00787707
-0.00842031
-0.00910909
-0.00996063
-0.0109899
-0.0122095
-0.0136295
-0.0152561
-0.0170915
-0.0191328
-0.0213721
-0.0237963
-0.0263876
-0.0291239
-0.0319797
-0.0349273
-0.0379374
-0.0409809
-0.0440295
-0.0470568
-0.050039
-0.0529558
-0.0557898
-0.00754292
-0.00783271
-0.00805912
-0.00830927
-0.00863998
-0.00907981
-0.00965234
-0.0103777
-0.011273
-0.0123528
-0.0136294
-0.0151119
-0.0168056
-0.0187112
-0.0208244
-0.0231354
-0.0256295
-0.028287
-0.0310841
-0.0339939
-0.0369874
-0.0400349
-0.0431066
-0.0461745
-0.0492126
-0.0521979
-0.055111
-0.0579359
-0.00877382
-0.00904582
-0.00926814
-0.00952374
-0.00986754
-0.0103279
-0.0109281
-0.011688
-0.0126242
-0.0137511
-0.0150802
-0.01662
-0.0183746
-0.0203435
-0.0225207
-0.024895
-0.0274498
-0.0301637
-0.0330116
-0.0359654
-0.0389951
-0.0420704
-0.0451615
-0.0482406
-0.0512824
-0.0542647
-0.0571692
-0.059981
-0.0100469
-0.0102991
-0.010516
-0.010776
-0.0111316
-0.011611
-0.012237
-0.0130289
-0.0140031
-0.0151732
-0.0165503
-0.0181419
-0.0199511
-0.0219761
-0.0242095
-0.0266385
-0.0292449
-0.032006
-0.0348953
-0.0378836
-0.0409404
-0.044035
-0.0471378
-0.0502212
-0.0532607
-0.056235
-0.0591269
-0.0619228
-0.0113518
-0.0115822
-0.0117925
-0.0120556
-0.0124218
-0.0129185
-0.0135682
-0.0143895
-0.0153982
-0.0166075
-0.0180278
-0.0196655
-0.0215229
-0.0235969
-0.0258787
-0.0283541
-0.0310035
-0.0338029
-0.0367247
-0.039739
-0.0428148
-0.0459212
-0.0490288
-0.0521106
-0.0551428
-0.0581053
-0.0609817
-0.0637595
-0.0126775
-0.0128846
-0.0130869
-0.013352
-0.0137271
-0.0142394
-0.0149104
-0.0157583
-0.0167981
-0.0180424
-0.0195009
-0.0211791
-0.0230783
-0.0251942
-0.0275168
-0.0300306
-0.0327147
-0.0355441
-0.0384904
-0.0415229
-0.0446104
-0.047722
-0.0508287
-0.0539041
-0.0569252
-0.0598727
-0.0627314
-0.0654898
-0.0140132
-0.0141955
-0.0143887
-0.0146542
-0.0150368
-0.0155625
-0.0162525
-0.0171239
-0.0181913
-0.0194664
-0.0209581
-0.0226712
-0.0246059
-0.0267568
-0.0291129
-0.0316575
-0.0343687
-0.0372205
-0.0401838
-0.0432276
-0.0463205
-0.0494317
-0.0525327
-0.0555977
-0.0586045
-0.0615349
-0.0643745
-0.0671127
-0.015687
-0.0159516
-0.0163398
-0.016877
-0.0175834
-0.0184754
-0.0195667
-0.0208683
-0.0223883
-0.0241307
-0.0260948
-0.0282742
-0.0306569
-0.0332252
-0.0359563
-0.0388236
-0.0417973
-0.0448463
-0.0479389
-0.051045
-0.0541363
-0.0571878
-0.0601781
-0.0630899
-0.0659096
-0.0686275
)
;

boundaryField
{
    movingWall
    {
        type            zeroGradient;
    }
    fixedWalls
    {
        type            zeroGradient;
    }
    frontAndBack
    {
        type            empty;
    }
    procBoundary0to1
    {
        type            processor;
        value           nonuniform List<scalar> 
45
(
-0.00392342
-0.00376573
-0.0036391
-0.00352883
-0.00343835
-0.00338345
-0.00338149
-0.00345121
-0.00361276
-0.00388697
-0.0042945
-0.00485504
-0.00558662
-0.00650485
-0.00762227
-0.00894764
-0.0104853
-0.0122346
-0.0141896
-0.0163393
-0.0169675
-0.0169675
-0.0193072
-0.021788
-0.024386
-0.0270757
-0.029831
-0.032626
-0.0354362
-0.038239
-0.0410144
-0.0437447
-0.0464153
-0.0490141
-0.0515313
-0.0539595
-0.056293
-0.0585276
-0.0606603
-0.0626891
-0.0646125
-0.0664296
-0.0681398
-0.0697424
-0.071237
)
;
    }
    procBoundary0to3
    {
        type            processor;
        value           nonuniform List<scalar> 
29
(
-0.0153478
-0.0155043
-0.0155043
-0.0169715
-0.0172338
-0.0176258
-0.0181722
-0.0188924
-0.0198019
-0.0209135
-0.0222374
-0.0237809
-0.0255473
-0.0275349
-0.0297366
-0.0321394
-0.0347248
-0.0374693
-0.0403457
-0.043324
-0.0463727
-0.0494606
-0.0525576
-0.0556361
-0.0586717
-0.0616439
-0.0645361
-0.0673355
-0.0700332
)
;
    }
}


// ************************************************************************* //
