/*--------------------------------*- C++ -*----------------------------------*\
  =========                 |
  \\      /  F ield         | OpenFOAM: The Open Source CFD Toolbox
   \\    /   O peration     | Website:  https://openfoam.org
    \\  /    A nd           | Version:  9
     \\/     M anipulation  |
\*---------------------------------------------------------------------------*/
FoamFile
{
    format      ascii;
    class       volScalarField;
    location    "1";
    object      p;
}
// * * * * * * * * * * * * * * * * * * * * * * * * * * * * * * * * * * * * * //

dimensions      [0 2 -2 0 0 0 0];

internalField   nonuniform List<scalar> 
1240
(
-0.0212427
-0.0217404
-0.022138
-0.0224296
-0.0226131
-0.0247254
-0.0252925
-0.0257503
-0.0260941
-0.0263191
-0.0264235
-0.0139236
-0.0124644
-0.0110183
-0.00961167
-0.00827101
-0.00702187
-0.00588722
-0.00488588
-0.004031
-0.00332907
-0.00277945
-0.00237457
-0.00210093
-0.00194063
-0.00187325
-0.00187772
-0.00193406
-0.0020245
-0.00213422
-0.00225152
-0.00236758
-0.00247602
-0.0025723
-0.00265317
-0.00271616
-0.00275918
-0.00278064
-0.0283368
-0.0289652
-0.0294759
-0.0298646
-0.0301273
-0.030262
-0.0302661
-0.0301378
-0.0298762
-0.0294808
-0.0289517
-0.0282897
-0.0274963
-0.0265739
-0.0255262
-0.0243584
-0.0230775
-0.0216926
-0.0202159
-0.0186637
-0.0170536
-0.0154076
-0.0137517
-0.012114
-0.010525
-0.00901553
-0.00761549
-0.00635145
-0.00524482
-0.00430995
-0.00355292
-0.00297102
-0.00255333
-0.00228204
-0.00213464
-0.0020863
-0.00211219
-0.00218943
-0.00229834
-0.00242296
-0.00255108
-0.00267373
-0.00278458
-0.00287915
-0.00295413
-0.00300721
-0.0030374
-0.032014
-0.0326933
-0.0332478
-0.0336737
-0.0339679
-0.0341285
-0.0341538
-0.0340423
-0.0337932
-0.0334058
-0.03288
-0.0322157
-0.0314136
-0.0304748
-0.0294012
-0.028196
-0.0268638
-0.0254112
-0.0238478
-0.0221861
-0.0204423
-0.0186363
-0.016793
-0.0149413
-0.0131135
-0.0113449
-0.00967135
-0.00812726
-0.0067432
-0.00554314
-0.00454224
-0.00374543
-0.003147
-0.00273156
-0.00247609
-0.00235273
-0.00233184
-0.00238482
-0.00248615
-0.00261459
-0.00275351
-0.00289056
-0.00301697
-0.0031266
-0.003215
-0.00327955
-0.00331994
-0.0356983
-0.0364171
-0.0370052
-0.0374596
-0.0377781
-0.0379592
-0.0380019
-0.0379054
-0.0376688
-0.0372919
-0.0367741
-0.0361151
-0.0353147
-0.0343731
-0.0332907
-0.0320687
-0.0307095
-0.0292169
-0.0275972
-0.0258593
-0.024016
-0.0220843
-0.0200861
-0.0180489
-0.0160052
-0.0139924
-0.0120507
-0.0102216
-0.00854469
-0.00705463
-0.00577767
-0.00472911
-0.00391167
-0.0033154
-0.00291922
-0.00269385
-0.00260549
-0.00261956
-0.00270391
-0.00283088
-0.00297827
-0.00312933
-0.00327206
-0.00339805
-0.00350136
-0.00357894
-0.00363122
-0.0393395
-0.0400865
-0.0406983
-0.0411724
-0.0415078
-0.0417035
-0.0417591
-0.0416743
-0.0414489
-0.0410827
-0.0405752
-0.039926
-0.0391346
-0.0382002
-0.0371224
-0.0359007
-0.0345354
-0.0330278
-0.0313808
-0.0295998
-0.0276933
-0.025674
-0.0235598
-0.0213748
-0.0191494
-0.0169204
-0.0147303
-0.0126255
-0.0106537
-0.00885989
-0.00728271
-0.00595018
-0.00487668
-0.00406127
-0.00348821
-0.00312935
-0.00294821
-0.00290469
-0.00295946
-0.0030774
-0.00322948
-0.00339334
-0.00355273
-0.00369628
-0.00381604
-0.00390829
-0.00397437
-0.0419951
-0.0428984
-0.0436638
-0.0442902
-0.0447763
-0.0451216
-0.0453261
-0.0453898
-0.0453131
-0.0450961
-0.0447391
-0.0442418
-0.0436041
-0.0428252
-0.0419042
-0.0408397
-0.0396305
-0.0382751
-0.0367727
-0.0351234
-0.0333287
-0.0313931
-0.0293245
-0.0271357
-0.0248457
-0.0224805
-0.0200742
-0.0176684
-0.0153119
-0.0130578
-0.0109603
-0.00907024
-0.00742985
-0.00606789
-0.00499619
-0.00420833
-0.00368091
-0.00337735
-0.00325325
-0.00326223
-0.00336087
-0.00351203
-0.00368636
-0.00386221
-0.00402429
-0.00416199
-0.00427067
-0.00435263
-0.045431
-0.046348
-0.0471237
-0.0477575
-0.0482492
-0.0485988
-0.0488069
-0.0488743
-0.0488017
-0.0485897
-0.0482391
-0.0477502
-0.0471229
-0.0463568
-0.0454511
-0.0444042
-0.0432144
-0.0418791
-0.0403961
-0.038763
-0.0369785
-0.035043
-0.0329596
-0.0307356
-0.028384
-0.0259248
-0.0233869
-0.0208083
-0.0182365
-0.0157272
-0.0133411
-0.0111396
-0.00917918
-0.00750465
-0.00614394
-0.00510422
-0.00437122
-0.00391194
-0.00368011
-0.0036232
-0.00368915
-0.00383158
-0.0040127
-0.00420404
-0.00438529
-0.00454233
-0.00466924
-0.00476935
-0.0451259
-0.0464727
-0.0476818
-0.0487489
-0.0496726
-0.0504526
-0.0510888
-0.0515813
-0.0519311
-0.052139
-0.0522062
-0.0521339
-0.0519234
-0.0515757
-0.0510916
-0.0504718
-0.0497162
-0.0488243
-0.0477951
-0.0466265
-0.0453159
-0.0438599
-0.0422549
-0.0404972
-0.0385839
-0.0365137
-0.0342888
-0.0319155
-0.0294073
-0.0267858
-0.0240829
-0.0213418
-0.0186169
-0.0159716
-0.0134753
-0.0111966
-0.00919689
-0.00752239
-0.00619769
-0.00522246
-0.00457195
-0.00420164
-0.00405486
-0.00407134
-0.00419467
-0.00437719
-0.00458209
-0.00478266
-0.00496029
-0.00510725
-0.00522791
-0.0482907
-0.04965
-0.0508672
-0.0519396
-0.052866
-0.0536468
-0.0542822
-0.0547731
-0.0551203
-0.0553253
-0.0553895
-0.0553144
-0.0551018
-0.0547531
-0.0542698
-0.053653
-0.0529036
-0.0520216
-0.0510066
-0.049857
-0.0485705
-0.0471435
-0.0455717
-0.0438499
-0.041973
-0.0399362
-0.0377369
-0.0353756
-0.0328585
-0.0301992
-0.0274218
-0.0245623
-0.0216699
-0.0188071
-0.0160465
-0.0134664
-0.0111429
-0.00914085
-0.00750535
-0.00625449
-0.00537705
-0.00483501
-0.00457087
-0.00451764
-0.00460866
-0.00478522
-0.00500052
-0.00521995
-0.00541915
-0.00558793
-0.00573169
-0.051338
-0.0527051
-0.0539269
-0.0550018
-0.0559292
-0.0567094
-0.0573432
-0.0578313
-0.058175
-0.0583756
-0.0584349
-0.0583547
-0.0581368
-0.0577834
-0.0572964
-0.0566777
-0.0559289
-0.055051
-0.0540444
-0.0529085
-0.0516415
-0.0502405
-0.0487012
-0.0470178
-0.0451839
-0.0431924
-0.0410368
-0.0387126
-0.0362192
-0.0335624
-0.030757
-0.0278301
-0.0248228
-0.0217922
-0.01881
-0.0159594
-0.013328
-0.0109981
-0.00903631
-0.00748279
-0.00634508
-0.00559727
-0.00518564
-0.00503916
-0.0050817
-0.0052427
-0.00546382
-0.00570082
-0.00592222
-0.00611448
-0.00628393
-0.0542635
-0.0556365
-0.056862
-0.0579392
-0.0588678
-0.0596481
-0.0602809
-0.0607669
-0.0611072
-0.0613033
-0.0613568
-0.0612697
-0.0610441
-0.0606825
-0.0601876
-0.0595618
-0.0588076
-0.0579271
-0.0569217
-0.0557919
-0.0545373
-0.0531557
-0.0516436
-0.0499956
-0.0482047
-0.0462627
-0.0441604
-0.0418895
-0.0394437
-0.0368213
-0.0340282
-0.031081
-0.028011
-0.0248662
-0.0217132
-0.0186347
-0.0157252
-0.0130814
-0.0107904
-0.00891642
-0.00749032
-0.0065041
-0.00591349
-0.00564754
-0.00562255
-0.00575599
-0.00597669
-0.00622902
-0.00647272
-0.00668996
-0.00688772
-0.0570671
-0.0584463
-0.0596769
-0.0607581
-0.0616899
-0.0624725
-0.0631063
-0.0635919
-0.0639303
-0.0641225
-0.0641701
-0.0640752
-0.06384
-0.0634675
-0.0629606
-0.0623228
-0.0615572
-0.0606671
-0.0596551
-0.0585231
-0.0572719
-0.0559009
-0.0544077
-0.0527879
-0.051035
-0.0491403
-0.0470937
-0.0448839
-0.0425004
-0.0399351
-0.0371857
-0.0342586
-0.0311737
-0.0279679
-0.0246982
-0.0214425
-0.0182965
-0.0153664
-0.012757
-0.0105564
-0.00882173
-0.00756838
-0.00676778
-0.00635441
-0.00624025
-0.00633172
-0.00654394
-0.00680822
-0.00707375
-0.00731717
-0.00754581
-0.0597515
-0.061139
-0.0623772
-0.0634656
-0.0644039
-0.065192
-0.0658299
-0.0663178
-0.0666561
-0.0668459
-0.0668883
-0.0667853
-0.0665394
-0.0661536
-0.0656316
-0.0649772
-0.0641947
-0.0632883
-0.062262
-0.061119
-0.0598618
-0.0584914
-0.057007
-0.0554056
-0.053682
-0.051828
-0.0498332
-0.0476852
-0.0453704
-0.0428759
-0.0401923
-0.0373168
-0.0342577
-0.0310396
-0.0277071
-0.0243288
-0.0209962
-0.0178191
-0.0149153
-0.0123947
-0.0103415
-0.00879874
-0.00775968
-0.00717059
-0.00694373
-0.00697656
-0.00717039
-0.00744196
-0.0077281
-0.00799856
-0.00826053
-0.0623201
-0.0637191
-0.0649687
-0.0660683
-0.0670171
-0.0678145
-0.0684601
-0.0689533
-0.0692943
-0.0694834
-0.0695217
-0.069411
-0.0691537
-0.0687532
-0.0682133
-0.0675388
-0.0667345
-0.0658059
-0.0647581
-0.0635959
-0.0623234
-0.0609434
-0.0594569
-0.0578629
-0.0561576
-0.0543345
-0.0523836
-0.0502924
-0.0480458
-0.0456277
-0.0430231
-0.0402213
-0.03722
-0.034031
-0.0306855
-0.0272389
-0.0237737
-0.0203977
-0.0172354
-0.0144141
-0.0120442
-0.0101983
-0.00889711
-0.00810531
-0.00774125
-0.00769692
-0.00786059
-0.00813347
-0.00843817
-0.00873607
-0.00903364
-0.064776
-0.0661904
-0.0674558
-0.0685709
-0.0695346
-0.0703455
-0.0710024
-0.0715043
-0.0718506
-0.0720413
-0.072077
-0.0719592
-0.0716905
-0.0712743
-0.0707148
-0.0700171
-0.0691872
-0.0682313
-0.0671559
-0.0659671
-0.0646708
-0.0632715
-0.0617723
-0.0601743
-0.0584757
-0.0566718
-0.0547542
-0.052711
-0.0505269
-0.048184
-0.0456636
-0.0429487
-0.0400279
-0.036901
-0.0335851
-0.0301208
-0.0265777
-0.0230556
-0.0196798
-0.0165891
-0.0139161
-0.0117637
-0.0101835
-0.0091652
-0.00863977
-0.0084985
-0.00861864
-0.00888546
-0.00920579
-0.00953101
-0.00986615
-0.0671211
-0.0685553
-0.0698408
-0.0709759
-0.0719587
-0.072787
-0.0734589
-0.0739727
-0.0743272
-0.0745215
-0.0745561
-0.0744324
-0.0741526
-0.0737203
-0.0731399
-0.0724173
-0.0715589
-0.0705718
-0.0694636
-0.0682421
-0.0669145
-0.0654874
-0.0639658
-0.062353
-0.0606495
-0.0588527
-0.0569564
-0.05495
-0.0528192
-0.0505456
-0.0481082
-0.0454856
-0.0426592
-0.0396182
-0.0363662
-0.0329285
-0.0293591
-0.0257451
-0.0222065
-0.0188869
-0.0159361
-0.0134846
-0.0116172
-0.0103535
-0.00964425
-0.00938587
-0.00944783
-0.00969995
-0.010032
-0.0103839
-0.0107582
-0.0693556
-0.0708138
-0.0721237
-0.0732828
-0.0742885
-0.0751378
-0.075828
-0.0763565
-0.0767215
-0.0769217
-0.076957
-0.0768284
-0.0765382
-0.0760899
-0.0754884
-0.0747396
-0.0738507
-0.0728296
-0.0716851
-0.0704261
-0.0690613
-0.0675992
-0.0660468
-0.0644095
-0.0626903
-0.0608891
-0.0590018
-0.0570202
-0.0549314
-0.0527176
-0.0503573
-0.0478261
-0.0451002
-0.0421603
-0.0389979
-0.0356232
-0.0320732
-0.0284196
-0.0247712
-0.02127
-0.0180763
-0.015344
-0.0131905
-0.0116693
-0.010757
-0.0103619
-0.0103503
-0.010578
-0.010917
-0.0112941
-0.0117088
-0.0714777
-0.0729637
-0.0743016
-0.0754883
-0.0765202
-0.0773935
-0.0781047
-0.0786504
-0.079028
-0.0792359
-0.0792734
-0.0791412
-0.0788415
-0.0783779
-0.0777552
-0.0769799
-0.0760596
-0.075003
-0.0738197
-0.0725197
-0.0711135
-0.0696108
-0.0680207
-0.0663509
-0.0646067
-0.0627904
-0.0609006
-0.0589317
-0.0568728
-0.0547077
-0.0524153
-0.0499701
-0.0473448
-0.0445136
-0.0414578
-0.0381738
-0.034682
-0.0310362
-0.0273303
-0.0236982
-0.0203039
-0.0173189
-0.0148902
-0.0131069
-0.011977
-0.0114275
-0.0113268
-0.0115194
-0.0118597
-0.0122601
-0.0127158
-0.0734839
-0.0750009
-0.0763698
-0.0775867
-0.0786472
-0.0795468
-0.080281
-0.0808457
-0.0812377
-0.0814547
-0.0814957
-0.0813612
-0.081053
-0.0805748
-0.0799317
-0.0791302
-0.0781784
-0.0770858
-0.0758625
-0.0745198
-0.0730692
-0.0715221
-0.0698894
-0.0681807
-0.0664037
-0.0645633
-0.0626609
-0.0606933
-0.0586524
-0.0565242
-0.0542888
-0.0519211
-0.0493917
-0.0466705
-0.0437308
-0.0405571
-0.037154
-0.0335571
-0.0298424
-0.0261307
-0.0225829
-0.019381
-0.0166974
-0.0146558
-0.0132995
-0.0125807
-0.0123761
-0.0125227
-0.012858
-0.013279
-0.0137759
-0.0753692
-0.0769191
-0.0783209
-0.0795699
-0.0806608
-0.0815881
-0.0823466
-0.0829315
-0.083339
-0.0835662
-0.0836118
-0.083476
-0.0831605
-0.0826688
-0.0820062
-0.0811794
-0.080197
-0.0790686
-0.0778055
-0.0764194
-0.0749231
-0.0733294
-0.0716507
-0.0698986
-0.068083
-0.0662113
-0.0642876
-0.0623115
-0.0602776
-0.0581747
-0.055985
-0.0536843
-0.0512432
-0.0486287
-0.0458084
-0.0427569
-0.0394651
-0.0359506
-0.0322704
-0.0285284
-0.024876
-0.021499
-0.0185887
-0.0163009
-0.0147161
-0.0138169
-0.013495
-0.0135847
-0.013908
-0.0143464
-0.0148839
-0.0771265
-0.0787107
-0.0801465
-0.0814284
-0.0825503
-0.083506
-0.0842894
-0.0848951
-0.0853186
-0.0855567
-0.0856078
-0.0854715
-0.0851498
-0.0846458
-0.083965
-0.0831144
-0.0821025
-0.0809397
-0.0796376
-0.0782088
-0.0766669
-0.0750259
-0.0732996
-0.0715015
-0.0696433
-0.067735
-0.0657831
-0.0637902
-0.0617538
-0.0596656
-0.0575103
-0.0552658
-0.0529033
-0.0503889
-0.0476863
-0.0447628
-0.0415973
-0.0381913
-0.0345823
-0.0308549
-0.0271464
-0.0236394
-0.020537
-0.0180229
-0.0162143
-0.0151284
-0.0146782
-0.0147004
-0.0150045
-0.0154566
-0.0160337
-0.0787478
-0.0803666
-0.0818365
-0.0831514
-0.0843043
-0.0852881
-0.0860963
-0.0867227
-0.0871623
-0.0874117
-0.0874685
-0.0873327
-0.0870056
-0.0864907
-0.0857933
-0.0849204
-0.083881
-0.0826856
-0.0813462
-0.0798763
-0.07829
-0.0766023
-0.0748284
-0.0729832
-0.0710803
-0.0691319
-0.0671469
-0.0651308
-0.063084
-0.0610012
-0.05887
-0.056671
-0.0543768
-0.0519539
-0.0493639
-0.046569
-0.0435383
-0.0402594
-0.0367512
-0.033078
-0.0293593
-0.0257682
-0.022513
-0.0197991
-0.0177782
-0.0165044
-0.0159177
-0.015863
-0.0161408
-0.0166023
-0.0172172
-0.0802245
-0.0818773
-0.0833806
-0.0847276
-0.0859105
-0.0869217
-0.0877538
-0.0884003
-0.0888557
-0.0891161
-0.0891791
-0.0890441
-0.0887126
-0.088188
-0.0874755
-0.0865823
-0.0855174
-0.0842918
-0.0829176
-0.0814088
-0.0797803
-0.0780477
-0.0762274
-0.0743355
-0.0723874
-0.0703971
-0.0683761
-0.0663322
-0.064269
-0.0621839
-0.060068
-0.0579044
-0.0556683
-0.0533272
-0.0508425
-0.0481728
-0.0452803
-0.0421405
-0.0387556
-0.0351697
-0.0314821
-0.0278518
-0.0244854
-0.0216032
-0.0193877
-0.0179305
-0.0172028
-0.0170635
-0.0173081
-0.0177748
-0.0184252
-0.0815477
-0.0832331
-0.0847683
-0.0861458
-0.0873571
-0.0883941
-0.0892488
-0.0899142
-0.0903845
-0.0906554
-0.0907244
-0.0905906
-0.0902555
-0.0897223
-0.0889963
-0.0880848
-0.0869969
-0.0857435
-0.0843374
-0.0827927
-0.0811248
-0.0793501
-0.0774856
-0.0755487
-0.0735562
-0.071524
-0.0694655
-0.0673912
-0.0653071
-0.063214
-0.0611059
-0.058969
-0.0567814
-0.0545126
-0.0521245
-0.0495742
-0.0468189
-0.0438246
-0.0405788
-0.0371065
-0.0334859
-0.0298582
-0.0264222
-0.0234067
-0.0210195
-0.0193888
-0.0185196
-0.0182903
-0.0184961
-0.0189637
-0.0196469
-0.0827083
-0.0844243
-0.0859892
-0.0873948
-0.0886324
-0.089693
-0.0905685
-0.0912512
-0.0917353
-0.0920159
-0.0920904
-0.0919581
-0.0916199
-0.0910793
-0.0903415
-0.0894137
-0.0883052
-0.087027
-0.085592
-0.0840146
-0.0823109
-0.0804974
-0.0785918
-0.0766125
-0.0745778
-0.0725048
-0.0704091
-0.0683031
-0.0661957
-0.0640904
-0.0619843
-0.0598669
-0.0577192
-0.0555134
-0.0532128
-0.0507744
-0.0481523
-0.0453053
-0.0422088
-0.0388703
-0.0353471
-0.0317603
-0.0282959
-0.0251841
-0.0226524
-0.0208622
-0.0198545
-0.0195317
-0.0196933
-0.0201575
-0.0208705
)
;

boundaryField
{
    movingWall
    {
        type            zeroGradient;
    }
    fixedWalls
    {
        type            zeroGradient;
    }
    frontAndBack
    {
        type            empty;
    }
    procBoundary6to1
    {
        type            processor;
        value           nonuniform List<scalar> 
26
(
-0.0179502
-0.0183733
-0.0187066
-0.0189431
-0.0190816
-0.0206522
-0.0240555
-0.0275965
-0.0312147
-0.0348524
-0.0384594
-0.0384594
-0.0409563
-0.0418533
-0.0431801
-0.0443745
-0.0443745
-0.0436458
-0.0467923
-0.0498273
-0.0527438
-0.0555395
-0.0582148
-0.0607718
-0.0632127
-0.0655387
)
;
    }
    procBoundary6to3
    {
        type            processor;
        value           nonuniform List<scalar> 9(-0.0677501 -0.0698452 -0.0718214 -0.0736745 -0.0753983 -0.0769854 -0.0784282 -0.0797187 -0.0808487);
    }
    procBoundary6to4
    {
        type            processor;
        value           nonuniform List<scalar> 
30
(
-0.0814782
-0.0795352
-0.077517
-0.075443
-0.0733316
-0.0712
-0.0690627
-0.066931
-0.0648109
-0.0627027
-0.0605989
-0.0584839
-0.0563325
-0.0541105
-0.0517756
-0.0492805
-0.0465793
-0.0436374
-0.0404473
-0.0370463
-0.0335342
-0.0300804
-0.0269103
-0.0242642
-0.0223327
-0.0211928
-0.0207748
-0.0208877
-0.0213442
-0.0220836
)
;
    }
    procBoundary6to5
    {
        type            processor;
        value           nonuniform List<scalar> 
21
(
-0.0836981
-0.0854419
-0.0870337
-0.0884648
-0.0897259
-0.0908077
-0.0917016
-0.0923999
-0.0928962
-0.0931856
-0.0932653
-0.0931342
-0.0927936
-0.0922467
-0.0914985
-0.0905566
-0.08943
-0.0881299
-0.0866691
-0.0850627
-0.0833267
)
;
    }
    procBoundary6to7
    {
        type            processor;
        value           nonuniform List<scalar> 
45
(
-0.0226846
-0.0226846
-0.0111123
-0.00985602
-0.00863077
-0.0074594
-0.00636367
-0.00536324
-0.00447442
-0.00370902
-0.00307346
-0.00256841
-0.00218883
-0.00192464
-0.00176184
-0.0016839
-0.00167331
-0.00171297
-0.00178727
-0.00188281
-0.00198871
-0.00209658
-0.00220016
-0.00229498
-0.00237782
-0.00244633
-0.00249868
-0.00253292
-0.00254696
-0.0264039
-0.0264039
-0.0262585
-0.0259864
-0.0255874
-0.0250623
-0.0244127
-0.023641
-0.0227513
-0.0217488
-0.0206408
-0.0194364
-0.0181468
-0.0167856
-0.0153709
-0.0153709
)
;
    }
}


// ************************************************************************* //
