/*--------------------------------*- C++ -*----------------------------------*\
  =========                 |
  \\      /  F ield         | OpenFOAM: The Open Source CFD Toolbox
   \\    /   O peration     | Website:  https://openfoam.org
    \\  /    A nd           | Version:  9
     \\/     M anipulation  |
\*---------------------------------------------------------------------------*/
FoamFile
{
    format      ascii;
    class       surfaceScalarField;
    location    "1";
    object      phi;
}
// * * * * * * * * * * * * * * * * * * * * * * * * * * * * * * * * * * * * * //

dimensions      [0 3 -1 0 0 0 0];

internalField   nonuniform List<scalar> 
2402
(
-3.2262e-06
3.32139e-07
-3.25807e-06
2.26803e-07
-3.28518e-06
1.18478e-07
-3.3077e-06
7.62632e-09
-1.05185e-07
-3.24191e-06
3.6482e-07
-3.27018e-06
2.5508e-07
-3.29437e-06
1.42661e-07
-3.31477e-06
2.8026e-08
-3.33159e-06
-8.83575e-08
-2.06204e-07
-2.92741e-06
-1.857e-06
-2.8204e-06
-1.9193e-06
-2.69784e-06
-1.96604e-06
-2.55962e-06
-1.99481e-06
-2.40625e-06
-2.0034e-06
-2.23888e-06
-1.9899e-06
-2.05942e-06
-1.95294e-06
-1.87054e-06
-1.89187e-06
-1.67553e-06
-1.80697e-06
-1.47825e-06
-1.69955e-06
-1.28284e-06
-1.57201e-06
-1.09349e-06
-1.42778e-06
-9.14127e-07
-1.27114e-06
-7.48148e-07
-1.10694e-06
-5.98207e-07
-9.40286e-07
-4.66075e-07
-7.76137e-07
-3.52609e-07
-6.19031e-07
-2.57804e-07
-4.72842e-07
-1.80925e-07
-3.40673e-07
-1.20659e-07
-2.24858e-07
-7.52934e-08
-1.27063e-07
-4.28616e-08
-4.8451e-08
-2.12659e-08
1.01234e-08
-8.35489e-09
4.79153e-08
-1.9629e-09
6.41244e-08
8.49181e-11
5.77819e-08
2.76778e-08
-3.22607e-06
3.92716e-07
-3.25018e-06
2.79184e-07
-3.27087e-06
1.63357e-07
-3.28853e-06
4.56782e-08
-3.30341e-06
-7.34774e-08
-3.31578e-06
-1.93825e-07
-3.3258e-06
-3.15113e-07
-3.33351e-06
-4.37114e-07
-3.33891e-06
-5.59645e-07
-3.34186e-06
-6.8252e-07
-3.34211e-06
-8.05543e-07
-3.33925e-06
-9.28479e-07
-3.33273e-06
-1.05103e-06
-3.32183e-06
-1.17281e-06
-3.30566e-06
-1.29328e-06
-3.28313e-06
-1.41174e-06
-3.25298e-06
-1.52729e-06
-3.21381e-06
-1.63876e-06
-3.16406e-06
-1.74468e-06
-3.10222e-06
-1.84331e-06
-3.02667e-06
-1.93254e-06
-2.93601e-06
-2.00997e-06
-2.82906e-06
-2.07298e-06
-2.70508e-06
-2.1188e-06
-2.56386e-06
-2.14462e-06
-2.40591e-06
-2.14786e-06
-2.23254e-06
-2.12631e-06
-2.04595e-06
-2.07846e-06
-1.84922e-06
-2.0037e-06
-1.64619e-06
-1.90258e-06
-1.44129e-06
-1.77691e-06
-1.23925e-06
-1.62982e-06
-1.04475e-06
-1.46563e-06
-8.62099e-07
-1.28959e-06
-6.94879e-07
-1.10751e-06
-5.45736e-07
-9.25279e-07
-4.16265e-07
-7.48502e-07
-3.07011e-07
-5.82096e-07
-2.17581e-07
-4.30103e-07
-1.46819e-07
-2.9562e-07
-9.30105e-08
-1.80872e-07
-5.40729e-08
-8.73886e-08
-2.77169e-08
-1.62326e-08
-1.15584e-08
3.17567e-08
-3.18044e-09
5.57465e-08
-1.5171e-10
5.47532e-08
2.7526e-08
-3.18211e-06
4.1559e-07
-3.2018e-06
2.98876e-07
-3.21874e-06
1.80296e-07
-3.23332e-06
6.02574e-08
-3.24587e-06
-6.09321e-08
-3.25666e-06
-1.83029e-07
-3.26592e-06
-3.05856e-07
-3.27377e-06
-4.29267e-07
-3.28025e-06
-5.53156e-07
-3.28534e-06
-6.77436e-07
-3.28886e-06
-8.02022e-07
-3.29053e-06
-9.26811e-07
-3.2899e-06
-1.05166e-06
-3.28637e-06
-1.17634e-06
-3.27913e-06
-1.30052e-06
-3.26717e-06
-1.42371e-06
-3.24926e-06
-1.54521e-06
-3.22395e-06
-1.66406e-06
-3.1896e-06
-1.77902e-06
-3.14446e-06
-1.88846e-06
-3.08662e-06
-1.99037e-06
-3.01423e-06
-2.08235e-06
-2.92558e-06
-2.16164e-06
-2.81923e-06
-2.22514e-06
-2.69425e-06
-2.26961e-06
-2.55033e-06
-2.29177e-06
-2.38803e-06
-2.28861e-06
-2.20886e-06
-2.25762e-06
-2.01539e-06
-2.19717e-06
-1.81119e-06
-2.10677e-06
-1.60074e-06
-1.98736e-06
-1.38911e-06
-1.84145e-06
-1.18166e-06
-1.67308e-06
-9.8358e-07
-1.48767e-06
-7.99487e-07
-1.2916e-06
-6.33061e-07
-1.0917e-06
-4.86829e-07
-8.94734e-07
-3.62083e-07
-7.06842e-07
-2.58949e-07
-5.33238e-07
-1.76561e-07
-3.78008e-07
-1.13292e-07
-2.4414e-07
-6.69954e-08
-1.33686e-07
-3.52087e-08
-4.80193e-08
-1.53132e-08
1.18612e-08
-4.62627e-09
4.50596e-08
-4.39588e-10
5.05665e-08
2.70864e-08
-3.11461e-06
4.33585e-07
-3.13001e-06
3.14269e-07
-3.14324e-06
1.93527e-07
-3.15471e-06
7.17254e-08
-3.16475e-06
-5.08845e-08
-3.17368e-06
-1.74106e-07
-3.18172e-06
-2.97816e-07
-3.18906e-06
-4.21929e-07
-3.19581e-06
-5.46405e-07
-3.20201e-06
-6.71234e-07
-3.20761e-06
-7.96423e-07
-3.21244e-06
-9.21982e-07
-3.2162e-06
-1.0479e-06
-3.21842e-06
-1.17411e-06
-3.21846e-06
-1.30048e-06
-3.21544e-06
-1.42673e-06
-3.20824e-06
-1.5524e-06
-3.1955e-06
-1.67681e-06
-3.17558e-06
-1.79894e-06
-3.14663e-06
-1.91742e-06
-3.10656e-06
-2.03044e-06
-3.05321e-06
-2.13571e-06
-2.98437e-06
-2.23047e-06
-2.89802e-06
-2.31149e-06
-2.79246e-06
-2.37517e-06
-2.66655e-06
-2.41768e-06
-2.51993e-06
-2.43523e-06
-2.35324e-06
-2.42431e-06
-2.16827e-06
-2.38214e-06
-1.96803e-06
-2.30701e-06
-1.75671e-06
-2.19868e-06
-1.53949e-06
-2.05867e-06
-1.32218e-06
-1.89039e-06
-1.11078e-06
-1.69907e-06
-9.10953e-07
-1.49143e-06
-7.27536e-07
-1.27512e-06
-5.64176e-07
-1.05809e-06
-4.23131e-07
-8.47888e-07
-3.05251e-07
-6.51117e-07
-2.10133e-07
-4.73126e-07
-1.36364e-07
-3.1791e-07
-8.18055e-08
-1.88244e-07
-4.38633e-08
-8.59616e-08
-1.96918e-08
-1.23102e-08
-6.33445e-09
3.17022e-08
-7.88529e-10
4.50205e-08
2.62979e-08
-3.02882e-06
4.47189e-07
-3.04035e-06
3.25792e-07
-3.05021e-06
2.03394e-07
-3.0588e-06
8.0312e-08
-3.06644e-06
-4.32479e-08
-3.07341e-06
-1.67132e-07
-3.07997e-06
-2.91252e-07
-3.08633e-06
-4.15568e-07
-3.09266e-06
-5.40082e-07
-3.09905e-06
-6.64837e-07
-3.10557e-06
-7.89908e-07
-3.11216e-06
-9.15387e-07
-3.11869e-06
-1.04137e-06
-3.12486e-06
-1.16795e-06
-3.1302e-06
-1.29514e-06
-3.13405e-06
-1.42288e-06
-3.13547e-06
-1.55098e-06
-3.13327e-06
-1.67901e-06
-3.12594e-06
-1.80627e-06
-3.11164e-06
-1.93171e-06
-3.08827e-06
-2.05381e-06
-3.05346e-06
-2.17052e-06
-3.00469e-06
-2.27924e-06
-2.93944e-06
-2.37675e-06
-2.85532e-06
-2.45929e-06
-2.75036e-06
-2.52264e-06
-2.62326e-06
-2.56233e-06
-2.47361e-06
-2.57396e-06
-2.30222e-06
-2.55354e-06
-2.11124e-06
-2.498e-06
-1.90424e-06
-2.40568e-06
-1.68615e-06
-2.27676e-06
-1.46295e-06
-2.11359e-06
-1.24124e-06
-1.92078e-06
-1.02764e-06
-1.70502e-06
-8.28214e-07
-1.47455e-06
-6.47874e-07
-1.23843e-06
-4.90061e-07
-1.0057e-06
-3.56587e-07
-7.84591e-07
-2.47718e-07
-5.81995e-07
-1.62417e-07
-4.03211e-07
-9.86671e-08
-2.51993e-07
-5.37995e-08
-1.30829e-07
-2.47672e-08
-4.13425e-08
-8.3397e-09
1.52747e-08
-1.20787e-09
3.78887e-08
2.509e-08
-2.92013e-06
5.79262e-07
-2.93009e-06
4.5715e-07
-2.93842e-06
3.34123e-07
-2.9455e-06
2.10477e-07
-2.95166e-06
8.64716e-08
-2.95719e-06
-3.77191e-08
-2.96235e-06
-1.61974e-07
-2.96737e-06
-2.86228e-07
-2.97248e-06
-4.1046e-07
-2.97787e-06
-5.34696e-07
-2.9837e-06
-6.59004e-07
-2.99011e-06
-7.83496e-07
-2.99718e-06
-9.08317e-07
-3.00491e-06
-1.03364e-06
-3.01319e-06
-1.15966e-06
-3.02177e-06
-1.28655e-06
-3.03021e-06
-1.41444e-06
-3.03783e-06
-1.54336e-06
-3.04366e-06
-1.67317e-06
-3.04642e-06
-1.80352e-06
-3.04444e-06
-1.93369e-06
-3.03571e-06
-2.06254e-06
-3.01783e-06
-2.1884e-06
-2.98813e-06
-2.30894e-06
-2.94374e-06
-2.42115e-06
-2.88174e-06
-2.52129e-06
-2.79941e-06
-2.60496e-06
-2.69452e-06
-2.66722e-06
-2.5656e-06
-2.70288e-06
-2.41229e-06
-2.70685e-06
-2.23563e-06
-2.67466e-06
-2.03827e-06
-2.60305e-06
-1.82448e-06
-2.49054e-06
-1.60006e-06
-2.33801e-06
-1.37189e-06
-2.14896e-06
-1.14735e-06
-1.92955e-06
-9.33669e-07
-1.68824e-06
-7.37121e-07
-1.43498e-06
-5.62523e-07
-1.1803e-06
-4.1289e-07
-9.34225e-07
-2.89398e-07
-7.05486e-07
-1.91591e-07
-5.01018e-07
-1.17718e-07
-3.25867e-07
-6.51247e-08
-1.83422e-07
-3.06082e-08
-7.58591e-08
-1.0676e-08
-4.65742e-09
-1.70713e-09
2.89198e-08
2.33829e-08
-2.81616e-06
5.88107e-07
-2.82341e-06
4.64398e-07
-2.82939e-06
3.40108e-07
-2.83442e-06
2.15511e-07
-2.83877e-06
9.08151e-08
-2.84265e-06
-3.38334e-08
-2.84629e-06
-1.58333e-07
-2.8499e-06
-2.82624e-07
-2.85367e-06
-4.0669e-07
-2.85781e-06
-5.30552e-07
-2.86254e-06
-6.54281e-07
-2.86804e-06
-7.77992e-07
-2.8745e-06
-9.01855e-07
-2.88206e-06
-1.02608e-06
-2.89079e-06
-1.15094e-06
-2.90063e-06
-1.2767e-06
-2.91141e-06
-1.40366e-06
-2.92271e-06
-1.53206e-06
-2.93386e-06
-1.66202e-06
-2.94386e-06
-1.79352e-06
-2.95133e-06
-1.92622e-06
-2.95446e-06
-2.05941e-06
-2.951e-06
-2.19185e-06
-2.9383e-06
-2.32165e-06
-2.9133e-06
-2.44614e-06
-2.87276e-06
-2.56183e-06
-2.81337e-06
-2.66435e-06
-2.73206e-06
-2.74853e-06
-2.62634e-06
-2.8086e-06
-2.49464e-06
-2.83855e-06
-2.33673e-06
-2.83257e-06
-2.15404e-06
-2.78574e-06
-1.94985e-06
-2.69473e-06
-1.72931e-06
-2.55855e-06
-1.4992e-06
-2.37907e-06
-1.26736e-06
-2.16138e-06
-1.04199e-06
-1.91361e-06
-8.30717e-07
-1.64625e-06
-6.39867e-07
-1.37115e-06
-4.73888e-07
-1.1002e-06
-3.3513e-07
-8.44244e-07
-2.23952e-07
-6.12196e-07
-1.39056e-07
-4.10763e-07
-7.79282e-08
-2.4455e-07
-3.72765e-08
-1.16511e-07
-1.33749e-08
-2.85591e-08
-2.29546e-09
1.78404e-08
2.10875e-08
-2.68216e-06
9.64626e-07
-2.69244e-06
8.42682e-07
-2.70076e-06
7.19252e-07
-2.70752e-06
5.94869e-07
-2.71305e-06
4.69924e-07
-2.7176e-06
3.44658e-07
-2.72139e-06
2.19305e-07
-2.72461e-06
9.40324e-08
-2.72741e-06
-3.10313e-08
-2.72995e-06
-1.55792e-07
-2.73239e-06
-2.80184e-07
-2.73491e-06
-4.04172e-07
-2.7377e-06
-5.27758e-07
-2.741e-06
-6.50985e-07
-2.74504e-06
-7.7395e-07
-2.75009e-06
-8.96809e-07
-2.75639e-06
-1.01978e-06
-2.76416e-06
-1.14316e-06
-2.77357e-06
-1.2673e-06
-2.78465e-06
-1.39259e-06
-2.79727e-06
-1.51944e-06
-2.81108e-06
-1.64822e-06
-2.82541e-06
-1.77918e-06
-2.83924e-06
-1.9124e-06
-2.85107e-06
-2.04758e-06
-2.85893e-06
-2.18399e-06
-2.86032e-06
-2.32025e-06
-2.85226e-06
-2.4542e-06
-2.83133e-06
-2.58277e-06
-2.79385e-06
-2.70183e-06
-2.73611e-06
-2.80626e-06
-2.65471e-06
-2.89e-06
-2.54693e-06
-2.94633e-06
-2.4112e-06
-2.9683e-06
-2.24753e-06
-2.9494e-06
-2.05791e-06
-2.88436e-06
-1.84646e-06
-2.77e-06
-1.61937e-06
-2.60615e-06
-1.38455e-06
-2.39621e-06
-1.15082e-06
-2.14734e-06
-9.27055e-07
-1.87002e-06
-7.2112e-07
-1.57708e-06
-5.39078e-07
-1.28225e-06
-3.84715e-07
-9.98608e-07
-2.59472e-07
-7.37439e-07
-1.62728e-07
-5.07507e-07
-9.22733e-08
-3.15005e-07
-4.48221e-08
-1.63962e-07
-1.64646e-08
-5.69166e-08
-2.98148e-09
4.35733e-09
1.8106e-08
-2.57652e-06
9.74885e-07
-2.5849e-06
8.51066e-07
-2.59181e-06
7.26162e-07
-2.59755e-06
6.00609e-07
-2.60233e-06
4.74709e-07
-2.60634e-06
3.48663e-07
-2.60969e-06
2.22653e-07
-2.61247e-06
9.68178e-08
-2.61478e-06
-2.87262e-08
-2.61669e-06
-1.53881e-07
-2.61832e-06
-2.78559e-07
-2.61979e-06
-4.02695e-07
-2.6213e-06
-5.26249e-07
-2.62307e-06
-6.49222e-07
-2.62535e-06
-7.71663e-07
-2.62847e-06
-8.93689e-07
-2.63276e-06
-1.0155e-06
-2.63856e-06
-1.13737e-06
-2.64618e-06
-1.25967e-06
-2.65589e-06
-1.38288e-06
-2.66781e-06
-1.50751e-06
-2.68191e-06
-1.63412e-06
-2.69786e-06
-1.76323e-06
-2.71503e-06
-1.89523e-06
-2.73231e-06
-2.0303e-06
-2.74811e-06
-2.16819e-06
-2.76025e-06
-2.30811e-06
-2.76596e-06
-2.4485e-06
-2.76187e-06
-2.58685e-06
-2.74416e-06
-2.71954e-06
-2.70871e-06
-2.84172e-06
-2.65138e-06
-2.94733e-06
-2.56846e-06
-3.02925e-06
-2.45709e-06
-3.07967e-06
-2.31581e-06
-3.09068e-06
-2.14507e-06
-3.05509e-06
-1.94762e-06
-2.96745e-06
-1.72863e-06
-2.82514e-06
-1.49555e-06
-2.62929e-06
-1.25746e-06
-2.38542e-06
-1.02416e-06
-2.10332e-06
-8.04982e-07
-1.79626e-06
-6.07705e-07
-1.47952e-06
-4.3778e-07
-1.16853e-06
-2.98014e-07
-8.77206e-07
-1.8872e-07
-6.168e-07
-1.08191e-07
-3.95534e-07
-5.3281e-08
-2.18872e-07
-1.99678e-08
-9.02298e-08
-3.77267e-09
-1.18378e-08
1.43333e-08
-2.46883e-06
9.83831e-07
-2.47642e-06
8.58653e-07
-2.48295e-06
7.32688e-07
-2.48861e-06
6.06276e-07
-2.49354e-06
4.79635e-07
-2.4978e-06
3.52922e-07
-2.50142e-06
2.26274e-07
-2.50441e-06
9.98074e-08
-2.50677e-06
-2.63628e-08
-2.50853e-06
-1.52125e-07
-2.50973e-06
-2.77359e-07
-2.51046e-06
-4.01958e-07
-2.51088e-06
-5.25829e-07
-2.5112e-06
-6.48909e-07
-2.51167e-06
-7.71188e-07
-2.51264e-06
-8.92718e-07
-2.5145e-06
-1.01364e-06
-2.51767e-06
-1.1342e-06
-2.5226e-06
-1.25475e-06
-2.52971e-06
-1.37577e-06
-2.53937e-06
-1.49785e-06
-2.55182e-06
-1.62168e-06
-2.56707e-06
-1.74797e-06
-2.58488e-06
-1.87743e-06
-2.60457e-06
-2.01061e-06
-2.62499e-06
-2.14777e-06
-2.64438e-06
-2.28872e-06
-2.66033e-06
-2.43255e-06
-2.66973e-06
-2.57745e-06
-2.66882e-06
-2.72046e-06
-2.6533e-06
-2.85724e-06
-2.61858e-06
-2.98204e-06
-2.56014e-06
-3.08769e-06
-2.47399e-06
-3.16583e-06
-2.35723e-06
-3.20744e-06
-2.20871e-06
-3.20362e-06
-2.02953e-06
-3.14663e-06
-1.82347e-06
-3.0312e-06
-1.59702e-06
-2.85574e-06
-1.35902e-06
-2.62343e-06
-1.11977e-06
-2.34257e-06
-8.89853e-07
-2.02618e-06
-6.78759e-07
-1.69062e-06
-4.93767e-07
-1.35352e-06
-3.39317e-07
-1.03166e-06
-2.16943e-07
-7.39174e-07
-1.25673e-07
-4.86804e-07
-6.26708e-08
-2.81874e-07
-2.39007e-08
-1.29e-07
-4.67554e-09
-3.10629e-08
9.65776e-09
-2.361e-06
9.92481e-07
-2.36873e-06
8.66384e-07
-2.37574e-06
7.39697e-07
-2.38212e-06
6.12662e-07
-2.38791e-06
4.85422e-07
-2.39308e-06
3.58087e-07
-2.39756e-06
2.30755e-07
-2.40128e-06
1.03532e-07
-2.40418e-06
-2.34613e-08
-2.40622e-06
-1.50091e-07
-2.40738e-06
-2.76198e-07
-2.40771e-06
-4.01623e-07
-2.40733e-06
-5.2621e-07
-2.40642e-06
-6.49827e-07
-2.40522e-06
-7.72385e-07
-2.40408e-06
-8.9386e-07
-2.4034e-06
-1.01432e-06
-2.40367e-06
-1.13393e-06
-2.40541e-06
-1.25301e-06
-2.40918e-06
-1.372e-06
-2.41552e-06
-1.49151e-06
-2.4249e-06
-1.61229e-06
-2.43765e-06
-1.73522e-06
-2.45388e-06
-1.8612e-06
-2.47335e-06
-1.99114e-06
-2.49537e-06
-2.12575e-06
-2.51868e-06
-2.26541e-06
-2.54132e-06
-2.4099e-06
-2.5606e-06
-2.55817e-06
-2.57302e-06
-2.70804e-06
-2.57434e-06
-2.85592e-06
-2.55978e-06
-2.9966e-06
-2.52427e-06
-3.1232e-06
-2.46291e-06
-3.22719e-06
-2.37154e-06
-3.29881e-06
-2.24739e-06
-3.32776e-06
-2.08985e-06
-3.30418e-06
-1.90096e-06
-3.22008e-06
-1.68585e-06
-3.07085e-06
-1.45256e-06
-2.85672e-06
-1.21142e-06
-2.5837e-06
-9.73886e-07
-2.26372e-06
-7.5099e-07
-1.91351e-06
-5.51925e-07
-1.55259e-06
-3.82989e-07
-1.20059e-06
-2.47225e-07
-8.74938e-07
-1.44667e-07
-5.89362e-07
-7.29881e-08
-3.53553e-07
-2.82718e-08
-1.73716e-07
-5.69495e-09
-5.36398e-08
3.96281e-09
-2.25413e-06
1.00166e-06
-2.26275e-06
8.75004e-07
-2.27092e-06
7.4786e-07
-2.27862e-06
6.20368e-07
-2.28581e-06
4.92606e-07
-2.29236e-06
3.64636e-07
-2.29813e-06
2.36532e-07
-2.30299e-06
1.08393e-07
-2.30681e-06
-1.96452e-08
-2.30948e-06
-1.47419e-07
-2.31095e-06
-2.74724e-07
-2.31123e-06
-4.01345e-07
-2.31038e-06
-5.27059e-07
-2.30855e-06
-6.51657e-07
-2.30597e-06
-7.74968e-07
-2.30295e-06
-8.96879e-07
-2.2999e-06
-1.01737e-06
-2.29732e-06
-1.13652e-06
-2.29577e-06
-1.25455e-06
-2.29589e-06
-1.37188e-06
-2.29835e-06
-1.48905e-06
-2.3038e-06
-1.60684e-06
-2.31283e-06
-1.72619e-06
-2.32585e-06
-1.84818e-06
-2.34302e-06
-1.97397e-06
-2.36412e-06
-2.10465e-06
-2.38839e-06
-2.24114e-06
-2.41443e-06
-2.38386e-06
-2.44003e-06
-2.53257e-06
-2.46214e-06
-2.68593e-06
-2.4768e-06
-2.84125e-06
-2.47928e-06
-2.99413e-06
-2.46423e-06
-3.13824e-06
-2.42612e-06
-3.26529e-06
-2.35975e-06
-3.36519e-06
-2.26093e-06
-3.42658e-06
-2.12726e-06
-3.43784e-06
-1.95897e-06
-3.38837e-06
-1.75942e-06
-3.27041e-06
-1.53537e-06
-3.08076e-06
-1.29665e-06
-2.82243e-06
-1.05507e-06
-2.50529e-06
-8.2295e-07
-2.14563e-06
-6.11321e-07
-1.76422e-06
-4.28499e-07
-1.38341e-06
-2.79306e-07
-1.02413e-06
-1.65068e-07
-7.036e-07
-8.42046e-08
-4.34416e-07
-3.30807e-08
-2.2484e-07
-6.83393e-09
-7.98865e-08
-2.87112e-09
-2.14871e-06
1.01197e-06
-2.15875e-06
8.85045e-07
-2.16852e-06
7.57633e-07
-2.17794e-06
6.29787e-07
-2.18686e-06
5.01524e-07
-2.19509e-06
3.72868e-07
-2.20243e-06
2.43876e-07
-2.20869e-06
1.1465e-07
-2.21368e-06
-1.46536e-08
-2.21727e-06
-1.43836e-07
-2.21934e-06
-2.72645e-07
-2.21988e-06
-4.00807e-07
-2.21891e-06
-5.2803e-07
-2.21654e-06
-6.54031e-07
-2.21295e-06
-7.78552e-07
-2.20844e-06
-9.01392e-07
-2.20338e-06
-1.02243e-06
-2.19825e-06
-1.14164e-06
-2.19363e-06
-1.25917e-06
-2.1902e-06
-1.37531e-06
-2.18867e-06
-1.49057e-06
-2.18984e-06
-1.60567e-06
-2.19448e-06
-1.72156e-06
-2.20325e-06
-1.83941e-06
-2.21666e-06
-1.96055e-06
-2.23491e-06
-2.0864e-06
-2.25775e-06
-2.21829e-06
-2.28433e-06
-2.35729e-06
-2.31302e-06
-2.50388e-06
-2.3413e-06
-2.65764e-06
-2.3657e-06
-2.81686e-06
-2.38172e-06
-2.97811e-06
-2.38404e-06
-3.13592e-06
-2.36679e-06
-3.28254e-06
-2.32399e-06
-3.40799e-06
-2.25025e-06
-3.50032e-06
-2.14158e-06
-3.54652e-06
-1.99627e-06
-3.53369e-06
-1.81575e-06
-3.45092e-06
-1.60511e-06
-3.2914e-06
-1.37309e-06
-3.05445e-06
-1.13136e-06
-2.74703e-06
-8.93051e-07
-2.38394e-06
-6.70868e-07
-1.9864e-06
-4.75188e-07
-1.57909e-06
-3.12836e-07
-1.18648e-06
-1.86718e-07
-8.29718e-07
-9.6265e-08
-5.24869e-07
-3.83158e-08
-2.82789e-07
-8.09326e-09
-1.10109e-07
-1.09644e-08
-2.04465e-06
1.0238e-06
-2.05643e-06
8.96821e-07
-2.06806e-06
7.69265e-07
-2.07938e-06
6.41112e-07
-2.09019e-06
5.12328e-07
-2.10023e-06
3.8291e-07
-2.10926e-06
2.52906e-07
-2.11704e-06
1.2243e-07
-2.12335e-06
-8.34014e-09
-2.12803e-06
-1.39161e-07
-2.13094e-06
-2.69737e-07
-2.13201e-06
-3.99735e-07
-2.13124e-06
-5.28797e-07
-2.12871e-06
-6.56568e-07
-2.12455e-06
-7.82708e-07
-2.11902e-06
-9.06926e-07
-2.11244e-06
-1.029e-06
-2.10527e-06
-1.14882e-06
-2.09805e-06
-1.26639e-06
-2.09144e-06
-1.38192e-06
-2.0862e-06
-1.49581e-06
-2.08319e-06
-1.60869e-06
-2.08327e-06
-1.72147e-06
-2.08733e-06
-1.83535e-06
-2.09614e-06
-1.95175e-06
-2.11026e-06
-2.07228e-06
-2.12989e-06
-2.19866e-06
-2.15472e-06
-2.33246e-06
-2.18374e-06
-2.47486e-06
-2.21504e-06
-2.62634e-06
-2.24571e-06
-2.78619e-06
-2.27173e-06
-2.95209e-06
-2.28802e-06
-3.11962e-06
-2.28865e-06
-3.28192e-06
-2.26717e-06
-3.42946e-06
-2.21728e-06
-3.55022e-06
-2.13358e-06
-3.63022e-06
-2.01258e-06
-3.65469e-06
-1.85367e-06
-3.60983e-06
-1.65997e-06
-3.4851e-06
-1.43869e-06
-3.27574e-06
-1.20076e-06
-2.98495e-06
-9.59652e-07
-2.62505e-06
-7.29367e-07
-2.21669e-06
-5.22282e-07
-1.78618e-06
-3.47375e-07
-1.36139e-06
-2.09404e-07
-9.67689e-07
-1.09084e-07
-6.25188e-07
-4.39539e-08
-3.4792e-07
-9.47101e-09
-1.44592e-07
-2.04354e-08
-1.94152e-06
1.03735e-06
-1.95515e-06
9.10445e-07
-1.96869e-06
7.82811e-07
-1.98194e-06
6.54357e-07
-1.99462e-06
5.25008e-07
-2.00645e-06
3.94742e-07
-2.01715e-06
2.6361e-07
-2.02646e-06
1.3174e-07
-2.03414e-06
-6.59456e-10
-2.04e-06
-1.33302e-07
-2.04389e-06
-2.65849e-07
-2.04572e-06
-3.9791e-07
-2.04544e-06
-5.29069e-07
-2.04311e-06
-6.58902e-07
-2.03882e-06
-7.86995e-07
-2.03277e-06
-9.12974e-07
-2.02525e-06
-1.03652e-06
-2.01664e-06
-1.15743e-06
-2.00744e-06
-1.27559e-06
-1.99828e-06
-1.39109e-06
-1.98989e-06
-1.5042e-06
-1.98313e-06
-1.61545e-06
-1.97894e-06
-1.72566e-06
-1.97831e-06
-1.83598e-06
-1.98222e-06
-1.94784e-06
-1.99152e-06
-2.06299e-06
-2.0068e-06
-2.18338e-06
-2.02825e-06
-2.31101e-06
-2.05543e-06
-2.44769e-06
-2.08709e-06
-2.59469e-06
-2.12095e-06
-2.75233e-06
-2.15361e-06
-2.91943e-06
-2.18042e-06
-3.09281e-06
-2.19565e-06
-3.26669e-06
-2.19268e-06
-3.43242e-06
-2.16461e-06
-3.57829e-06
-2.10492e-06
-3.6899e-06
-2.00852e-06
-3.75109e-06
-1.87281e-06
-3.74553e-06
-1.69881e-06
-3.6591e-06
-1.49182e-06
-3.48273e-06
-1.26153e-06
-3.21524e-06
-1.02115e-06
-2.86543e-06
-7.85558e-07
-2.45228e-06
-5.68919e-07
-2.00282e-06
-3.82408e-07
-1.5479e-06
-2.32857e-07
-1.11724e-06
-1.22547e-07
-7.35498e-07
-4.99586e-08
-4.20508e-07
-1.09623e-08
-1.83588e-07
-3.13977e-08
-1.83862e-06
1.05261e-06
-1.85403e-06
9.2586e-07
-1.86939e-06
7.98171e-07
-1.88443e-06
6.69392e-07
-1.89884e-06
5.3942e-07
-1.91232e-06
4.08226e-07
-1.92458e-06
2.75867e-07
-1.93533e-06
1.42495e-07
-1.94434e-06
8.35153e-09
-1.95141e-06
-1.2624e-07
-1.95636e-06
-2.60895e-07
-1.9591e-06
-3.95173e-07
-1.95956e-06
-5.28604e-07
-1.95776e-06
-6.60705e-07
-1.95376e-06
-7.90998e-07
-1.9477e-06
-9.19033e-07
-1.93981e-06
-1.04441e-06
-1.93042e-06
-1.16682e-06
-1.91996e-06
-1.28605e-06
-1.90898e-06
-1.40206e-06
-1.89818e-06
-1.515e-06
-1.88837e-06
-1.62526e-06
-1.8805e-06
-1.73353e-06
-1.87561e-06
-1.84086e-06
-1.8748e-06
-1.94864e-06
-1.87914e-06
-2.05865e-06
-1.88953e-06
-2.17299e-06
-1.90657e-06
-2.29396e-06
-1.93038e-06
-2.42388e-06
-1.96031e-06
-2.56475e-06
-1.99479e-06
-2.71784e-06
-2.03109e-06
-2.88314e-06
-2.06515e-06
-3.05874e-06
-2.09166e-06
-3.24019e-06
-2.10411e-06
-3.41997e-06
-2.09529e-06
-3.58712e-06
-2.05788e-06
-3.72731e-06
-1.98544e-06
-3.82352e-06
-1.87358e-06
-3.85739e-06
-1.72117e-06
-3.81152e-06
-1.53137e-06
-3.67252e-06
-1.31221e-06
-3.43441e-06
-1.07607e-06
-3.10157e-06
-8.38196e-07
-2.69015e-06
-6.14185e-07
-2.22683e-06
-4.17354e-07
-1.74473e-06
-2.56758e-07
-1.27784e-06
-1.36507e-07
-8.55749e-07
-5.62804e-08
-5.00735e-07
-1.2559e-08
-2.2731e-07
-4.39567e-08
-1.73511e-06
1.06944e-06
-1.75213e-06
9.42877e-07
-1.76908e-06
8.15121e-07
-1.78567e-06
6.85978e-07
-1.80157e-06
5.55327e-07
-1.81649e-06
4.23138e-07
-1.8301e-06
2.89484e-07
-1.84215e-06
1.54543e-07
-1.85239e-06
1.85895e-08
-1.86061e-06
-1.18016e-07
-1.86666e-06
-2.54845e-07
-1.87042e-06
-3.91416e-07
-1.87181e-06
-5.27212e-07
-1.87082e-06
-6.61699e-07
-1.86747e-06
-7.94345e-07
-1.86187e-06
-9.24637e-07
-1.85418e-06
-1.0521e-06
-1.84465e-06
-1.17634e-06
-1.83366e-06
-1.29705e-06
-1.82167e-06
-1.41405e-06
-1.80929e-06
-1.52738e-06
-1.79728e-06
-1.63727e-06
-1.78653e-06
-1.74428e-06
-1.7781e-06
-1.84929e-06
-1.77313e-06
-1.95362e-06
-1.7728e-06
-2.05898e-06
-1.77827e-06
-2.16752e-06
-1.79047e-06
-2.28176e-06
-1.80996e-06
-2.40439e-06
-1.83671e-06
-2.53801e-06
-1.86981e-06
-2.68475e-06
-1.90722e-06
-2.84572e-06
-1.94563e-06
-3.02033e-06
-1.98026e-06
-3.20556e-06
-2.00497e-06
-3.39526e-06
-2.01251e-06
-3.57957e-06
-1.99511e-06
-3.74472e-06
-1.94528e-06
-3.87335e-06
-1.85704e-06
-3.94563e-06
-1.72722e-06
-3.94134e-06
-1.5568e-06
-3.84295e-06
-1.35175e-06
-3.63945e-06
-1.12319e-06
-3.33014e-06
-8.86115e-07
-2.92722e-06
-6.57163e-07
-2.45578e-06
-4.51593e-07
-1.9503e-06
-2.80751e-07
-1.44868e-06
-1.50793e-07
-9.85707e-07
-6.28563e-08
-5.88672e-07
-1.42492e-08
-2.75917e-07
-5.82059e-08
-1.63019e-06
1.0876e-06
-1.64852e-06
9.6121e-07
-1.66676e-06
8.33356e-07
-1.68458e-06
7.03806e-07
-1.70169e-06
5.7243e-07
-1.71775e-06
4.39204e-07
-1.73249e-06
3.04222e-07
-1.74563e-06
1.67688e-07
-1.75696e-06
2.99121e-08
-1.76626e-06
-1.0871e-07
-1.77339e-06
-2.47714e-07
-1.77823e-06
-3.86581e-07
-1.78069e-06
-5.24754e-07
-1.78072e-06
-6.61661e-07
-1.77834e-06
-7.96724e-07
-1.7736e-06
-9.29378e-07
-1.76661e-06
-1.05909e-06
-1.75757e-06
-1.18539e-06
-1.74674e-06
-1.30787e-06
-1.73452e-06
-1.42627e-06
-1.72143e-06
-1.54047e-06
-1.70812e-06
-1.65057e-06
-1.69544e-06
-1.75697e-06
-1.68435e-06
-1.86038e-06
-1.67601e-06
-1.96196e-06
-1.67167e-06
-2.06332e-06
-1.6726e-06
-2.1666e-06
-1.68e-06
-2.27436e-06
-1.69481e-06
-2.38957e-06
-1.7175e-06
-2.51532e-06
-1.74778e-06
-2.65447e-06
-1.78436e-06
-2.80915e-06
-1.82465e-06
-2.98005e-06
-1.86456e-06
-3.16565e-06
-1.8985e-06
-3.36132e-06
-1.91946e-06
-3.55861e-06
-1.91946e-06
-3.74472e-06
-1.89032e-06
-3.90249e-06
-1.82475e-06
-4.0112e-06
-1.71775e-06
-4.04834e-06
-1.56809e-06
-3.99261e-06
-1.37956e-06
-3.82797e-06
-1.16154e-06
-3.54816e-06
-9.28296e-07
-3.16047e-06
-6.96978e-07
-2.6871e-06
-4.84493e-07
-2.16279e-06
-3.04449e-07
-1.62872e-06
-1.65209e-07
-1.12495e-06
-6.96113e-08
-6.8427e-07
-1.60177e-08
-3.2951e-07
-7.42236e-08
-1.52308e-06
1.10675e-06
-1.54239e-06
9.80514e-07
-1.56156e-06
8.52523e-07
-1.58028e-06
7.2253e-07
-1.59825e-06
5.90399e-07
-1.61517e-06
4.56123e-07
-1.63076e-06
3.19817e-07
-1.64479e-06
1.81714e-07
-1.65703e-06
4.21549e-08
-1.66731e-06
-9.84318e-08
-1.67548e-06
-2.39549e-07
-1.68141e-06
-3.80646e-07
-1.68502e-06
-5.21139e-07
-1.68626e-06
-6.60422e-07
-1.68511e-06
-7.97882e-07
-1.68157e-06
-9.32917e-07
-1.67571e-06
-1.06495e-06
-1.66767e-06
-1.19343e-06
-1.65764e-06
-1.3179e-06
-1.64593e-06
-1.43799e-06
-1.63295e-06
-1.55345e-06
-1.61926e-06
-1.66426e-06
-1.60559e-06
-1.77064e-06
-1.59284e-06
-1.87313e-06
-1.58209e-06
-1.9727e-06
-1.57459e-06
-2.07083e-06
-1.57167e-06
-2.16951e-06
-1.57471e-06
-2.27132e-06
-1.58493e-06
-2.37935e-06
-1.60321e-06
-2.49704e-06
-1.62982e-06
-2.62785e-06
-1.66416e-06
-2.77481e-06
-1.70437e-06
-2.93983e-06
-1.74717e-06
-3.12285e-06
-1.78759e-06
-3.3209e-06
-1.81908e-06
-3.52712e-06
-1.83376e-06
-3.73004e-06
-1.82304e-06
-3.91321e-06
-1.77864e-06
-4.05559e-06
-1.69398e-06
-4.133e-06
-1.56575e-06
-4.12084e-06
-1.39548e-06
-3.99825e-06
-1.19052e-06
-3.75313e-06
-9.63927e-07
-3.38706e-06
-7.32844e-07
-2.91818e-06
-5.15444e-07
-2.38019e-06
-3.27455e-07
-1.81671e-06
-1.79543e-07
-1.27286e-06
-7.646e-08
-7.87353e-07
-1.78459e-08
-3.88124e-07
-9.20695e-08
-1.41319e-06
1.12654e-06
-1.43309e-06
1.00041e-06
-1.45281e-06
8.72249e-07
-1.47207e-06
7.41789e-07
-1.49058e-06
6.08902e-07
-1.50805e-06
4.73595e-07
-1.52424e-06
3.36008e-07
-1.53893e-06
1.96402e-07
-1.55192e-06
5.51464e-08
-1.56305e-06
-8.73003e-08
-1.57218e-06
-2.30414e-07
-1.57921e-06
-3.73621e-07
-1.58404e-06
-5.16312e-07
-1.5866e-06
-6.5786e-07
-1.58685e-06
-7.97627e-07
-1.58479e-06
-9.34983e-07
-1.58042e-06
-1.06931e-06
-1.57383e-06
-1.20002e-06
-1.56515e-06
-1.32659e-06
-1.55458e-06
-1.44855e-06
-1.54246e-06
-1.56557e-06
-1.52923e-06
-1.67749e-06
-1.51551e-06
-1.78436e-06
-1.50208e-06
-1.88656e-06
-1.48994e-06
-1.98485e-06
-1.48027e-06
-2.0805e-06
-1.47441e-06
-2.17537e-06
-1.47381e-06
-2.27192e-06
-1.47988e-06
-2.37328e-06
-1.49384e-06
-2.48308e-06
-1.51642e-06
-2.60526e-06
-1.54764e-06
-2.7436e-06
-1.58637e-06
-2.9011e-06
-1.63009e-06
-3.07913e-06
-1.67462e-06
-3.27637e-06
-1.71401e-06
-3.48774e-06
-1.74067e-06
-3.70338e-06
-1.74592e-06
-3.90796e-06
-1.72082e-06
-4.0807e-06
-1.65746e-06
-4.19635e-06
-1.55068e-06
-4.22762e-06
-1.39977e-06
-4.14916e-06
-1.20986e-06
-3.94303e-06
-9.92435e-07
-3.60449e-06
-7.64108e-07
-3.14651e-06
-5.43884e-07
-2.60041e-06
-3.49379e-07
-2.01122e-06
-1.93577e-07
-1.42866e-06
-8.33099e-08
-8.9762e-07
-1.97124e-08
-4.51722e-07
-1.11782e-07
-1.30005e-06
1.14657e-06
-1.32016e-06
1.02052e-06
-1.34007e-06
8.92164e-07
-1.35952e-06
7.61238e-07
-1.37824e-06
6.27619e-07
-1.39598e-06
4.91334e-07
-1.41251e-06
3.52545e-07
-1.42765e-06
2.11542e-07
-1.44123e-06
6.87208e-08
-1.45309e-06
-7.54376e-08
-1.46312e-06
-2.20386e-07
-1.47121e-06
-3.65532e-07
-1.47727e-06
-5.10251e-07
-1.48123e-06
-6.53898e-07
-1.48304e-06
-7.95823e-07
-1.48265e-06
-9.35373e-07
-1.48005e-06
-1.07191e-06
-1.47526e-06
-1.20481e-06
-1.46837e-06
-1.33348e-06
-1.45949e-06
-1.45742e-06
-1.44888e-06
-1.57619e-06
-1.43686e-06
-1.68951e-06
-1.42393e-06
-1.79729e-06
-1.41077e-06
-1.89972e-06
-1.39824e-06
-1.99738e-06
-1.38743e-06
-2.09131e-06
-1.37963e-06
-2.18316e-06
-1.37629e-06
-2.27526e-06
-1.37894e-06
-2.37063e-06
-1.38901e-06
-2.47301e-06
-1.40763e-06
-2.58664e-06
-1.43532e-06
-2.71591e-06
-1.47164e-06
-2.86478e-06
-1.51484e-06
-3.03592e-06
-1.56153e-06
-3.22968e-06
-1.60647e-06
-3.4428e-06
-1.64261e-06
-3.66724e-06
-1.66137e-06
-3.8892e-06
-1.65344e-06
-4.08863e-06
-1.60995e-06
-4.23985e-06
-1.52408e-06
-4.31348e-06
-1.39302e-06
-4.28022e-06
-1.21965e-06
-4.1164e-06
-1.01351e-06
-3.81063e-06
-7.90282e-07
-3.36973e-06
-5.69331e-07
-2.82136e-06
-3.69859e-07
-2.21069e-06
-2.07093e-07
-1.59142e-06
-9.00643e-08
-1.01465e-06
-2.15938e-08
-5.20192e-07
-1.33376e-07
-1.18336e-06
1.16648e-06
-1.20333e-06
1.04048e-06
-1.22309e-06
9.11926e-07
-1.2424e-06
7.80555e-07
-1.26104e-06
6.46258e-07
-1.27879e-06
5.09079e-07
-1.29545e-06
3.69205e-07
-1.31085e-06
2.26947e-07
-1.32486e-06
8.27247e-08
-1.33733e-06
-6.29605e-08
-1.34817e-06
-2.09544e-07
-1.35729e-06
-3.56421e-07
-1.36458e-06
-5.02955e-07
-1.36999e-06
-6.48494e-07
-1.37343e-06
-7.92379e-07
-1.37486e-06
-9.33946e-07
-1.37423e-06
-1.07254e-06
-1.37152e-06
-1.20751e-06
-1.36676e-06
-1.33825e-06
-1.36001e-06
-1.46417e-06
-1.35143e-06
-1.58478e-06
-1.34125e-06
-1.69969e-06
-1.32987e-06
-1.80868e-06
-1.31781e-06
-1.91177e-06
-1.30584e-06
-2.00935e-06
-1.2949e-06
-2.10225e-06
-1.28619e-06
-2.19187e-06
-1.28112e-06
-2.28033e-06
-1.28123e-06
-2.37052e-06
-1.28811e-06
-2.46614e-06
-1.30315e-06
-2.57161e-06
-1.3273e-06
-2.69176e-06
-1.36074e-06
-2.83135e-06
-1.40242e-06
-2.99424e-06
-1.44976e-06
-3.18233e-06
-1.49831e-06
-3.39425e-06
-1.54165e-06
-3.62391e-06
-1.57156e-06
-3.85929e-06
-1.57863e-06
-4.08157e-06
-1.55328e-06
-4.2652e-06
-1.48737e-06
-4.37939e-06
-1.37614e-06
-4.39145e-06
-1.22023e-06
-4.27231e-06
-1.02709e-06
-4.00377e-06
-8.11054e-07
-3.58577e-06
-5.91405e-07
-3.04101e-06
-3.88572e-07
-2.41352e-06
-2.19884e-07
-1.76011e-06
-9.66256e-08
-1.13791e-06
-2.34651e-08
-5.93353e-07
-1.56841e-07
-1.06303e-06
1.18593e-06
-1.08251e-06
1.05996e-06
-1.10181e-06
9.31224e-07
-1.12071e-06
7.99456e-07
-1.13901e-06
6.64563e-07
-1.15654e-06
5.26605e-07
-1.17312e-06
3.85789e-07
-1.18862e-06
2.42449e-07
-1.20292e-06
9.70212e-08
-1.2159e-06
-4.99763e-08
-1.22748e-06
-1.97967e-07
-1.23757e-06
-3.46336e-07
-1.24608e-06
-4.94443e-07
-1.25294e-06
-6.41633e-07
-1.25807e-06
-7.87244e-07
-1.26141e-06
-9.30609e-07
-1.26289e-06
-1.07106e-06
-1.26245e-06
-1.20795e-06
-1.26008e-06
-1.34062e-06
-1.2558e-06
-1.46845e-06
-1.24967e-06
-1.5909e-06
-1.24185e-06
-1.7075e-06
-1.23263e-06
-1.8179e-06
-1.22241e-06
-1.92199e-06
-1.21183e-06
-2.01994e-06
-1.20169e-06
-2.11239e-06
-1.19307e-06
-2.20049e-06
-1.18728e-06
-2.28612e-06
-1.18584e-06
-2.37196e-06
-1.19037e-06
-2.46161e-06
-1.20246e-06
-2.55951e-06
-1.2234e-06
-2.67082e-06
-1.25385e-06
-2.8009e-06
-1.29344e-06
-2.95465e-06
-1.34035e-06
-3.13542e-06
-1.39095e-06
-3.34365e-06
-1.43954e-06
-3.57532e-06
-1.47843e-06
-3.82039e-06
-1.49833e-06
-4.06166e-06
-1.48927e-06
-4.27426e-06
-1.44205e-06
-4.42661e-06
-1.35021e-06
-4.48329e-06
-1.21222e-06
-4.4103e-06
-1.03335e-06
-4.18263e-06
-8.26302e-07
-3.79281e-06
-6.09841e-07
-3.25747e-06
-4.05254e-07
-2.61811e-06
-2.31763e-07
-1.9336e-06
-1.02898e-07
-1.26677e-06
-2.52993e-08
-6.70952e-07
-1.8214e-07
-9.39075e-07
1.20462e-06
-9.57793e-07
1.07868e-06
-9.76362e-07
9.49792e-07
-9.94604e-07
8.17698e-07
-1.01235e-06
6.82314e-07
-1.02947e-06
5.43716e-07
-1.04581e-06
4.02129e-07
-1.06126e-06
2.57904e-07
-1.07573e-06
1.1149e-07
-1.08912e-06
-3.65822e-08
-1.10136e-06
-1.85728e-07
-1.11237e-06
-3.3533e-07
-1.12207e-06
-4.84746e-07
-1.13038e-06
-6.33322e-07
-1.13722e-06
-7.80399e-07
-1.14252e-06
-9.25312e-07
-1.14619e-06
-1.0674e-06
-1.14815e-06
-1.20598e-06
-1.14835e-06
-1.34041e-06