/*--------------------------------*- C++ -*----------------------------------*\
  =========                 |
  \\      /  F ield         | OpenFOAM: The Open Source CFD Toolbox
   \\    /   O peration     | Website:  https://openfoam.org
    \\  /    A nd           | Version:  9
     \\/     M anipulation  |
\*---------------------------------------------------------------------------*/
FoamFile
{
    format      ascii;
    class       volVectorField;
    location    "1";
    object      U;
}
// * * * * * * * * * * * * * * * * * * * * * * * * * * * * * * * * * * * * * //

dimensions      [0 1 -1 0 0 0 0];

internalField   nonuniform List<vector> 
1240
(
(-0.32091 0.0314291 0)
(-0.324339 0.0211288 0)
(-0.327282 0.0105164 0)
(-0.329756 -0.000355283 0)
(-0.331789 -0.0114469 0)
(-0.322676 0.0349226 0)
(-0.325714 0.0241521 0)
(-0.328329 0.0130965 0)
(-0.33055 0.00180602 0)
(-0.332405 -0.00967808 0)
(-0.333918 -0.0213206 0)
(-0.297692 -0.18152 0)
(-0.287758 -0.186982 0)
(-0.276289 -0.190843 0)
(-0.263246 -0.192887 0)
(-0.248647 -0.192921 0)
(-0.232574 -0.190791 0)
(-0.215179 -0.186398 0)
(-0.19669 -0.17972 0)
(-0.177409 -0.170824 0)
(-0.157698 -0.159872 0)
(-0.137962 -0.147128 0)
(-0.118624 -0.13294 0)
(-0.100097 -0.117729 0)
(-0.0827538 -0.101954 0)
(-0.0669018 -0.086088 0)
(-0.0527644 -0.0705804 0)
(-0.0404727 -0.0558354 0)
(-0.0300674 -0.0421928 0)
(-0.021508 -0.0299215 0)
(-0.0146879 -0.0192221 0)
(-0.00945183 -0.0102377 0)
(-0.00561242 -0.00306972 0)
(-0.0029639 0.00220449 0)
(-0.00129231 0.00551386 0)
(-0.000381276 0.00677934 0)
(-1.32392e-05 0.00590456 0)
(3.12032e-05 0.00277015 0)
(-0.321317 0.037963 0)
(-0.323905 0.0267829 0)
(-0.326136 0.0153528 0)
(-0.328044 0.00371953 0)
(-0.329663 -0.00807901 0)
(-0.331021 -0.0200095 0)
(-0.332138 -0.0320443 0)
(-0.333023 -0.0441549 0)
(-0.33368 -0.0563195 0)
(-0.334102 -0.0685141 0)
(-0.334269 -0.0807129 0)
(-0.33415 -0.0928857 0)
(-0.333696 -0.104995 0)
(-0.332845 -0.116992 0)
(-0.331515 -0.128815 0)
(-0.329608 -0.140384 0)
(-0.327006 -0.151597 0)
(-0.323575 -0.162328 0)
(-0.319166 -0.172423 0)
(-0.313625 -0.181702 0)
(-0.306791 -0.189953 0)
(-0.298512 -0.19694 0)
(-0.288655 -0.20241 0)
(-0.27712 -0.206106 0)
(-0.263857 -0.207773 0)
(-0.248878 -0.207188 0)
(-0.232271 -0.204174 0)
(-0.21421 -0.198626 0)
(-0.194962 -0.190534 0)
(-0.174874 -0.179996 0)
(-0.154367 -0.167232 0)
(-0.133905 -0.152575 0)
(-0.113967 -0.136463 0)
(-0.0950113 -0.119405 0)
(-0.0774393 -0.101946 0)
(-0.0615671 -0.0846296 0)
(-0.0476084 -0.0679582 0)
(-0.035669 -0.0523667 0)
(-0.0257529 -0.0382068 0)
(-0.0177783 -0.0257449 0)
(-0.0115965 -0.0151713 0)
(-0.00701336 -0.00661741 0)
(-0.00380673 -0.000176945 0)
(-0.00174072 0.00407209 0)
(-0.000573833 0.00604854 0)
(-6.34865e-05 0.00565498 0)
(2.89589e-05 0.00276811 0)
(-0.317156 0.0405066 0)
(-0.319273 0.0289791 0)
(-0.321093 0.0172428 0)
(-0.322659 0.00534105 0)
(-0.324007 -0.00669375 0)
(-0.325168 -0.018835 0)
(-0.326166 -0.03106 0)
(-0.327019 -0.0433517 0)
(-0.327735 -0.0556958 0)
(-0.328316 -0.068079 0)
(-0.328752 -0.0804877 0)
(-0.32902 -0.0929054 0)
(-0.329084 -0.10531 0)
(-0.328894 -0.117671 0)
(-0.328377 -0.129945 0)
(-0.327444 -0.142071 0)
(-0.325982 -0.153969 0)
(-0.323857 -0.16553 0)
(-0.320916 -0.176617 0)
(-0.316985 -0.187059 0)
(-0.311881 -0.196646 0)
(-0.305413 -0.205136 0)
(-0.297398 -0.212256 0)
(-0.287677 -0.217709 0)
(-0.276126 -0.22119 0)
(-0.262679 -0.222404 0)
(-0.247344 -0.221092 0)
(-0.230224 -0.217054 0)
(-0.211519 -0.210182 0)
(-0.19154 -0.200486 0)
(-0.170693 -0.188111 0)
(-0.149462 -0.173349 0)
(-0.128379 -0.156626 0)
(-0.107981 -0.138481 0)
(-0.0887692 -0.119528 0)
(-0.0711648 -0.100405 0)
(-0.0554828 -0.0817268 0)
(-0.0419146 -0.0640416 0)
(-0.0305283 -0.0478061 0)
(-0.0212821 -0.0333735 0)
(-0.0140454 -0.0209988 0)
(-0.00862393 -0.0108568 0)
(-0.00478272 -0.00306639 0)
(-0.00226447 0.0022824 0)
(-0.000801412 0.00510399 0)
(-0.000124262 0.00529906 0)
(2.56908e-05 0.00274004 0)
(-0.310634 0.042548 0)
(-0.312293 0.0307332 0)
(-0.313713 0.0187537 0)
(-0.314938 0.00664868 0)
(-0.316005 -0.00555457 0)
(-0.316947 -0.0178349 0)
(-0.31779 -0.0301764 0)
(-0.318555 -0.0425684 0)
(-0.319257 -0.0550042 0)
(-0.319905 -0.0674795 0)
(-0.320498 -0.0799912 0)
(-0.321025 -0.0925349 0)
(-0.321463 -0.105103 0)
(-0.321776 -0.117683 0)
(-0.321907 -0.13025 0)
(-0.321782 -0.142765 0)
(-0.3213 -0.155172 0)
(-0.32034 -0.167385 0)
(-0.318749 -0.179291 0)
(-0.316352 -0.190738 0)
(-0.312952 -0.20153 0)
(-0.308333 -0.211431 0)
(-0.302274 -0.22016 0)
(-0.294559 -0.227397 0)
(-0.284998 -0.232795 0)
(-0.273443 -0.235996 0)
(-0.259815 -0.236658 0)
(-0.244122 -0.234481 0)
(-0.226483 -0.229246 0)
(-0.207138 -0.220849 0)
(-0.186449 -0.209331 0)
(-0.16489 -0.194905 0)
(-0.14302 -0.177954 0)
(-0.121442 -0.159019 0)
(-0.100751 -0.138761 0)
(-0.081482 -0.117911 0)
(-0.064068 -0.0972013 0)
(-0.0488071 -0.0773132 0)
(-0.0358533 -0.0588316 0)
(-0.0252244 -0.0422212 0)
(-0.0168229 -0.0278241 0)
(-0.0104646 -0.0158762 0)
(-0.00590685 -0.00653387 0)
(-0.00287312 9.32798e-05 0)
(-0.00106904 0.00391142 0)
(-0.00019732 0.00481787 0)
(2.11661e-05 0.00268035 0)
(-0.302261 0.0441192 0)
(-0.303507 0.0320726 0)
(-0.304565 0.019905 0)
(-0.305479 0.0076511 0)
(-0.306282 -0.0046665 0)
(-0.307006 -0.0170311 0)
(-0.307677 -0.029432 0)
(-0.308318 -0.0418635 0)
(-0.308949 -0.0543244 0)
(-0.309583 -0.0668171 0)
(-0.310228 -0.0793463 0)
(-0.310886 -0.091918 0)
(-0.311547 -0.104537 0)
(-0.312191 -0.117206 0)
(-0.31278 -0.129918 0)
(-0.313259 -0.142658 0)
(-0.313549 -0.155392 0)
(-0.313542 -0.168066 0)
(-0.313106 -0.180591 0)
(-0.312071 -0.192845 0)
(-0.310241 -0.204659 0)
(-0.30739 -0.215812 0)
(-0.303272 -0.226033 0)
(-0.297629 -0.234993 0)
(-0.290212 -0.242321 0)
(-0.280798 -0.247608 0)
(-0.269217 -0.250439 0)
(-0.255376 -0.250415 0)
(-0.239291 -0.247198 0)
(-0.221106 -0.240552 0)
(-0.201107 -0.230389 0)
(-0.179723 -0.216802 0)
(-0.157508 -0.200091 0)
(-0.135102 -0.180761 0)
(-0.113181 -0.159492 0)
(-0.0923933 -0.137086 0)
(-0.0732994 -0.114396 0)
(-0.0563242 -0.0922482 0)
(-0.0417315 -0.0713801 0)
(-0.0296218 -0.0523957 0)
(-0.0199495 -0.0357518 0)
(-0.0125539 -0.0217678 0)
(-0.0071935 -0.0106544 0)
(-0.00357619 -0.00255161 0)
(-0.00138183 0.00243272 0)
(-0.000284495 0.00419005 0)
(1.51186e-05 0.00258247 0)
(-0.291471 0.0574036 0)
(-0.292557 0.0452836 0)
(-0.293462 0.0330534 0)
(-0.294223 0.0207436 0)
(-0.294878 0.00838296 0)
(-0.295455 -0.00400972 0)
(-0.295983 -0.0164213 0)
(-0.296486 -0.0288442 0)
(-0.296988 -0.041276 0)
(-0.297508 -0.0537188 0)
(-0.298065 -0.0661789 0)
(-0.298675 -0.0786662 0)
(-0.299348 -0.0911936 0)
(-0.300089 -0.103776 0)
(-0.300894 -0.116427 0)
(-0.301746 -0.129158 0)
(-0.30261 -0.141974 0)
(-0.303433 -0.154866 0)
(-0.304133 -0.167806 0)
(-0.304598 -0.180742 0)
(-0.30468 -0.193583 0)
(-0.304197 -0.206195 0)
(-0.302927 -0.218388 0)
(-0.300615 -0.229914 0)
(-0.296979 -0.240454 0)
(-0.291726 -0.249629 0)
(-0.284569 -0.257003 0)
(-0.275253 -0.262098 0)
(-0.263585 -0.264431 0)
(-0.249467 -0.263546 0)
(-0.232927 -0.259066 0)
(-0.214146 -0.250748 0)
(-0.193471 -0.238536 0)
(-0.171411 -0.222601 0)
(-0.14861 -0.203365 0)
(-0.125797 -0.181481 0)
(-0.10372 -0.157796 0)
(-0.0830693 -0.133267 0)
(-0.0644125 -0.108873 0)
(-0.0481459 -0.0855245 0)
(-0.0344779 -0.0639935 0)
(-0.023438 -0.0448833 0)
(-0.0149069 -0.0286255 0)
(-0.00865543 -0.015507 0)
(-0.00438259 -0.00571291 0)
(-0.00174476 0.000626076 0)
(-0.000387625 0.00339164 0)
(7.26517e-06 0.00243887 0)
(-0.281219 0.0584252 0)
(-0.282015 0.0461262 0)
(-0.282667 0.0337535 0)
(-0.283211 0.0213366 0)
(-0.283674 0.00889848 0)
(-0.284079 -0.00354504 0)
(-0.28445 -0.0159832 0)
(-0.284808 -0.0284102 0)
(-0.285171 -0.0408245 0)
(-0.285562 -0.0532291 0)
(-0.286 -0.0656318 0)
(-0.286507 -0.0780445 0)
(-0.287101 -0.0904838 0)
(-0.2878 -0.10297 0)
(-0.288614 -0.115528 0)
(-0.289546 -0.128179 0)
(-0.290584 -0.140947 0)
(-0.291701 -0.153846 0)
(-0.292844 -0.166877 0)
(-0.29393 -0.180019 0)
(-0.294841 -0.193221 0)
(-0.29542 -0.206389 0)
(-0.295462 -0.219374 0)
(-0.294722 -0.231963 0)
(-0.292912 -0.243869 0)
(-0.289712 -0.254723 0)
(-0.284791 -0.26408 0)
(-0.277823 -0.271429 0)
(-0.26852 -0.276216 0)
(-0.256672 -0.277879 0)
(-0.24218 -0.275904 0)
(-0.225097 -0.26988 0)
(-0.205655 -0.259574 0)
(-0.184279 -0.244987 0)
(-0.161574 -0.226404 0)
(-0.138284 -0.204402 0)
(-0.11523 -0.179824 0)
(-0.0932251 -0.153704 0)
(-0.0729835 -0.127166 0)
(-0.0550545 -0.101305 0)
(-0.0397805 -0.0770924 0)
(-0.0272922 -0.0553122 0)
(-0.0175333 -0.0365419 0)
(-0.0103028 -0.0211726 0)
(-0.00530017 -0.00945467 0)
(-0.00216243 -0.00155361 0)
(-0.00050847 0.00239636 0)
(-2.6792e-06 0.00224109 0)
(-0.267651 0.0958945 0)
(-0.268788 0.0838094 0)
(-0.269705 0.0715537 0)
(-0.270448 0.0591839 0)
(-0.271056 0.0467448 0)
(-0.271553 0.0342626 0)
(-0.271965 0.0217628 0)
(-0.272312 0.00926412 0)
(-0.272609 -0.00322006 0)
(-0.272872 -0.0156802 0)
(-0.273117 -0.0281104 0)
(-0.27336 -0.0405084 0)
(-0.27362 -0.0528761 0)
(-0.273919 -0.0652196 0)
(-0.27428 -0.0775502 0)
(-0.274728 -0.089885 0)
(-0.27529 -0.102247 0)
(-0.275989 -0.114664 0)
(-0.276846 -0.12717 0)
(-0.277871 -0.139799 0)
(-0.279062 -0.152585 0)
(-0.280396 -0.165555 0)
(-0.281824 -0.17872 0)
(-0.283262 -0.192068 0)
(-0.284586 -0.205548 0)
(-0.285624 -0.21906 0)
(-0.286153 -0.23244 0)
(-0.285895 -0.245442 0)
(-0.28453 -0.257732 0)
(-0.281696 -0.26888 0)
(-0.27702 -0.278364 0)
(-0.270135 -0.285586 0)
(-0.260728 -0.2899 0)
(-0.248572 -0.290665 0)
(-0.233582 -0.287305 0)
(-0.215849 -0.279392 0)
(-0.195677 -0.266724 0)
(-0.173585 -0.249397 0)
(-0.150291 -0.227854 0)
(-0.12665 -0.202873 0)
(-0.10357 -0.175522 0)
(-0.0819114 -0.147042 0)
(-0.0623873 -0.118719 0)
(-0.0454982 -0.0917437 0)
(-0.0315036 -0.0671179 0)
(-0.0204362 -0.0456041 0)
(-0.0121424 -0.0277321 0)
(-0.00633511 -0.0138431 0)
(-0.00263884 -0.00415412 0)
(-0.000648679 0.00117575 0)
(-1.5003e-05 0.00197976 0)
(-0.257193 0.0970177 0)
(-0.258114 0.0847177 0)
(-0.258869 0.0722915 0)
(-0.259494 0.0597878 0)
(-0.260016 0.0472406 0)
(-0.260451 0.0346725 0)
(-0.260816 0.0221042 0)
(-0.26112 0.00955067 0)
(-0.261373 -0.00297604 0)
(-0.261581 -0.0154665 0)
(-0.261755 -0.0279134 0)
(-0.261906 -0.040312 0)
(-0.262051 -0.052661 0)
(-0.262208 -0.0649629 0)
(-0.262404 -0.0772256 0)
(-0.262666 -0.0894634 0)
(-0.263028 -0.101698 0)
(-0.263524 -0.113959 0)
(-0.264189 -0.126284 0)
(-0.265051 -0.138716 0)
(-0.266131 -0.151305 0)
(-0.267437 -0.164097 0)
(-0.268951 -0.177133 0)
(-0.270628 -0.190436 0)
(-0.272383 -0.204002 0)
(-0.274083 -0.217782 0)
(-0.275539 -0.231665 0)
(-0.276504 -0.245465 0)
(-0.27667 -0.258896 0)
(-0.275674 -0.271568 0)
(-0.273113 -0.282974 0)
(-0.268566 -0.292499 0)
(-0.261632 -0.299444 0)
(-0.251969 -0.303064 0)
(-0.239351 -0.302629 0)
(-0.223716 -0.297515 0)
(-0.205218 -0.287294 0)
(-0.184251 -0.271834 0)
(-0.161454 -0.251377 0)
(-0.137671 -0.226574 0)
(-0.11387 -0.198459 0)
(-0.0910345 -0.168353 0)
(-0.0700453 -0.137712 0)
(-0.0515784 -0.107964 0)
(-0.0360502 -0.0803598 0)
(-0.0236102 -0.0558899 0)
(-0.0141766 -0.0352633 0)
(-0.00749158 -0.0189448 0)
(-0.0031772 -0.00722507 0)
(-0.000809681 -0.000300351 0)
(-2.99746e-05 0.0016447 0)
(-0.246475 0.0979534 0)
(-0.247294 0.0854932 0)
(-0.247992 0.0729418 0)
(-0.248598 0.0603383 0)
(-0.249125 0.0477081 0)
(-0.249582 0.0350694 0)
(-0.249976 0.0224379 0)
(-0.250306 0.0098262 0)
(-0.250574 -0.00275438 0)
(-0.250779 -0.0152933 0)
(-0.250925 -0.0277808 0)
(-0.251018 -0.0402083 0)
(-0.251072 -0.0525695 0)
(-0.251103 -0.0648616 0)
(-0.251134 -0.077087 0)
(-0.251198 -0.0892547 0)
(-0.251329 -0.101382 0)
(-0.25157 -0.113496 0)
(-0.251964 -0.125635 0)
(-0.252557 -0.137846 0)
(-0.253389 -0.150188 0)
(-0.254491 -0.162722 0)
(-0.255879 -0.175513 0)
(-0.257544 -0.188618 0)
(-0.259441 -0.202073 0)
(-0.261481 -0.215881 0)
(-0.263522 -0.229992 0)
(-0.265355 -0.244282 0)
(-0.266704 -0.258532 0)
(-0.267223 -0.272409 0)
(-0.266506 -0.285446 0)
(-0.264101 -0.297047 0)
(-0.259543 -0.306486 0)
(-0.252395 -0.312947 0)
(-0.242299 -0.315573 0)
(-0.229039 -0.313554 0)
(-0.212601 -0.30623 0)
(-0.193223 -0.293209 0)
(-0.171422 -0.274482 0)
(-0.147974 -0.250499 0)
(-0.123862 -0.222186 0)
(-0.100159 -0.19088 0)
(-0.0779 -0.158174 0)
(-0.0579463 -0.125728 0)
(-0.0408945 -0.0950704 0)
(-0.0270409 -0.0674622 0)
(-0.0164022 -0.0438377 0)
(-0.00877114 -0.024825 0)
(-0.00377967 -0.0108168 0)
(-0.000992665 -0.00206342 0)
(-4.78701e-05 0.00122503 0)
(-0.235693 0.0988124 0)
(-0.236507 0.0862398 0)
(-0.23724 0.0736009 0)
(-0.237908 0.0609245 0)
(-0.238516 0.0482288 0)
(-0.239065 0.0355269 0)
(-0.239549 0.0228304 0)
(-0.239961 0.0101503 0)
(-0.240294 -0.00250204 0)
(-0.240541 -0.0151141 0)
(-0.2407 -0.0276724 0)
(-0.240773 -0.0401638 0)
(-0.240767 -0.0525758 0)
(-0.240697 -0.0648991 0)
(-0.240583 -0.0771288 0)
(-0.240457 -0.0892669 0)
(-0.240355 -0.101324 0)
(-0.240323 -0.113321 0)
(-0.24041 -0.125293 0)
(-0.240672 -0.137287 0)
(-0.241166 -0.149365 0)
(-0.241942 -0.161599 0)
(-0.243044 -0.17407 0)
(-0.244495 -0.186863 0)
(-0.246292 -0.20005 0)
(-0.24839 -0.213682 0)
(-0.250695 -0.227769 0)
(-0.253048 -0.242257 0)
(-0.255218 -0.256998 0)
(-0.256894 -0.271734 0)
(-0.257688 -0.286064 0)
(-0.257142 -0.299433 0)
(-0.254755 -0.311128 0)
(-0.250017 -0.320295 0)
(-0.242462 -0.325987 0)
(-0.231728 -0.327231 0)
(-0.217631 -0.323143 0)
(-0.200231 -0.31306 0)
(-0.179883 -0.29668 0)
(-0.157251 -0.274186 0)
(-0.133273 -0.246315 0)
(-0.109068 -0.214339 0)
(-0.0857976 -0.179932 0)
(-0.0645045 -0.144962 0)
(-0.0459827 -0.111249 0)
(-0.030703 -0.0803643 0)
(-0.0188105 -0.0535171 0)
(-0.0101724 -0.0315453 0)
(-0.0044472 -0.0149793 0)
(-0.00119851 -0.00414564 0)
(-6.89373e-05 0.000709283 0)
(-0.22497 0.0996867 0)
(-0.225857 0.0870421 0)
(-0.226695 0.0743457 0)
(-0.227489 0.0616168 0)
(-0.228235 0.0488662 0)
(-0.228925 0.0361023 0)
(-0.229545 0.0233337 0)
(-0.23008 0.0105703 0)
(-0.230517 -0.00217537 0)
(-0.230843 -0.0148881 0)
(-0.231051 -0.0275503 0)
(-0.231137 -0.040143 0)
(-0.231106 -0.0526475 0)
(-0.230967 -0.0650468 0)
(-0.23074 -0.077328 0)
(-0.230451 -0.0894844 0)
(-0.230136 -0.101518 0)
(-0.229841 -0.113443 0)
(-0.22962 -0.125286 0)
(-0.229533 -0.137091 0)
(-0.229646 -0.148916 0)
(-0.230027 -0.160841 0)
(-0.230739 -0.172956 0)
(-0.231835 -0.185364 0)
(-0.233345 -0.198169 0)
(-0.235271 -0.211465 0)
(-0.237566 -0.225317 0)
(-0.240125 -0.239737 0)
(-0.24277 -0.25466 0)
(-0.245239 -0.269909 0)
(-0.24718 -0.285166 0)
(-0.248155 -0.299945 0)
(-0.247653 -0.313578 0)
(-0.245121 -0.325214 0)
(-0.240006 -0.333849 0)
(-0.231824 -0.338389 0)
(-0.220228 -0.33775 0)
(-0.205094 -0.330998 0)
(-0.18659 -0.317517 0)
(-0.165223 -0.297168 0)
(-0.141834 -0.270422 0)
(-0.117532 -0.238393 0)
(-0.093564 -0.202756 0)
(-0.0711356 -0.165542 0)
(-0.0512446 -0.128858 0)
(-0.0345602 -0.0946149 0)
(-0.0213857 -0.0643493 0)
(-0.0116903 -0.0391609 0)
(-0.00517932 -0.0197604 0)
(-0.00142772 -0.00657923 0)
(-9.34031e-05 8.5602e-05 0)
(-0.214362 0.100649 0)
(-0.215379 0.0879645 0)
(-0.216371 0.0752333 0)
(-0.217333 0.062465 0)
(-0.218255 0.0496641 0)
(-0.219117 0.0368348 0)
(-0.219901 0.0239834 0)
(-0.220585 0.0111197 0)
(-0.221152 -0.00174201 0)
(-0.221583 -0.0145831 0)
(-0.221868 -0.0273814 0)
(-0.221998 -0.040112 0)
(-0.221975 -0.0527495 0)
(-0.221803 -0.065269 0)
(-0.221499 -0.0776491 0)
(-0.221086 -0.0898742 0)
(-0.220597 -0.101937 0)
(-0.220074 -0.113841 0)
(-0.219572 -0.125605 0)
(-0.219152 -0.137264 0)
(-0.218886 -0.148873 0)
(-0.21885 -0.160507 0)
(-0.219123 -0.172263 0)
(-0.219779 -0.184255 0)
(-0.22088 -0.196609 0)
(-0.222465 -0.209455 0)
(-0.224533 -0.222905 0)
(-0.227034 -0.237037 0)
(-0.229847 -0.251864 0)
(-0.232768 -0.267298 0)
(-0.235496 -0.283116 0)
(-0.237632 -0.298924 0)
(-0.23868 -0.314125 0)
(-0.238072 -0.327908 0)
(-0.235201 -0.339257 0)
(-0.229483 -0.346997 0)
(-0.22043 -0.349881 0)
(-0.207738 -0.346729 0)
(-0.191378 -0.336602 0)
(-0.171667 -0.319006 0)
(-0.149302 -0.29407 0)
(-0.125325 -0.262662 0)
(-0.101014 -0.226361 0)
(-0.077706 -0.18729 0)
(-0.056595 -0.147815 0)
(-0.0385648 -0.110203 0)
(-0.024105 -0.076365 0)
(-0.0133163 -0.0477182 0)
(-0.00597387 -0.0252046 0)
(-0.00168032 -0.00939561 0)
(-0.000121457 -0.000658073 0)
(-0.203874 0.101749 0)
(-0.205057 0.0890493 0)
(-0.20623 0.0762989 0)
(-0.207383 0.0634985 0)
(-0.208495 0.0506471 0)
(-0.209543 0.0377455 0)
(-0.210503 0.0247989 0)
(-0.211349 0.0118177 0)
(-0.212058 -0.00118142 0)
(-0.212611 -0.0141761 0)
(-0.212992 -0.0271393 0)
(-0.213192 -0.0400404 0)
(-0.213206 -0.052847 0)
(-0.213038 -0.0655269 0)
(-0.212698 -0.0780501 0)
(-0.212206 -0.0903919 0)
(-0.211591 -0.102535 0)
(-0.210891 -0.114473 0)
(-0.210156 -0.126214 0)
(-0.209448 -0.137782 0)
(-0.208836 -0.149224 0)
(-0.208403 -0.160608 0)
(-0.208236 -0.17203 0)
(-0.208424 -0.183609 0)
(-0.209051 -0.195484 0)
(-0.210189 -0.207811 0)
(-0.211878 -0.220743 0)
(-0.214118 -0.234414 0)
(-0.216846 -0.248912 0)
(-0.21992 -0.264239 0)
(-0.223101 -0.280274 0)
(-0.226043 -0.296728 0)
(-0.228288 -0.3131 0)
(-0.229277 -0.328653 0)
(-0.228382 -0.342401 0)
(-0.224949 -0.353133 0)
(-0.218373 -0.359486 0)
(-0.208188 -0.360066 0)
(-0.194169 -0.353629 0)
(-0.176428 -0.339307 0)
(-0.155477 -0.316837 0)
(-0.132237 -0.286748 0)
(-0.107961 -0.250422 0)
(-0.0840715 -0.209982 0)
(-0.0619362 -0.167995 0)
(-0.0426586 -0.127086 0)
(-0.0269384 -0.0895735 0)
(-0.0150375 -0.0572521 0)
(-0.00682684 -0.031351 0)
(-0.00195584 -0.0126245 0)
(-0.00015324 -0.00153377 0)
(-0.193471 0.103015 0)
(-0.194834 0.0903176 0)
(-0.196197 0.0775571 0)
(-0.197543 0.064727 0)
(-0.198846 0.0518216 0)
(-0.200079 0.0388394 0)
(-0.201212 0.0257851 0)
(-0.202219 0.0126709 0)
(-0.203074 -0.000484032 0)
(-0.203754 -0.0136534 0)
(-0.204244 -0.0268052 0)
(-0.204531 -0.0399032 0)
(-0.204608 -0.0529086 0)
(-0.204475 -0.0657821 0)
(-0.20414 -0.0784861 0)
(-0.203617 -0.0909868 0)
(-0.20293 -0.103258 0)
(-0.202112 -0.115281 0)
(-0.201208 -0.127054 0)
(-0.200273 -0.138591 0)
(-0.199377 -0.149924 0)
(-0.198598 -0.161114 0)
(-0.198027 -0.172249 0)
(-0.197763 -0.183445 0)
(-0.197906 -0.194848 0)
(-0.198549 -0.20663 0)
(-0.19977 -0.218976 0)
(-0.20161 -0.232066 0)
(-0.204063 -0.246054 0)
(-0.207047 -0.261028 0)
(-0.210391 -0.276972 0)
(-0.213813 -0.293708 0)
(-0.216908 -0.310853 0)
(-0.219154 -0.32777 0)
(-0.219923 -0.343542 0)
(-0.218526 -0.356968 0)
(-0.214271 -0.366618 0)
(-0.206557 -0.370931 0)
(-0.194974 -0.36839 0)
(-0.179424 -0.357754 0)
(-0.160211 -0.338337 0)
(-0.138089 -0.310255 0)
(-0.114231 -0.27459 0)
(-0.0900855 -0.233352 0)
(-0.0671617 -0.189234 0)
(-0.0467742 -0.145186 0)
(-0.029849 -0.10396 0)
(-0.0168368 -0.067783 0)
(-0.00773225 -0.0382316 0)
(-0.00225317 -0.0162932 0)
(-0.000188833 -0.00255316 0)
(-0.183092 0.104456 0)
(-0.184632 0.0917715 0)
(-0.186177 0.0790051 0)
(-0.187704 0.066144 0)
(-0.189184 0.0531792 0)
(-0.190586 0.0401078 0)
(-0.19188 0.026935 0)
(-0.193037 0.0136749 0)
(-0.19403 0.000350013 0)
(-0.194838 -0.0130096 0)
(-0.195442 -0.0263671 0)
(-0.195828 -0.0396811 0)
(-0.195988 -0.0529072 0)
(-0.195919 -0.0659995 0)
(-0.195626 -0.0789134 0)
(-0.195118 -0.0916073 0)
(-0.194413 -0.104046 0)
(-0.19354 -0.116201 0)
(-0.192535 -0.128059 0)
(-0.191448 -0.13962 0)
(-0.19034 -0.150907 0)
(-0.189289 -0.161965 0)
(-0.188381 -0.172872 0)
(-0.187718 -0.183737 0)
(-0.187408 -0.194704 0)
(-0.187561 -0.205952 0)
(-0.18828 -0.217686 0)
(-0.189644 -0.230123 0)
(-0.191694 -0.243473 0)
(-0.194408 -0.257903 0)
(-0.197681 -0.273493 0)
(-0.201301 -0.290187 0)
(-0.204929 -0.307726 0)
(-0.208096 -0.325596 0)
(-0.210203 -0.342982 0)
(-0.210551 -0.358739 0)
(-0.208396 -0.371418 0)
(-0.203029 -0.379346 0)
(-0.193881 -0.380773 0)
(-0.18065 -0.374114 0)
(-0.163421 -0.358244 0)
(-0.142749 -0.332814 0)
(-0.11967 -0.298506 0)
(-0.0956071 -0.257105 0)
(-0.0721614 -0.211327 0)
(-0.0508376 -0.16439 0)
(-0.0327939 -0.119485 0)
(-0.0186932 -0.0793152 0)
(-0.00868207 -0.0458698 0)
(-0.00257055 -0.020425 0)
(-0.000228233 -0.00372729 0)
(-0.172662 0.106065 0)
(-0.174362 0.0933979 0)
(-0.176067 0.0806258 0)
(-0.177752 0.0677304 0)
(-0.179385 0.0547002 0)
(-0.180933 0.041532 0)
(-0.182367 0.0282323 0)
(-0.183656 0.0148175 0)
(-0.184775 0.00131335 0)
(-0.185703 -0.0122459 0)
(-0.186419 -0.0258194 0)
(-0.186911 -0.0393609 0)
(-0.187169 -0.0528208 0)
(-0.187188 -0.0661482 0)
(-0.186968 -0.0792921 0)
(-0.186517 -0.0922041 0)
(-0.185846 -0.104841 0)
(-0.184978 -0.117165 0)
(-0.183942 -0.129152 0)
(-0.182779 -0.140791 0)
(-0.181544 -0.15209 0)
(-0.180305 -0.163081 0)
(-0.179144 -0.173828 0)
(-0.178159 -0.184426 0)
(-0.177461 -0.195013 0)
(-0.177169 -0.205766 0)
(-0.177402 -0.216899 0)
(-0.178268 -0.228657 0)
(-0.179848 -0.241292 0)
(-0.182172 -0.255039 0)
(-0.1852 -0.27007 0)
(-0.188791 -0.286442 0)
(-0.192678 -0.30403 0)
(-0.196458 -0.322459 0)
(-0.19958 -0.34104 0)
(-0.201366 -0.358723 0)
(-0.201047 -0.374093 0)
(-0.197838 -0.385413 0)
(-0.19104 -0.390761 0)
(-0.180168 -0.388241 0)
(-0.165086 -0.376302 0)
(-0.146128 -0.354096 0)
(-0.124157 -0.321824 0)
(-0.10051 -0.280933 0)
(-0.0768278 -0.23404 0)
(-0.0547713 -0.184555 0)
(-0.0357253 -0.136081 0)
(-0.0205821 -0.0918347 0)
(-0.00966628 -0.0542784 0)
(-0.00290553 -0.0250389 0)
(-0.000271344 -0.00506617 0)
(-0.162104 0.10782 0)
(-0.163936 0.0951722 0)
(-0.165772 0.0823921 0)
(-0.167583 0.069458 0)
(-0.169338 0.0563571 0)
(-0.171004 0.0430866 0)
(-0.172551 0.0296547 0)
(-0.17395 0.0160807 0)
(-0.175179 0.00239352 0)
(-0.176214 -0.0113688 0)
(-0.177038 -0.0251614 0)
(-0.177638 -0.0389342 0)
(-0.178003 -0.0526332 0)
(-0.178128 -0.066203 0)
(-0.178009 -0.0795877 0)
(-0.17765 -0.092733 0)
(-0.177059 -0.105589 0)
(-0.176251 -0.11811 0)
(-0.175249 -0.130263 0)
(-0.174086 -0.142024 0)
(-0.172806 -0.153388 0)
(-0.171468 -0.164373 0)
(-0.170147 -0.175026 0)
(-0.168933 -0.185428 0)
(-0.167934 -0.195704 0)
(-0.16727 -0.206021 0)
(-0.16707 -0.216596 0)
(-0.167462 -0.227685 0)
(-0.168557 -0.239574 0)
(-0.170431 -0.252552 0)
(-0.1731 -0.266872 0)
(-0.176491 -0.282699 0)
(-0.180414 -0.300038 0)
(-0.184538 -0.318663 0)
(-0.188379 -0.338031 0)
(-0.191296 -0.35722 0)
(-0.192528 -0.374891 0)
(-0.191246 -0.389305 0)
(-0.18665 -0.398417 0)
(-0.178096 -0.400078 0)
(-0.165242 -0.392333 0)
(-0.148194 -0.373829 0)
(-0.127609 -0.344226 0)
(-0.10469 -0.304525 0)
(-0.0810615 -0.257121 0)
(-0.058498 -0.205508 0)
(-0.0385928 -0.153656 0)
(-0.022476 -0.105309 0)
(-0.0106731 -0.0634588 0)
(-0.00325498 -0.030148 0)
(-0.000317962 -0.00657846 0)
(-0.151344 0.109693 0)
(-0.153275 0.0970622 0)
(-0.155207 0.0842703 0)
(-0.15711 0.0712934 0)
(-0.158952 0.0581179 0)
(-0.160703 0.0447422 0)
(-0.162335 0.0311767 0)
(-0.163821 0.0174434 0)
(-0.165139 0.00357472 0)
(-0.166268 -0.0103881 0)
(-0.167193 -0.0243966 0)
(-0.1679 -0.0383973 0)
(-0.168378 -0.0523329 0)
(-0.168621 -0.0661442 0)
(-0.168624 -0.0797716 0)
(-0.168387 -0.0931564 0)
(-0.167915 -0.106243 0)
(-0.167215 -0.118979 0)
(-0.166305 -0.131322 0)
(-0.165209 -0.14324 0)
(-0.163963 -0.154713 0)
(-0.162614 -0.165747 0)
(-0.161227 -0.17637 0)
(-0.159882 -0.186647 0)
(-0.15868 -0.196685 0)
(-0.157737 -0.206639 0)
(-0.157184 -0.216717 0)
(-0.157161 -0.227179 0)
(-0.157799 -0.238331 0)
(-0.159211 -0.250502 0)
(-0.161461 -0.264012 0)
(-0.16454 -0.279124 0)
(-0.168329 -0.295969 0)
(-0.172578 -0.31447 0)
(-0.176874 -0.334245 0)
(-0.180637 -0.354524 0)
(-0.183134 -0.374084 0)
(-0.183522 -0.391234 0)
(-0.180934 -0.403869 0)
(-0.174594 -0.409639 0)
(-0.163975 -0.406236 0)
(-0.148961 -0.391806 0)
(-0.129982 -0.365435 0)
(-0.108069 -0.327587 0)
(-0.0847774 -0.280309 0)
(-0.061945 -0.227056 0)
(-0.0413455 -0.172093 0)
(-0.0243453 -0.119685 0)
(-0.0116891 -0.0733998 0)
(-0.00361512 -0.0357593 0)
(-0.000367775 -0.00827113 0)
(-0.140325 0.111649 0)
(-0.142317 0.099031 0)
(-0.144306 0.0862235 0)
(-0.146263 0.0732006 0)
(-0.148158 0.0599489 0)
(-0.149963 0.0464683 0)
(-0.151652 0.0327716 0)
(-0.1532 0.0188836 0)
(-0.154588 0.00483983 0)
(-0.155797 -0.00931534 0)
(-0.156813 -0.0235306 0)
(-0.157622 -0.0377497 0)
(-0.158215 -0.0519126 0)
(-0.158585 -0.0659576 0)
(-0.158726 -0.0798219 0)
(-0.158634 -0.0934436 0)
(-0.158311 -0.106762 0)
(-0.15776 -0.119722 0)
(-0.156991 -0.132272 0)
(-0.156022 -0.14437 0)
(-0.154878 -0.155988 0)
(-0.153598 -0.167114 0)
(-0.152234 -0.177764 0)
(-0.150855 -0.187982 0)
(-0.149552 -0.197857 0)
(-0.148431 -0.207526 0)
(-0.147622 -0.217182 0)
(-0.147266 -0.22708 0)
(-0.14751 -0.237533 0)
(-0.148489 -0.248898 0)
(-0.150309 -0.261549 0)
(-0.153013 -0.275831 0)
(-0.156555 -0.291992 0)
(-0.160759 -0.3101 0)
(-0.165291 -0.32994 0)
(-0.169645 -0.350914 0)
(-0.173134 -0.371947 0)
(-0.174929 -0.391441 0)
(-0.174125 -0.40729 0)
(-0.169849 -0.417006 0)
(-0.161412 -0.417978 0)
(-0.148487 -0.407885 0)
(-0.131273 -0.385224 0)
(-0.110601 -0.349849 0)
(-0.0879091 -0.303343 0)
(-0.0650479 -0.248992 0)
(-0.0439344 -0.191256 0)
(-0.0261602 -0.134893 0)
(-0.0127001 -0.0840774 0)
(-0.00398166 -0.0418727 0)
(-0.000420359 -0.0101491 0)
(-0.129 0.113649 0)
(-0.131015 0.10104 0)
(-0.133023 0.088214 0)
(-0.134999 0.0751439 0)
(-0.136913 0.0618171 0)
(-0.138742 0.0482353 0)
(-0.14046 0.0344136 0)
(-0.142048 0.0203796 0)
(-0.143487 0.00617177 0)
(-0.144761 -0.00816296 0)
(-0.145857 -0.0225709 0)
(-0.146764 -0.0369934 0)
(-0.147473 -0.0513688 0)
(-0.147975 -0.0656333 0)
(-0.148263 -0.0797222 0)
(-0.148333 -0.0935713 0)
(-0.148183 -0.107117 0)
(-0.147812 -0.120299 0)
(-0.147225 -0.133062 0)
(-0.146431 -0.145355 0)
(-0.14545 -0.15714 0)
(-0.144308 -0.168395 0)
(-0.143047 -0.179118 0)
(-0.141724 -0.189336 0)
(-0.140417 -0.199117 0)
(-0.139222 -0.208577 0)
(-0.13826 -0.217892 0)
(-0.137669 -0.227303 0)
(-0.1376 -0.237119 0)
(-0.138207 -0.247713 0)
(-0.139623 -0.259496 0)
(-0.141939 -0.272882 0)
(-0.145167 -0.288222 0)
(-0.149206 -0.305722 0)
(-0.153803 -0.325334 0)
(-0.158529 -0.346641 0)
(-0.162763 -0.368744 0)
(-0.165711 -0.390176 0)
(-0.166457 -0.408884 0)
(-0.16406 -0.422305 0)
(-0.157701 -0.427589 0)
(-0.146862 -0.42199 0)
(-0.131514 -0.403419 0)
(-0.11227 -0.371077 0)
(-0.0904116 -0.325979 0)
(-0.0677539 -0.271104 0)
(-0.046315 -0.210997 0)
(-0.0278911 -0.150847 0)
(-0.0136913 -0.0954552 0)
(-0.00434989 -0.0484807 0)
(-0.000475193 -0.0122151 0)
(-0.117339 0.115655 0)
(-0.11934 0.103052 0)
(-0.121333 0.0902059 0)
(-0.123293 0.0770896 0)
(-0.125196 0.0636917 0)
(-0.12702 0.0500155 0)
(-0.128745 0.0360787 0)
(-0.130351 0.0219114 0)
(-0.131824 0.00755437 0)
(-0.13315 -0.00694307 0)
(-0.134317 -0.0215253 0)
(-0.135316 -0.0361322 0)
(-0.136137 -0.0507007 0)
(-0.136773 -0.0651657 0)
(-0.137216 -0.0794616 0)
(-0.137459 -0.0935225 0)
(-0.137499 -0.107283 0)
(-0.137331 -0.12068 0)
(-0.136956 -0.133653 0)
(-0.136378 -0.146146 0)
(-0.135606 -0.158113 0)
(-0.134661 -0.16952 0)
(-0.133572 -0.180352 0)
(-0.132385 -0.190618 0)
(-0.131163 -0.200366 0)
(-0.129993 -0.209691 0)
(-0.12898 -0.218745 0)
(-0.128257 -0.22775 0)
(-0.127973 -0.237006 0)
(-0.128289 -0.246887 0)
(-0.129358 -0.257828 0)
(-0.131306 -0.270295 0)
(-0.134197 -0.284728 0)
(-0.137998 -0.301458 0)
(-0.142534 -0.320599 0)
(-0.147457 -0.341921 0)
(-0.152221 -0.364715 0)
(-0.156085 -0.387682 0)
(-0.158147 -0.408869 0)
(-0.157429 -0.4257 0)
(-0.15301 -0.435148 0)
(-0.144204 -0.434097 0)
(-0.130769 -0.419901 0)
(-0.113088 -0.391081 0)
(-0.0922624 -0.347993 0)
(-0.0700243 -0.293186 0)
(-0.0484493 -0.231155 0)
(-0.0295108 -0.167449 0)
(-0.0146479 -0.107485 0)
(-0.00471482 -0.0555687 0)
(-0.000531651 -0.0144694 0)
(-0.10533 0.117631 0)
(-0.107283 0.105032 0)
(-0.109228 0.0921661 0)
(-0.111143 0.0790072 0)
(-0.113008 0.0655449 0)
(-0.114804 0.0517845 0)
(-0.116512 0.0377456 0)
(-0.118119 0.0234607 0)
(-0.119611 0.00897277 0)
(-0.120976 -0.00566725 0)
(-0.122205 -0.0204022 0)
(-0.123289 -0.035171 0)
(-0.12422 -0.0499095 0)
(-0.124989 -0.0645524 0)
(-0.12559 -0.0790334 0)
(-0.126014 -0.0932859 0)
(-0.126255 -0.107244 0)
(-0.126307 -0.120841 0)
(-0.126166 -0.134015 0)
(-0.125832 -0.146705 0)
(-0.125308 -0.158858 0)
(-0.124605 -0.170432 0)
(-0.123745 -0.181397 0)
(-0.122761 -0.191749 0)
(-0.121704 -0.201515 0)
(-0.120646 -0.210768 0)
(-0.119681 -0.219636 0)
(-0.118929 -0.22832 0)
(-0.118531 -0.237099 0)
(-0.118648 -0.246341 0)
(-0.119447 -0.256491 0)
(-0.121077 -0.268053 0)
(-0.123645 -0.281537 0)
(-0.127175 -0.297385 0)
(-0.131566 -0.315865 0)
(-0.136552 -0.336929 0)
(-0.141667 -0.360072 0)
(-0.146236 -0.384188 0)
(-0.149393 -0.407465 0)
(-0.150149 -0.42737 0)
(-0.147507 -0.440767 0)
(-0.140645 -0.444233 0)
(-0.129122 -0.434602 0)
(-0.113095 -0.409708 0)
(-0.0934616 -0.369189 0)
(-0.0718361 -0.315039 0)
(-0.0503078 -0.251567 0)
(-0.030995 -0.184588 0)
(-0.0155556 -0.120109 0)
(-0.00507123 -0.0631148 0)
(-0.00058896 -0.0169095 0)
(-0.0929739 0.119545 0)
(-0.0948493 0.106949 0)
(-0.0967188 0.0940656 0)
(-0.0985638 0.0808702 0)
(-0.100367 0.067353 0)
(-0.102113 0.0535211 0)
(-0.103789 0.0393962 0)
(-0.10538 0.0250125 0)
(-0.106878 0.0104146 0)
(-0.108272 -0.0043452 0)
(-0.109554 -0.0192087 0)
(-0.110717 -0.034114 0)
(-0.111753 -0.0489971 0)
(-0.112654 -0.0637923 0)
(-0.113413 -0.0784333 0)
(-0.114021 -0.0928537 0)
(-0.11447 -0.106987 0)
(-0.114752 -0.120766 0)
(-0.11486 -0.134126 0)
(-0.114791 -0.147003 0)
(-0.114542 -0.159339 0)
(-0.114117 -0.171083 0)
(-0.11353 -0.182197 0)
(-0.112804 -0.192661 0)
(-0.111979 -0.202485 0)
(-0.111111 -0.211719 0)
(-0.110281 -0.220469 0)
(-0.109594 -0.22891 0)
(-0.109182 -0.237297 0)
(-0.1092 -0.245982 0)
(-0.109817 -0.255411 0)
(-0.111199 -0.266108 0)
(-0.113484 -0.278639 0)
(-0.116744 -0.293541 0)
(-0.120947 -0.311217 0)
(-0.125902 -0.3318 0)
(-0.131227 -0.354993 0)
(-0.136321 -0.379899 0)
(-0.14037 -0.404882 0)
(-0.142397 -0.427505 0)
(-0.14136 -0.444585 0)
(-0.136326 -0.45246 0)
(-0.126675 -0.447494 0)
(-0.112349 -0.426851 0)
(-0.0940295 -0.3894 0)
(-0.0731826 -0.336477 0)
(-0.0518717 -0.272072 0)
(-0.0323249 -0.202147 0)
(-0.0164021 -0.133259 0)
(-0.005414 -0.0710898 0)
(-0.000646219 -0.0195303 0)
(-0.080287 0.121368 0)
(-0.0820599 0.108776 0)
(-0.0838304 0.0958807 0)
(-0.0855835 0.0826568 0)
(-0.0873059 0.0690965 0)
(-0.0889854 0.0552084 0)
(-0.0906113 0.0410156 0)
(-0.0921743 0.0265538 0)
(-0.093666 0.0118688 0)
(-0.0950789 -0.00298607 0)
(-0.0964063 -0.0179521 0)
(-0.0976414 -0.0329673 0)
(-0.0987774 -0.0479676 0)