/*--------------------------------*- C++ -*----------------------------------*\
  =========                 |
  \\      /  F ield         | OpenFOAM: The Open Source CFD Toolbox
   \\    /   O peration     | Website:  https://openfoam.org
    \\  /    A nd           | Version:  9
     \\/     M anipulation  |
\*---------------------------------------------------------------------------*/
FoamFile
{
    format      ascii;
    class       volScalarField;
    location    "0.5";
    object      p;
}
// * * * * * * * * * * * * * * * * * * * * * * * * * * * * * * * * * * * * * //

dimensions      [0 2 -2 0 0 0 0];

internalField   nonuniform List<scalar> 
10000
(
-3.16747e-10
-3.69949e-06
-1.06404e-05
-1.90683e-05
-2.72981e-05
-3.43881e-05
-3.96771e-05
-4.2772e-05
-4.34643e-05
-4.16631e-05
-3.73517e-05
-3.05581e-05
-2.13355e-05
-9.74929e-06
4.13163e-06
2.02404e-05
3.85154e-05
5.89023e-05
8.13544e-05
0.000105833
0.000132306
0.000160749
0.000191142
0.000223467
0.000257713
0.000293869
0.000331925
0.000371873
0.000413703
0.000457402
0.000502956
0.000550349
0.000599558
0.000650558
0.000703318
0.0007578
0.000813962
0.00087175
0.000931107
0.000991963
0.00105424
0.00111786
0.00118271
0.0012487
0.0013157
0.00138359
0.00145222
0.00152145
0.00159111
0.00166104
0.00173106
0.00180096
0.00187055
0.00193964
0.00200799
0.00207541
0.00214168
0.00220656
0.00226985
0.00233132
0.00239077
0.002448
0.0025028
0.00255499
0.00260441
0.0026509
0.00269432
0.00273455
0.0027715
0.00280509
0.00283526
0.00286198
0.00288525
0.00290507
0.00292149
0.00293457
0.00294439
0.00295105
0.00295469
0.00295544
0.00295347
0.00294896
0.0029421
0.0029331
0.0029222
0.00290964
0.00289566
0.00288053
0.00286456
0.00284803
0.00283129
0.00281468
0.0027986
0.00278347
0.00276977
0.00275802
0.00274878
0.00274256
0.00273985
0.00274078
3.69217e-06
-3.47424e-08
-5.41045e-06
-1.15662e-05
-1.75126e-05
-2.24857e-05
-2.59466e-05
-2.75378e-05
-2.70355e-05
-2.43134e-05
-1.93135e-05
-1.20235e-05
-2.45977e-06
9.34384e-06
2.33449e-05
3.94981e-05
5.77587e-05
7.80856e-05
0.000100442
0.000124796
0.000151122
0.000179396
0.0002096
0.000241719
0.00027574
0.00031165
0.00034944
0.000389097
0.000430612
0.000473969
0.000519151
0.000566139
0.00061491
0.000665435
0.000717682
0.000771611
0.000827176
0.000884325
0.000942996
0.00100312
0.00106462
0.00112741
0.00119139
0.00125645
0.00132248
0.00138935
0.00145692
0.00152504
0.00159356
0.00166231
0.0017311
0.00179976
0.00186808
0.00193588
0.00200293
0.00206904
0.002134
0.00219758
0.00225957
0.00231978
0.00237799
0.00243402
0.00248766
0.00253875
0.00258712
0.00263263
0.00267514
0.00271454
0.00275074
0.00278366
0.00281326
0.00283951
0.0028624
0.00288195
0.00289821
0.00291122
0.00292109
0.00292791
0.00293181
0.00293294
0.00293146
0.00292755
0.00292142
0.00291328
0.00290335
0.00289188
0.00287913
0.00286536
0.00285087
0.00283594
0.00282092
0.00280612
0.0027919
0.00277865
0.00276676
0.00275664
0.00274869
0.00274325
0.00274075
0.0027417
1.06922e-05
5.2979e-06
-1.22465e-07
-5.53711e-06
-1.04803e-05
-1.43701e-05
-1.67852e-05
-1.74363e-05
-1.61283e-05
-1.27402e-05
-7.20659e-06
4.97741e-07
1.03715e-05
2.23964e-05
3.65444e-05
5.27826e-05
7.10775e-05
9.1397e-05
0.000113712
0.000137996
0.000164226
0.000192385
0.000222454
0.000254419
0.000288269
0.000323992
0.000361576
0.000401011
0.000442282
0.000485377
0.000530276
0.00057696
0.000625403
0.000675576
0.000727446
0.000780972
0.000836108
0.0008928
0.000950987
0.0010106
0.00107156
0.00113377
0.00119716
0.00126159
0.00132697
0.00139316
0.00146002
0.00152741
0.00159518
0.00166315
0.00173116
0.00179901
0.00186652
0.00193348
0.0019997
0.00206498
0.00212909
0.00219184
0.00225301
0.0023124
0.00236982
0.00242506
0.00247795
0.00252832
0.002576
0.00262084
0.00266274
0.00270156
0.00273723
0.00276967
0.00279883
0.0028247
0.00284727
0.00286655
0.0028826
0.00289547
0.00290526
0.00291207
0.00291603
0.00291729
0.00291602
0.0029124
0.00290663
0.00289894
0.00288954
0.00287869
0.00286665
0.00285367
0.00284006
0.0028261
0.0028121
0.00279837
0.00278526
0.0027731
0.00276223
0.00275299
0.00274571
0.00274064
0.00273822
0.00273904
1.92887e-05
1.1431e-05
5.16112e-06
-2.89136e-07
-4.90522e-06
-8.25986e-06
-1.00452e-05
-1.0056e-05
-8.14704e-06
-4.2235e-06
1.76819e-06
9.85108e-06
2.00269e-05
3.22834e-05
4.65998e-05
6.29512e-05
8.13114e-05
0.000101655
0.000123958
0.000148201
0.000174364
0.000202432
0.000232389
0.000264225
0.000297927
0.000333485
0.000370889
0.000410126
0.000451185
0.00049405
0.000538703
0.000585124
0.000633288
0.000683165
0.00073472
0.000787914
0.000842699
0.000899022
0.000956821
0.00101603
0.00107656
0.00113834
0.00120126
0.00126523
0.00133011
0.0013958
0.00146214
0.00152901
0.00159623
0.00166365
0.00173109
0.00179837
0.00186531
0.00193169
0.00199733
0.00206202
0.00212555
0.00218772
0.00224832
0.00230714
0.00236399
0.00241869
0.00247103
0.00252087
0.00256804
0.00261239
0.0026538
0.00269217
0.0027274
0.00275942
0.00278821
0.00281372
0.00283596
0.00285495
0.00287074
0.00288339
0.002893
0.00289968
0.00290355
0.00290478
0.00290353
0.00289998
0.00289436
0.00288686
0.00287773
0.00286722
0.00285558
0.00284309
0.00283002
0.00281666
0.00280332
0.00279028
0.00277786
0.00276637
0.0027561
0.00274735
0.00274038
0.00273541
0.00273279
0.00273304
2.77584e-05
1.73203e-05
9.90494e-06
4.06765e-06
-5.57917e-07
-3.6688e-06
-5.05975e-06
-4.60942e-06
-2.22834e-06
2.14366e-06
8.53973e-06
1.69724e-05
2.74397e-05
3.99297e-05
5.44247e-05
7.09041e-05
8.9347e-05
0.000109733
0.000132043
0.000156261
0.000182373
0.000210364
0.000240224
0.000271942
0.000305508
0.000340914
0.00037815
0.000417205
0.000458067
0.00050072
0.000545149
0.000591332
0.000639244
0.000688856
0.000740135
0.000793039
0.000847522
0.000903531
0.000961005
0.00101988
0.00108007
0.00114149
0.00120405
0.00126764
0.00133214
0.00139744
0.00146339
0.00152986
0.00159668
0.0016637
0.00173073
0.0017976
0.00186413
0.0019301
0.00199533
0.00205961
0.00212273
0.00218448
0.00224467
0.00230309
0.00235953
0.00241382
0.00246576
0.0025152
0.00256196
0.00260592
0.00264694
0.00268491
0.00271976
0.00275141
0.00277982
0.00280497
0.00282686
0.00284552
0.002861
0.00287336
0.0028827
0.00288914
0.00289281
0.00289387
0.00289249
0.00288887
0.00288321
0.00287574
0.0028667
0.00285633
0.00284489
0.00283266
0.00281992
0.00280693
0.002794
0.00278141
0.00276943
0.00275836
0.00274844
0.00273994
0.00273306
0.00272799
0.00272495
0.00272424
3.5054e-05
2.20895e-05
1.34075e-05
6.97475e-06
2.11147e-06
-9.73318e-07
-2.16115e-06
-1.4073e-06
1.32283e-06
6.05191e-06
1.27882e-05
2.15287e-05
3.22629e-05
4.49749e-05
5.96466e-05
7.62591e-05
9.4794e-05
0.000115235
0.000137566
0.000161774
0.000187848
0.000215778
0.000245555
0.00027717
0.000310617
0.000345887
0.000382973
0.000421865
0.000462551
0.000505018
0.00054925
0.000595227
0.000642924
0.000692313
0.00074336
0.000796026
0.000850266
0.000906026
0.000963248
0.00102186
0.00108179
0.00114295
0.00120525
0.00126858
0.00133283
0.00139787
0.00146356
0.00152978
0.00159635
0.00166312
0.00172991
0.00179654
0.00186282
0.00192856
0.00199356
0.0020576
0.00212049
0.00218201
0.00224196
0.00230014
0.00235634
0.00241037
0.00246205
0.00251121
0.00255769
0.00260135
0.00264206
0.00267972
0.00271423
0.00274554
0.0027736
0.00279839
0.00281992
0.00283821
0.00285332
0.00286532
0.0028743
0.0028804
0.00288375
0.00288451
0.00288286
0.00287901
0.00287316
0.00286554
0.0028564
0.00284598
0.00283455
0.00282238
0.00280974
0.00279691
0.00278417
0.00277179
0.00276004
0.00274915
0.00273938
0.00273092
0.00272395
0.00271861
0.00271502
0.00271319
4.03418e-05
2.50334e-05
1.50777e-05
7.94504e-06
2.70396e-06
-5.04493e-07
-1.63232e-06
-7.01575e-07
2.27179e-06
7.27367e-06
1.42861e-05
2.32881e-05
3.42577e-05
4.71724e-05
6.20111e-05
7.87541e-05
9.73839e-05
0.000117886
0.000140247
0.000164457
0.000190507
0.00021839
0.000248099
0.000279628
0.000312973
0.000348128
0.000385084
0.000423836
0.000464373
0.000506683
0.000550751
0.000596558
0.000644081
0.000693293
0.000744161
0.000796647
0.000850707
0.000906289
0.000963335
0.00102178
0.00108154
0.00114254
0.00120469
0.00126787
0.00133198
0.0013969
0.00146248
0.00152859
0.00159506
0.00166174
0.00172846
0.00179502
0.00186124
0.00192692
0.00199186
0.00205585
0.00211869
0.00218015
0.00224004
0.00229814
0.00235425
0.00240817
0.00245973
0.00250874
0.00255505
0.00259851
0.002639
0.0026764
0.00271063
0.00274163
0.00276935
0.00279378
0.00281492
0.0028328
0.00284749
0.00285905
0.0028676
0.00287326
0.00287617
0.00287651
0.00287446
0.00287022
0.00286402
0.00285609
0.00284668
0.00283604
0.00282443
0.00281213
0.00279941
0.00278654
0.00277379
0.00276142
0.00274968
0.0027388
0.00272899
0.00272041
0.00271322
0.00270753
0.00270332
0.00270036
4.30074e-05
2.55876e-05
1.44203e-05
6.56e-06
8.72594e-07
-2.54912e-06
-3.7132e-06
-2.69822e-06
4.35285e-07
5.63924e-06
1.28702e-05
2.20888e-05
3.32605e-05
4.63549e-05
6.1346e-05
7.82119e-05
9.69348e-05
0.0001175
0.000139898
0.000164118
0.000190155
0.000218004
0.000247661
0.000279121
0.000312383
0.000347442
0.000384293
0.000422931
0.000463348
0.000505533
0.000549473
0.000595151
0.000642546
0.00069163
0.000742374
0.000794742
0.000848689
0.000904167
0.000961118
0.00101948
0.00107917
0.00114011
0.00120222
0.00126537
0.00132948
0.0013944
0.00146
0.00152615
0.00159268
0.00165944
0.00172624
0.0017929
0.00185923
0.00192503
0.00199009
0.0020542
0.00211715
0.00217873
0.00223871
0.00229689
0.00235306
0.00240702
0.00245858
0.00250757
0.00255381
0.00259716
0.0026375
0.00267471
0.0027087
0.00273941
0.0027668
0.00279085
0.00281158
0.00282901
0.00284322
0.00285428
0.0028623
0.00286741
0.00286978
0.00286958
0.00286699
0.00286224
0.00285555
0.00284716
0.00283731
0.00282628
0.00281433
0.00280173
0.00278876
0.00277567
0.00276275
0.00275022
0.00273834
0.00272732
0.00271733
0.00270852
0.00270102
0.00269493
0.00269011
0.00268614
4.25895e-05
2.32956e-05
1.10114e-05
2.44111e-06
-3.7142e-06
-7.39624e-06
-8.65742e-06
-7.62331e-06
-4.39283e-06
9.55747e-07
8.35558e-06
1.77499e-05
2.90914e-05
4.23411e-05
5.74675e-05
7.44458e-05
9.32566e-05
0.000113886
0.000136323
0.00016056
0.000186595
0.000214422
0.000244042
0.000275452
0.00030865
0.000343637
0.000380408
0.000418961
0.00045929
0.000501387
0.000545239
0.000590832
0.000638146
0.000687157
0.000737836
0.00079015
0.000844056
0.000899508
0.000956449
0.00101482
0.00107454
0.00113553
0.0011977
0.00126096
0.00132517
0.00139024
0.00145601
0.00152235
0.00158909
0.00165608
0.00172313
0.00179005
0.00185666
0.00192275
0.0019881
0.00205251
0.00211574
0.00217759
0.00223783
0.00229625
0.00235262
0.00240675
0.00245844
0.00250751
0.00255378
0.00259711
0.00263736
0.00267443
0.00270821
0.00273866
0.00276572
0.00278938
0.00280966
0.0028266
0.00284026
0.00285074
0.00285814
0.00286262
0.00286434
0.00286347
0.00286022
0.00285482
0.00284749
0.00283849
0.00282808
0.00281651
0.00280407
0.00279102
0.00277764
0.00276419
0.00275094
0.00273813
0.00272597
0.00271468
0.00270442
0.00269531
0.00268746
0.00268096
0.0026756
0.00267079
3.87285e-05
1.77834e-05
4.48861e-06
-4.74917e-06
-1.13652e-05
-1.53262e-05
-1.67198e-05
-1.57104e-05
-1.24295e-05
-6.98145e-06
5.45932e-07
1.00799e-05
2.15614e-05
3.49428e-05
5.01872e-05
6.7266e-05
8.61581e-05
0.000106849
0.000129328
0.000153589
0.00017963
0.000207449
0.000237047
0.000268425
0.000301582
0.000336521
0.000373241
0.000411741
0.000452017
0.000494064
0.000537872
0.000583427
0.000630714
0.000679709
0.000730388
0.000782717
0.000836658
0.000892166
0.000949186
0.00100766
0.00106751
0.00112866
0.00119102
0.00125449
0.00131896
0.0013843
0.00145039
0.00151706
0.00158417
0.00165155
0.00171902
0.00178638
0.00185344
0.00191998
0.0019858
0.00205066
0.00211435
0.00217664
0.0022373
0.00229609
0.00235281
0.00240724
0.00245918
0.00250843
0.00255483
0.00259821
0.00263844
0.0026754
0.00270901
0.0027392
0.00276592
0.00278918
0.00280897
0.00282536
0.00283841
0.00284822
0.00285492
0.00285866
0.0028596
0.00285795
0.00285392
0.00284774
0.00283964
0.0028299
0.00281877
0.00280653
0.00279345
0.00277982
0.0027659
0.00275196
0.00273827
0.00272504
0.00271252
0.00270087
0.00269026
0.00268081
0.00267261
0.00266572
0.00265991
0.00265446
3.11352e-05
8.7412e-06
-5.45746e-06
-1.53083e-05
-2.23611e-05
-2.66012e-05
-2.81443e-05
-2.71872e-05
-2.38888e-05
-1.83758e-05
-1.07542e-05
-1.11088e-06
1.04843e-05
2.39761e-05
3.93218e-05
5.64896e-05
7.54562e-05
9.62059e-05
0.000118729
0.00014302
0.000169077
0.000196901
0.000226494
0.000257858
0.000290998
0.000325916
0.000362615
0.000401095
0.000441357
0.000483397
0.000527207
0.000572776
0.000620091
0.000669133
0.000719878
0.000772296
0.000826352
0.000882002
0.000939194
0.000997869
0.00105796
0.00111938
0.00118205
0.00124587
0.00131072
0.00137649
0.00144303
0.0015102
0.00157783
0.00164577
0.00171382
0.00178178
0.00184946
0.00191664
0.00198309
0.00204858
0.00211289
0.00217578
0.002237
0.00229633
0.00235353
0.00240838
0.00246068
0.00251022
0.00255683
0.00260033
0.00264059
0.0026775
0.00271095
0.00274088
0.00276726
0.00279007
0.00280934
0.00282512
0.00283748
0.00284654
0.00285244
0.00285532
0.00285539
0.00285283
0.00284789
0.00284079
0.0028318
0.00282117
0.0028092
0.00279615
0.00278231
0.00276797
0.00275339
0.00273885
0.0027246
0.00271088
0.00269789
0.00268583
0.00267483
0.00266502
0.00265646
0.00264924
0.00264308
0.0026372
1.95716e-05
-4.09184e-06
-1.90928e-05
-2.94982e-05
-3.69551e-05
-4.14627e-05
-4.31602e-05
-4.22712e-05
-3.89775e-05
-3.3425e-05
-2.57352e-05
-1.60072e-05
-4.32041e-06
9.26303e-06
2.46955e-05
4.19416e-05
6.09764e-05
8.17831e-05
0.000104352
0.000128678
0.000154762
0.000182604
0.000212208
0.000243581
0.000276727
0.000311653
0.000348362
0.00038686
0.000427148
0.000469225
0.000513086
0.000558724
0.000606127
0.00065528
0.000706163
0.000758747
0.000813001
0.000868883
0.000926343
0.000985325
0.00104576
0.00110758
0.00117068
0.00123498
0.00130035
0.00136668
0.00143383
0.00150165
0.00156998
0.00163863
0.00170743
0.00177617
0.00184465
0.00191263
0.00197989
0.00204618
0.00211128
0.00217492
0.00223686
0.00229687
0.00235469
0.00241009
0.00246286
0.00251279
0.00255968
0.00260338
0.00264372
0.0026806
0.00271391
0.00274358
0.00276959
0.00279192
0.00281061
0.00282571
0.00283731
0.00284553
0.00285051
0.00285244
0.0028515
0.00284792
0.00284193
0.00283378
0.00282376
0.00281213
0.00279917
0.00278519
0.00277047
0.0027553
0.00273996
0.00272471
0.00270982
0.00269551
0.002682
0.00266947
0.00265807
0.00264789
0.00263901
0.00263152
0.00262512
0.00261901
3.83763e-06
-2.0938e-05
-3.66481e-05
-4.75499e-05
-5.53743e-05
-6.01317e-05
-6.19804e-05
-6.11667e-05
-5.78919e-05
-5.2318e-05
-4.45796e-05
-3.47865e-05
-2.30261e-05
-9.36667e-06
6.13995e-06
2.34555e-05
4.25532e-05
6.34156e-05
8.60328e-05
0.000110401
0.00013652
0.000164394
0.000194028
0.00022543
0.000258608
0.000293571
0.000330325
0.000368879
0.000409235
0.000451395
0.000495359
0.000541122
0.000588676
0.000638008
0.000689102
0.000741933
0.00079647
0.000852677
0.000910506
0.000969902
0.0010308
0.00109313
0.00115679
0.0012217
0.00128774
0.00135478
0.00142269
0.00149132
0.0015605
0.00163005
0.00169977
0.00176947
0.00183891
0.00190787
0.00197611
0.00204338
0.00210943
0.00217399
0.00223681
0.00229764
0.00235621
0.00241229
0.00246564
0.00251605
0.00256332
0.00260726
0.00264774
0.00268461
0.00271778
0.00274719
0.00277281
0.00279462
0.00281266
0.00282701
0.00283775
0.00284503
0.00284899
0.00284984
0.00284777
0.00284302
0.00283586
0.00282653
0.00281534
0.00280257
0.00278852
0.00277348
0.00275776
0.00274165
0.00272544
0.0027094
0.00269379
0.00267883
0.00266475
0.00265172
0.00263989
0.00262935
0.0026202
0.0026125
0.00260597
0.00259982
-1.62378e-05
-4.19887e-05
-5.83242e-05
-6.96677e-05
-7.78226e-05
-8.28087e-05
-8.48005e-05
-8.40636e-05
-8.0816e-05
-7.52331e-05
-6.74607e-05
-5.76176e-05
-4.57979e-05
-3.20751e-05
-1.65046e-05
8.72965e-07
2.00295e-05
4.09469e-05
6.36154e-05
8.80317e-05
0.000114197
0.000142117
0.000171799
0.000203252
0.000236488
0.000271518
0.000308351
0.000346998
0.000387465
0.000429758
0.000473877
0.000519823
0.000567592
0.000617173
0.000668553
0.000721712
0.000776622
0.000833248
0.000891547
0.000951466
0.00101294
0.0010759
0.00114026
0.00120592
0.00127276
0.00134067
0.0014095
0.00147911
0.00154931
0.00161992
0.00169074
0.00176156
0.00183216
0.00190228
0.00197168
0.0020401
0.00210726
0.00217291
0.00223677
0.00229856
0.00235803
0.0024149
0.00246895
0.00251994
0.00256765
0.00261191
0.00265255
0.00268945
0.00272249
0.00275162
0.0027768
0.00279804
0.00281538
0.00282888
0.00283868
0.0028449
0.00284773
0.00284736
0.00284403
0.00283799
0.0028295
0.00281887
0.00280637
0.00279233
0.00277705
0.00276084
0.00274401
0.00272686
0.00270969
0.00269277
0.00267636
0.00266071
0.00264601
0.00263246
0.0026202
0.00260933
0.00259994
0.00259209
0.00258554
0.00257953
-4.0803e-05
-6.74108e-05
-8.42976e-05
-9.60324e-05
-0.000104482
-0.000109675
-0.000111799
-0.000111137
-0.000107921
-0.000102337
-9.45413e-05
-8.46596e-05
-7.27919e-05
-5.90159e-05
-4.33898e-05
-2.59561e-05
-6.74386e-06
1.42286e-05
3.69516e-05
6.14228e-05
8.76448e-05
0.000115624
0.000145372
0.000176898
0.000210218
0.000245345
0.000282291
0.00032107
0.000361692
0.000404164
0.000448492
0.000494681
0.000542728
0.000592628
0.000644372
0.000697941
0.000753313
0.000810454
0.000869326
0.000929878
0.00099205
0.00105577
0.00112095
0.0011875
0.0012553
0.00132422
0.00139414
0.00146488
0.00153627
0.00160812
0.00168022
0.00175235
0.00182428
0.00189574
0.00196648
0.00203623
0.0021047
0.0021716
0.00223665
0.00229956
0.00236006
0.00241786
0.00247271
0.00252437
0.00257261
0.00261724
0.00265809
0.00269502
0.00272794
0.00275677
0.00278148
0.00280209
0.00281864
0.00283122
0.00283996
0.00284501
0.00284657
0.00284486
0.00284012
0.00283264
0.0028227
0.00281061
0.00279667
0.00278123
0.00276459
0.00274708
0.00272903
0.00271075
0.00269253
0.00267465
0.00265739
0.00264099
0.00262565
0.00261157
0.00259888
0.0025877
0.00257812
0.0025702
0.00256372
0.00255799
-6.99878e-05
-9.73504e-05
-0.000114723
-0.000126804
-0.000135517
-0.000140895
-0.00014314
-0.000142548
-0.000139364
-0.000133785
-0.000125973
-0.000116062
-0.000104155
-9.0334e-05
-7.46591e-05
-5.71741e-05
-3.79087e-05
-1.68811e-05
5.89974e-06
3.04322e-05
5.67205e-05
8.47734e-05
0.000114603
0.000146224
0.000179653
0.000214905
0.000251998
0.000290946
0.000331764
0.000374463
0.000419053
0.000465541
0.000513931
0.000564221
0.000616403
0.000670465
0.000726387
0.00078414
0.000843688
0.000904983
0.000967968
0.00103257
0.00109871
0.00116629
0.00123519
0.00130529
0.00137644
0.00144849
0.00152124
0.00159451
0.00166808
0.0017417
0.00181515
0.00188814
0.00196041
0.00203167
0.00210161
0.00216994
0.00223635
0.00230054
0.00236221
0.00242107
0.00247683
0.00252926
0.00257811
0.00262317
0.00266427
0.00270126
0.00273404
0.00276254
0.00278674
0.00280665
0.00282233
0.00283389
0.00284146
0.00284521
0.00284537
0.00284218
0.0028359
0.00282683
0.00281528
0.00280158
0.00278607
0.00276908
0.00275095
0.00273204
0.00271266
0.00269314
0.00267379
0.0026549
0.00263673
0.00261953
0.00260353
0.0025889
0.0025758
0.00256434
0.00255461
0.00254668
0.00254036
0.00253506
-0.000103907
-0.000131936
-0.000149739
-0.000162126
-0.000171071
-0.000176615
-0.000178969
-0.000178443
-0.000175291
-0.00016972
-0.000161898
-0.000151964
-0.000140026
-0.000126167
-0.000110449
-9.29168e-05
-7.36005e-05
-5.25178e-05
-2.96766e-05
-5.07727e-06
2.12861e-05
4.94245e-05
7.93523e-05
0.000111087
0.000144647
0.000180052
0.000217322
0.000256475
0.000297529
0.0003405
0.000385403
0.000432247
0.000481041
0.000531787
0.000584481
0.000639116
0.000695675
0.000754134
0.00081446
0.000876607
0.000940521
0.00100613
0.00107336
0.00114211
0.00121226
0.00128369
0.00135625
0.00142977
0.00150406
0.00157893
0.00165414
0.00172945
0.0018046
0.00187932
0.00195331
0.00202627
0.00209787
0.00216781
0.00223576
0.00230138
0.00236437
0.00242441
0.00248122
0.00253451
0.00258405
0.0026296
0.00267098
0.00270805
0.00274069
0.00276884
0.00279247
0.00281162
0.00282635
0.00283677
0.00284305
0.00284538
0.00284399
0.00283916
0.00283118
0.00282037
0.00280706
0.0027916
0.00277436
0.00275569
0.00273596
0.00271552
0.00269471
0.00267386
0.0026533
0.00263332
0.00261419
0.00259617
0.00257948
0.00256431
0.0025508
0.00253909
0.00252926
0.00252139
0.00251531
0.00251055
-0.000142662
-0.000171283
-0.000189467
-0.000202125
-0.000211276
-0.000216968
-0.000219421
-0.000218955
-0.000215836
-0.000210275
-0.000202448
-0.000192498
-0.000180534
-0.000166643
-0.000150888
-0.000133314
-0.00011395
-9.28125e-05
-6.99095e-05
-4.52393e-05
-1.8794e-05
9.43966e-06
3.94787e-05
7.13433e-05
0.000105055
0.000140637
0.000178112
0.000217502
0.000258829
0.000302114
0.000347375
0.000394628
0.000443883
0.000495149
0.000548426
0.00060371
0.00066099
0.000720245
0.000781446
0.000844551
0.000909507
0.000976248
0.00104469
0.00111475
0.0011863
0.00125921
0.00133334
0.0014085
0.00148451
0.00156116
0.0016382
0.00171539
0.00179245
0.00186909
0.001945
0.00201985
0.00209331
0.00216505
0.0022347
0.00230193
0.0023664
0.00242777
0.00248574
0.00254001
0.00259031
0.00263642
0.00267813
0.00271529
0.00274778
0.00277555
0.00279857
0.00281687
0.00283055
0.00283973
0.00284459
0.00284535
0.00284227
0.00283564
0.0028258
0.00281308
0.00279785
0.00278048
0.00276137
0.00274088
0.00271941
0.00269732
0.00267498
0.00265272
0.00263088
0.00260975
0.00258962
0.00257074
0.00255334
0.00253762
0.00252373
0.0025118
0.00250191
0.00249415
0.00248839
0.00248428
-0.000186345
-0.000215492
-0.000234014
-0.000246914
-0.00025625
-0.000262074
-0.000264616
-0.000264207
-0.00026112
-0.000255572
-0.000247745
-0.000237784
-0.000225802
-0.000211887
-0.000196101
-0.000178489
-0.000159081
-0.000137892
-0.000114928
-9.01854e-05
-6.3654e-05
-3.53184e-05
-5.15835e-06
2.6849e-05
6.07285e-05
9.65065e-05
0.000134209
0.000173864
0.000215497
0.000259132
0.000304794
0.000352501
0.00040227
0.000454113
0.000508037
0.000564042
0.00062212
0.000682257
0.000744426
0.000808588
0.000874696
0.000942684
0.00101248
0.00108397
0.00115706
0.00123161
0.00130746
0.00138444
0.00146235
0.00154096
0.00162003
0.00169929
0.00177846
0.00185722
0.00193525
0.0020122
0.00208772
0.00216144
0.00223299
0.002302
0.00236811
0.00243097
0.00249023
0.00254558
0.00259675
0.00264348
0.00268556
0.00272283
0.00275517
0.00278252
0.00280487
0.00282226
0.00283479
0.0028426
0.00284591
0.00284495
0.00284002
0.00283144
0.00281956
0.00280477
0.00278745
0.00276802
0.00274688
0.00272444
0.0027011
0.00267725
0.00265327
0.00262951
0.00260631
0.00258398
0.00256281
0.00254305
0.00252493
0.00250867
0.00249441
0.00248228
0.00247238
0.00246478
0.00245941
0.00245606
-0.000235035
-0.000264654
-0.000283479
-0.000296595
-0.000306096
-0.00031204
-0.000314665
-0.00031431
-0.000311255
-0.000305725
-0.000297903
-0.000287938
-0.000275945
-0.000262013
-0.000246204
-0.000228563
-0.000209117
-0.000187881
-0.000164859
-0.000140046
-0.000113428
-8.49878e-05
-5.47018e-05
-2.25439e-05
1.15142e-05
4.75024e-05
8.54513e-05
0.000125392
0.000167356
0.000211372
0.000257468
0.000305669
0.000355996
0.000408468
0.000463095
0.000519883
0.000578831
0.000639926
0.000703148
0.000768462
0.000835823
0.00090517
0.000976426
0.0010495
0.00112427
0.0012006
0.00127833
0.00135729
0.00143727
0.00151803
0.00159932
0.00168085
0.00176233
0.00184343
0.00192379
0.00200305
0.00208083
0.00215674
0.00223039
0.00230137
0.0023693
0.00243379
0.00249448
0.00255105
0.00260318
0.0026506
0.0026931
0.00273051
0.00276269
0.0027896
0.00281122
0.00282761
0.00283888
0.00284521
0.00284683
0.002844
0.00283705
0.00282634
0.00281226
0.00279522
0.00277565
0.00275398
0.00273066
0.00270612
0.00268079
0.00265507
0.00262936
0.00260402
0.0025794
0.00255582
0.00253356
0.0025129
0.00249406
0.00247725
0.00246264
0.00245035
0.00244048
0.00243309
0.00242818
0.00242567
-0.000288809
-0.000318852
-0.000337949
-0.000351259
-0.00036091
-0.000366964
-0.000369667
-0.000369365
-0.000366345
-0.000360836
-0.000353026
-0.000343066
-0.000331072
-0.000317132
-0.00030131
-0.000283649
-0.000264175
-0.000242901
-0.000219828
-0.00019495
-0.000168251
-0.000139709
-0.000109297
-7.69871e-05
-4.27461e-05
-6.54056e-06
3.16646e-05
7.19052e-05
0.000114217
0.000158634
0.000205191
0.000253916
0.000304838
0.000357979
0.000413356
0.000470981
0.000530858
0.00059298
0.000657329
0.000723879
0.000792586
0.000863394
0.000936227
0.00101099
0.00108757
0.00116583
0.00124561
0.00132671
0.00140893
0.00149202
0.00157572
0.00165973
0.00174373
0.00182737
0.00191028
0.00199207
0.00207233
0.00215065
0.00222659
0.00229974
0.00236967
0.00243597
0.00249825
0.00255616
0.00260935
0.00265756
0.00270054
0.0027381
0.00277013
0.00279657
0.0028174
0.00283271
0.00284263
0.00284735
0.00284713
0.00284227
0.00283314
0.00282012
0.00280365
0.00278419
0.00276219
0.00273813
0.00271248
0.0026857
0.00265825
0.00263055
0.00260301
0.00257601
0.00254991
0.00252503
0.00250167
0.00248009
0.00246052
0.00244317
0.00242822
0.0024158
0.00240599
0.00239887
0.00239448
0.00239292
-0.000347732
-0.000378157
-0.000397501
-0.000410988
-0.000420777
-0.000426934
-0.000429712
-0.000429464
-0.000426483
-0.000421003
-0.000413213
-0.000403268
-0.000391285
-0.00037735
-0.000361528
-0.00034386
-0.00032437
-0.000303071
-0.000279961
-0.000255029
-0.000228259
-0.000199623
-0.000169094
-0.000136637
-0.000102217
-6.57954e-05
-2.73327e-05
1.32118e-05
5.58792e-05
0.000100709
0.000147741
0.00019701
0.000248549
0.000302388
0.000358551
0.000417054
0.000477907
0.00054111
0.000606652
0.000674508
0.000744642
0.000817001
0.000891512
0.000968082
0.0010466
0.00112691
0.00120887
0.00129228
0.00137691
0.00146252
0.00154882
0.0016355
0.00172223
0.00180863
0.00189431
0.00197885
0.00206182
0.00214277
0.00222123
0.00229676
0.00236889
0.00243718
0.00250121
0.0025606
0.00261499
0.00266407
0.00270759
0.00274535
0.00277723
0.00280317
0.00282317
0.00283732
0.00284578
0.00284876
0.00284655
0.0028395
0.00282801
0.00281251
0.00279348
0.00277141
0.0027468
0.00272018
0.00269205
0.0026629
0.0026332
0.00260342
0.00257397
0.00254525
0.00251761
0.0024914
0.0024669
0.00244438
0.00242409
0.00240622
0.00239095
0.00237842
0.00236872
0.0023619
0.00235809
0.00235756
-0.000411865
-0.000442639
-0.000462207
-0.000475857
-0.000485774
-0.000492029
-0.000494881
-0.000494691
-0.000491756
-0.000486313
-0.000478556
-0.000468639
-0.00045668
-0.000442767
-0.000426961
-0.000409303
-0.000389817
-0.00036851
-0.00034538
-0.000320414
-0.000293589
-0.000264877
-0.000234245
-0.000201656
-0.00016707
-0.000130444
-9.17329e-05
-5.08912e-05
-7.87247e-06
3.73691e-05
8.48778e-05
0.000134696
0.000186863
0.000241415
0.000298383
0.00035779
0.000419653
0.000483977
0.000550757
0.000619977
0.000691604
0.000765589
0.000841863
0.000920336
0.00100089
0.00108339
0.00116767
0.00125353
0.00134073
0.00142903
0.00151812
0.00160768
0.00169734
0.00178672
0.0018754
0.00196293
0.00204884
0.00213264
0.00221386
0.00229198
0.00236652
0.002437
0.00250297
0.002564
0.00261971
0.00266977
0.00271391
0.00275192
0.00278367
0.00280909
0.00282821
0.00284113
0.00284802
0.00284913
0.0028448
0.0028354
0.00282137
0.00280321
0.00278143
0.00275657
0.00272919
0.00269985
0.00266908
0.00263742
0.00260537
0.0025734
0.00254196
0.00251145
0.00248224
0.00245465
0.00242901
0.00240556
0.00238454
0.00236616
0.00235059
0.00233799
0.00232843
0.00232196
0.00231879
0.00231937
-0.000481266
-0.000512356
-0.00053213
-0.000545931
-0.000555969
-0.000562321
-0.000565249
-0.000565123
-0.000562242
-0.000556848
-0.000549138
-0.000539267
-0.000527351
-0.000513479
-0.000497711
-0.000480086
-0.000460626
-0.000439336
-0.000416212
-0.000391235
-0.000364381
-0.000335618
-0.000304909
-0.000272213
-0.000237484
-0.000200676
-0.000161739
-0.000120619
-7.72672e-05
-3.16299e-05
1.6343e-05
6.67005e-05
0.000119489
0.000174753
0.000232529
0.000292848
0.000355734
0.0004212
0.000489248
0.000559869
0.000633035
0.000708703
0.000786809
0.000867264
0.000949957
0.00103475
0.00112147
0.00120991
0.00129984
0.00139099
0.00148305
0.00157567
0.00166848
0.00176106
0.00185297
0.00194371
0.0020328
0.00211972
0.00220392
0.00228487
0.00236205
0.00243493
0.00250302
0.00256586
0.00262304
0.00267421
0.00271906
0.00275738
0.00278902
0.00281393
0.00283214
0.00284375
0.00284899
0.00284812
0.00284151
0.0028296
0.00281288
0.00279187
0.00276716
0.00273934
0.00270901
0.00267678
0.00264324
0.00260894
0.00257442
0.00254018
0.00250668
0.00247433
0.00244351
0.00241455
0.00238774
0.00236336
0.00234163
0.00232276
0.00230692
0.00229426
0.00228488
0.0022788
0.00227632
0.0022781
-0.000555984
-0.000587364
-0.000607328
-0.000621269
-0.000631424
-0.000637872
-0.000640882
-0.000640827
-0.000638013
-0.000632685
-0.000625039
-0.000615233
-0.000603383
-0.000589577
-0.000573874
-0.000556311
-0.000536907
-0.000515666
-0.000492579
-0.000467625
-0.000440777
-0.000411998
-0.000381248
-0.00034848
-0.000313646
-0.000276692
-0.000237562
-0.000196201
-0.000152548
-0.000106547
-5.81405e-05
-7.27138e-06
4.61144e-05
0.000102068
0.000160634
0.000221853
0.000285755
0.000352362
0.000421685
0.000493721
0.00056845
0.000645836
0.000725818
0.000808315
0.000893216
0.000980382
0.00106964
0.00116079
0.00125358
0.00134774
0.00144293
0.00153881
0.00163497
0.00173096
0.00182632
0.00192052
0.00201303
0.0021033
0.00219074
0.00227477
0.00235481
0.00243032
0.00250074
0.00256559
0.00262441
0.00267681
0.00272249
0.0027612
0.00279278
0.00281719
0.00283447
0.00284474
0.00284823
0.00284528
0.00283628
0.00282171
0.00280212
0.00277811
0.00275029
0.00271934
0.0026859
0.00265064
0.00261418
0.00257712
0.00254004
0.00250346
0.00246784
0.00243361
0.00240116
0.0023708
0.00234285
0.00231754
0.00229512
0.00227578
0.00225969
0.00224701
0.00223783
0.00223217
0.00223042
0.00223348
-0.000636067
-0.000667711
-0.00068785
-0.000701926
-0.000712194
-0.000718741
-0.000721839
-0.000721867
-0.000719135
-0.00071389
-0.000706331
-0.000696614
-0.000684859
-0.000671149
-0.000655543
-0.000638077
-0.000618767
-0.000597614
-0.000574605
-0.000549718
-0.00052292
-0.000494172
-0.000463428
-0.000430638
-0.000395747
-0.000358698
-0.000319427
-0.000277874
-0.000233972
-0.000187659
-0.000138868
-8.75353e-05
-3.35991e-05
2.30001e-05
8.23163e-05
0.000144397
0.000209283
0.000277004
0.000347582
0.00042102
0.00049731
0.00057642
0.000658298
0.000742867
0.000830021
0.000919623
0.0010115
0.00110545
0.00120121
0.00129851
0.001397
0.0014963
0.00159599
0.0016956
0.00179463
0.00189252
0.0019887