/*--------------------------------*- C++ -*----------------------------------*\
  =========                 |
  \\      /  F ield         | OpenFOAM: The Open Source CFD Toolbox
   \\    /   O peration     | Website:  https://openfoam.org
    \\  /    A nd           | Version:  9
     \\/     M anipulation  |
\*---------------------------------------------------------------------------*/
FoamFile
{
    format      ascii;
    class       surfaceScalarField;
    location    "0.5";
    object      phi;
}
// * * * * * * * * * * * * * * * * * * * * * * * * * * * * * * * * * * * * * //

dimensions      [0 3 -1 0 0 0 0];

internalField   nonuniform List<scalar> 
19800
(
9.16905e-11
-9.1688e-11
9.77189e-11
-6.02852e-12
-4.73454e-11
1.45063e-10
-3.48029e-10
3.00681e-10
-7.87174e-10
4.39142e-10
-1.34024e-09
5.53064e-10
-1.98312e-09
6.42878e-10
-2.69476e-09
7.11635e-10
-3.45765e-09
7.6289e-10
-4.25766e-09
8.00009e-10
-5.0836e-09
8.25946e-10
-5.92678e-09
8.43186e-10
-6.78055e-09
8.53766e-10
-7.63987e-09
8.59319e-10
-8.50099e-09
8.61126e-10
-9.36117e-09
8.60178e-10
-1.02184e-08
8.57219e-10
-1.10712e-08
8.52793e-10
-1.19185e-08
8.47285e-10
-1.27594e-08
8.40949e-10
-1.35934e-08
8.33943e-10
-1.44197e-08
8.26341e-10
-1.52379e-08
8.18162e-10
-1.60472e-08
8.09379e-10
-1.68472e-08
7.99932e-10
-1.76369e-08
7.89739e-10
-1.84156e-08
7.787e-10
-1.91823e-08
7.66703e-10
-1.99359e-08
7.53632e-10
-2.06753e-08
7.39366e-10
-2.13991e-08
7.23784e-10
-2.21059e-08
7.06765e-10
-2.27941e-08
6.8819e-10
-2.3462e-08
6.67941e-10
-2.41079e-08
6.45905e-10
-2.47299e-08
6.21974e-10
-2.53259e-08
5.96049e-10
-2.5894e-08
5.68039e-10
-2.64318e-08
5.37864e-10
-2.69373e-08
5.0545e-10
-2.7408e-08
4.7074e-10
-2.78417e-08
4.33691e-10
-2.8236e-08
3.94278e-10
-2.85885e-08
3.52497e-10
-2.88969e-08
3.08363e-10
-2.91588e-08
2.61915e-10
-2.9372e-08
2.13212e-10
-2.95343e-08
1.62346e-10
-2.96438e-08
1.09432e-10
-2.96984e-08
5.46249e-11
-2.96966e-08
-1.80236e-12
-2.96366e-08
-5.99343e-11
-2.95174e-08
-1.19237e-10
-2.93379e-08
-1.79553e-10
-2.90973e-08
-2.4059e-10
-2.87952e-08
-3.02026e-10
-2.84317e-08
-3.63521e-10
-2.8007e-08
-4.24716e-10
-2.75218e-08
-4.85236e-10
-2.69771e-08
-5.44696e-10
-2.63744e-08
-6.02704e-10
-2.57155e-08
-6.58865e-10
-2.50027e-08
-7.12788e-10
-2.42386e-08
-7.64095e-10
-2.34262e-08
-8.12422e-10
-2.25688e-08
-8.57422e-10
-2.167e-08
-8.98774e-10
-2.07338e-08
-9.36181e-10
-1.97644e-08
-9.6938e-10
-1.87663e-08
-9.9814e-10
-1.7744e-08
-1.02226e-09
-1.67024e-08
-1.04159e-09
-1.56465e-08
-1.05598e-09
-1.45811e-08
-1.06534e-09
-1.35115e-08
-1.0696e-09
-1.24428e-08
-1.0687e-09
-1.13802e-08
-1.0626e-09
-1.03289e-08
-1.0513e-09
-9.29417e-09
-1.03476e-09
-8.2812e-09
-1.01297e-09
-7.29529e-09
-9.85908e-10
-6.34176e-09
-9.53529e-10
-5.42597e-09
-9.15783e-10
-4.55338e-09
-8.72593e-10
-3.72951e-09
-8.23868e-10
-2.96002e-09
-7.695e-10
-2.25064e-09
-7.0938e-10
-1.60723e-09
-6.43411e-10
-1.03569e-09
-5.7154e-10
-5.41884e-10
-4.93801e-10
-1.31493e-10
-4.10392e-10
1.90331e-10
-3.21825e-10
4.19343e-10
-2.29011e-10
5.52858e-10
-1.33515e-10
5.91363e-10
-3.8506e-11
5.40211e-10
5.1151e-11
4.13782e-10
1.26428e-10
2.41098e-10
1.72677e-10
7.58861e-11
1.65203e-10
7.5879e-11
7.01137e-12
-9.87e-11
-2.24103e-10
2.25085e-10
-7.92911e-10
7.13869e-10
-1.70859e-09
1.21635e-09
-2.9431e-09
1.67365e-09
-4.45306e-09
2.06302e-09
-6.19068e-09
2.38049e-09
-8.11029e-09
2.63124e-09
-1.01713e-08
2.8239e-09
-1.23391e-08
2.96784e-09
-1.45852e-08
3.07199e-09
-1.68863e-08
3.1443e-09
-1.92241e-08
3.19155e-09
-2.15841e-08
3.21935e-09
-2.39552e-08
3.23223e-09
-2.63288e-08
3.23379e-09
-2.86984e-08
3.22679e-09
-3.10589e-08
3.21332e-09
-3.34065e-08
3.19489e-09
-3.57381e-08
3.17254e-09
-3.80511e-08
3.14695e-09
-4.03433e-08
3.11853e-09
-4.26125e-08
3.08741e-09
-4.48567e-08
3.05359e-09
-4.70737e-08
3.01691e-09
-4.92611e-08
2.97714e-09
-5.14164e-08
2.93396e-09
-5.35367e-08
2.88702e-09
-5.5619e-08
2.83592e-09
-5.76599e-08
2.78025e-09
-5.96557e-08
2.7196e-09
-6.16025e-08
2.65355e-09
-6.3496e-08
2.58168e-09
-6.53316e-08
2.50359e-09
-6.71046e-08
2.4189e-09
-6.88099e-08
2.32722e-09
-7.0442e-08
2.22823e-09
-7.19956e-08
2.12161e-09
-7.34648e-08
2.00708e-09
-7.48438e-08
1.88442e-09
-7.61265e-08
1.75343e-09
-7.73068e-08
1.614e-09
-7.83786e-08
1.46604e-09
-7.93357e-08
1.30958e-09
-8.0172e-08
1.14468e-09
-8.08816e-08
9.7151e-10
-8.14587e-08
7.90324e-10
-8.18978e-08
6.01463e-10
-8.21937e-08
4.05369e-10
-8.23417e-08
2.02575e-10
-8.23376e-08
-5.91133e-12
-8.21773e-08
-2.20267e-10
-8.18578e-08
-4.38721e-10
-8.13767e-08
-6.60655e-10
-8.07322e-08
-8.85012e-10
-7.99236e-08
-1.11066e-09
-7.89508e-08
-1.33637e-09
-7.78146e-08
-1.5609e-09
-7.65169e-08
-1.78289e-09
-7.50606e-08
-2.00101e-09
-7.34495e-08
-2.21386e-09
-7.16883e-08
-2.42006e-09
-6.97828e-08
-2.61826e-09
-6.77398e-08
-2.8071e-09
-6.55669e-08
-2.98532e-09
-6.32726e-08
-3.15169e-09
-6.08663e-08
-3.30507e-09
-5.83581e-08
-3.44443e-09
-5.57587e-08
-3.56882e-09
-5.30794e-08
-3.6774e-09
-5.03322e-08
-3.76947e-09
-4.75294e-08
-3.8444e-09
-4.46837e-08
-3.9017e-09
-4.1808e-08
-3.94097e-09
-3.89157e-08
-3.96189e-09
-3.60202e-08
-3.96421e-09
-3.31351e-08
-3.94775e-09
-3.0274e-08
-3.91234e-09
-2.7451e-08
-3.85783e-09
-2.46798e-08
-3.7841e-09
-2.19748e-08
-3.69094e-09
-1.93502e-08
-3.57816e-09
-1.68205e-08
-3.44547e-09
-1.44005e-08
-3.29256e-09
-1.21053e-08
-3.11908e-09
-9.95015e-09
-2.92466e-09
-7.95057e-09
-2.70896e-09
-6.1222e-09
-2.47177e-09
-4.48059e-09
-2.21315e-09
-3.04081e-09
-1.93358e-09
-1.81691e-09
-1.63428e-09
-8.21088e-10
-1.31765e-09
-6.22625e-11
-9.8784e-10
4.56095e-10
-6.51873e-10
7.38259e-10
-3.20673e-10
8.01431e-10
-1.20209e-11
6.80455e-10
2.47409e-10
4.36412e-10
4.1673e-10
1.6346e-10
4.38167e-10
2.39334e-10
-1.46542e-10
4.78407e-11
-7.22668e-10
8.0121e-10
-1.7835e-09
1.7747e-09
-3.32614e-09
2.75899e-09
-5.31371e-09
3.66122e-09
-7.69153e-09
4.44083e-09
-1.03986e-08
5.08756e-09
-1.33749e-08
5.6075e-09
-1.65651e-08
6.01419e-09
-1.99211e-08
6.32377e-09
-2.34015e-08
6.55243e-09
-2.69723e-08
6.71509e-09
-3.06056e-08
6.82485e-09
-3.42791e-08
6.8928e-09
-3.7975e-08
6.92811e-09
-4.16793e-08
6.93813e-09
-4.53811e-08
6.92864e-09
-4.90719e-08
6.90406e-09
-5.27447e-08
6.86767e-09
-5.63939e-08
6.82178e-09
-6.00149e-08
6.76797e-09
-6.36036e-08
6.70717e-09
-6.7156e-08
6.63984e-09
-7.06685e-08
6.56605e-09
-7.41371e-08
6.48559e-09
-7.7558e-08
6.39805e-09
-8.09269e-08
6.30283e-09
-8.42391e-08
6.19925e-09
-8.74898e-08
6.08654e-09
-9.06734e-08
5.9639e-09
-9.37843e-08
5.83049e-09
-9.68162e-08
5.68546e-09
-9.97625e-08
5.52799e-09
-1.02616e-07
5.35727e-09
-1.0537e-07
5.1725e-09
-1.08016e-07
4.97297e-09
-1.10545e-07
4.75798e-09
-1.12951e-07
4.52693e-09
-1.15223e-07
4.27926e-09
-1.17353e-07
4.01454e-09
-1.19332e-07
3.73241e-09
-1.21151e-07
3.43266e-09
-1.228e-07
3.11519e-09
-1.2427e-07
2.78004e-09
-1.25553e-07
2.42742e-09
-1.26639e-07
2.05772e-09
-1.2752e-07
1.67149e-09
-1.28188e-07
1.2695e-09
-1.28636e-07
8.52708e-10
-1.28855e-07
4.22264e-10
-1.28841e-07
-2.00923e-11
-1.28588e-07
-4.73747e-10
-1.2809e-07
-9.3595e-10
-1.27346e-07
-1.40505e-09
-1.26352e-07
-1.87887e-09
-1.25108e-07
-2.35505e-09
-1.23613e-07
-2.83111e-09
-1.2187e-07
-3.30442e-09
-1.1988e-07
-3.77226e-09
-1.17649e-07
-4.23184e-09
-1.15183e-07
-4.68034e-09
-1.12488e-07
-5.11493e-09
-1.09573e-07
-5.53282e-09
-1.06449e-07
-5.93129e-09
-1.03127e-07
-6.30771e-09
-9.9619e-08
-6.65961e-09
-9.59394e-08
-6.98465e-09
-9.21031e-08
-7.28071e-09
-8.81261e-08
-7.54584e-09
-8.40251e-08
-7.77833e-09
-7.98179e-08
-7.97668e-09
-7.55227e-08
-8.1396e-09
-7.11584e-08
-8.26602e-09
-6.67443e-08
-8.35507e-09
-6.23002e-08
-8.40603e-09
-5.78461e-08
-8.41831e-09
-5.34024e-08
-8.39143e-09
-4.89897e-08
-8.32498e-09
-4.4629e-08
-8.21856e-09
-4.03413e-08
-8.07176e-09
-3.61482e-08
-7.88411e-09
-3.20713e-08
-7.65507e-09
-2.81327e-08
-7.38402e-09
-2.4355e-08
-7.07023e-09
-2.07611e-08
-6.71298e-09
-1.73743e-08
-6.31153e-09
-1.42179e-08
-5.86532e-09
-1.13155e-08
-5.37415e-09
-8.69025e-09
-4.83843e-09
-6.36417e-09
-4.25967e-09
-4.35743e-09
-3.64102e-09
-2.68691e-09
-2.98818e-09
-1.36418e-09
-2.31057e-09
-3.9299e-10
-1.62306e-09
2.34696e-10
-9.48362e-10
5.43083e-10
-3.20416e-10
5.78824e-10
2.11657e-10
4.17344e-10
5.78204e-10
1.70232e-10
6.85282e-10
4.09565e-10
-3.10738e-10
3.58579e-10
-1.25546e-09
1.74593e-09
-2.82641e-09
3.34565e-09
-4.99139e-09
4.92396e-09
-7.69681e-09
6.36664e-09
-1.08767e-08
7.62068e-09
-1.44603e-08
8.67118e-09
-1.83782e-08
9.52544e-09
-2.2566e-08
1.0202e-08
-2.69661e-08
1.07239e-08
-3.15288e-08
1.11151e-08
-3.62118e-08
1.13982e-08
-4.09804e-08
1.15934e-08
-4.58058e-08
1.17182e-08
-5.06648e-08
1.17872e-08
-5.5539e-08
1.18123e-08
-6.04133e-08
1.18029e-08
-6.52758e-08
1.17665e-08
-7.01167e-08
1.17086e-08
-7.49281e-08
1.16332e-08
-7.9703e-08
1.15429e-08
-8.44354e-08
1.14395e-08
-8.91196e-08
1.1324e-08
-9.37501e-08
1.11966e-08
-9.83216e-08
1.1057e-08
-1.02828e-07
1.09048e-08
-1.07264e-07
1.07389e-08
-1.11623e-07
1.05583e-08
-1.15899e-07
1.03619e-08
-1.20083e-07
1.01483e-08
-1.24169e-07
9.91629e-09
-1.28148e-07
9.66442e-09
-1.32011e-07
9.39139e-09
-1.3575e-07
9.09588e-09
-1.39354e-07
8.77666e-09
-1.42814e-07
8.43255e-09
-1.46118e-07
8.06245e-09
-1.49257e-07
7.66541e-09
-1.52218e-07
7.24056e-09
-1.54991e-07
6.78724e-09
-1.57563e-07
6.30492e-09
-1.59924e-07
5.79328e-09
-1.62061e-07
5.25224e-09
-1.63963e-07
4.68194e-09
-1.65618e-07
4.08278e-09
-1.67016e-07
3.45547e-09
-1.68145e-07
2.80101e-09
-1.68997e-07
2.1207e-09
-1.6956e-07
1.4162e-09
-1.69827e-07
6.895e-10
-1.69791e-07
-5.68509e-11
-1.69443e-07
-8.20863e-10
-1.68781e-07
-1.59886e-09
-1.67798e-07
-2.38777e-09
-1.66493e-07
-3.18396e-09
-1.64864e-07
-3.98356e-09
-1.62913e-07
-4.78246e-09
-1.60641e-07
-5.57632e-09
-1.58053e-07
-6.3607e-09
-1.55153e-07
-7.131e-09
-1.51951e-07
-7.8826e-09
-1.48455e-07
-8.61089e-09
-1.44677e-07
-9.31131e-09
-1.40629e-07
-9.97941e-09
-1.36325e-07
-1.06109e-08
-1.31783e-07
-1.12018e-08
-1.2702e-07
-1.17482e-08
-1.22054e-07
-1.22467e-08
-1.16905e-07
-1.26941e-08
-1.11596e-07
-1.30876e-08
-1.06148e-07
-1.34247e-08
-1.00584e-07
-1.37033e-08
-9.49288e-08
-1.39215e-08
-8.92059e-08
-1.4078e-08
-8.34405e-08
-1.41714e-08
-7.76581e-08
-1.42007e-08
-7.18846e-08
-1.4165e-08
-6.6146e-08
-1.40636e-08
-6.04689e-08
-1.38956e-08
-5.48803e-08
-1.36604e-08
-4.94074e-08
-1.3357e-08
-4.40781e-08
-1.29844e-08
-3.89206e-08
-1.25416e-08
-3.39635e-08
-1.20273e-08
-2.92361e-08
-1.14404e-08
-2.47679e-08
-1.07797e-08
-2.05886e-08
-1.00446e-08
-1.67278e-08
-9.23499e-09
-1.32142e-08
-8.35201e-09
-1.00751e-08
-7.39873e-09
-7.3351e-09
-6.38105e-09
-5.01416e-09
-5.30911e-09
-3.12571e-09
-4.19902e-09
-1.67347e-09
-3.07531e-09
-6.47744e-10
-1.97408e-09
-2.09823e-11
-9.47178e-10
2.58001e-10
-6.73288e-11
2.69261e-10
5.66938e-10
1.28472e-10
8.26071e-10
5.3804e-10
-4.6527e-10
8.23851e-10
-1.76722e-09
3.04789e-09
-3.83506e-09
5.41349e-09
-6.59859e-09
7.68749e-09
-9.98186e-09
9.74991e-09
-1.3905e-08
1.15438e-08
-1.8288e-08
1.30541e-08
-2.30538e-08
1.42913e-08
-2.81314e-08
1.52796e-08
-3.3457e-08
1.60495e-08
-3.89749e-08
1.6633e-08
-4.46374e-08
1.70606e-08
-5.04042e-08
1.73602e-08
-5.62421e-08
1.75561e-08
-6.21236e-08
1.76686e-08
-6.80262e-08
1.77149e-08
-7.39318e-08
1.77085e-08
-7.98254e-08
1.76601e-08
-8.56946e-08
1.75779e-08
-9.15292e-08
1.74677e-08
-9.73201e-08
1.73338e-08
-1.03059e-07
1.71788e-08
-1.0874e-07
1.70043e-08
-1.14354e-07
1.68107e-08
-1.19895e-07
1.65979e-08
-1.25355e-07
1.63651e-08
-1.30727e-07
1.61113e-08
-1.36004e-07
1.58348e-08
-1.41176e-07
1.55341e-08
-1.46235e-07
1.52074e-08
-1.51171e-07
1.48527e-08
-1.55975e-07
1.44681e-08
-1.60636e-07
1.40518e-08
-1.65142e-07
1.3602e-08
-1.69482e-07
1.31167e-08
-1.73644e-07
1.25945e-08
-1.77615e-07
1.20337e-08
-1.81382e-07
1.14329e-08
-1.84933e-07
1.07911e-08
-1.88253e-07
1.01073e-08
-1.91329e-07
9.38082e-09
-1.94147e-07
8.61126e-09
-1.96693e-07
7.79858e-09
-1.98954e-07
6.94309e-09
-2.00917e-07
6.04548e-09
-2.02569e-07
5.10686e-09
-2.03896e-07
4.12879e-09
-2.04889e-07
3.11326e-09
-2.05536e-07
2.06279e-09
-2.05826e-07
9.80338e-10
-2.05753e-07
-1.3046e-10
-2.05308e-07
-1.26609e-09
-2.04485e-07
-2.42167e-09
-2.0328e-07
-3.59248e-09
-2.01691e-07
-4.77319e-09
-1.99716e-07
-5.95812e-09
-1.97357e-07
-7.14126e-09
-1.94617e-07
-8.31629e-09
-1.91501e-07
-9.47672e-09
-1.88016e-07
-1.06159e-08
-1.84172e-07
-1.17271e-08
-1.79979e-07
-1.28037e-08
-1.75452e-07
-1.3839e-08
-1.70604e-07
-1.48266e-08
-1.65455e-07
-1.57604e-08
-1.60022e-07
-1.66345e-08
-1.54327e-07
-1.74434e-08
-1.48392e-07
-1.8182e-08
-1.4224e-07
-1.88459e-08
-1.35897e-07
-1.94309e-08
-1.29388e-07
-1.99334e-08
-1.22741e-07
-2.03504e-08
-1.15983e-07
-2.06791e-08
-1.09144e-07
-2.09175e-08
-1.02252e-07
-2.10635e-08
-9.53366e-08
-2.11157e-08
-8.84288e-08
-2.10728e-08
-8.1559e-08
-2.09334e-08
-7.47583e-08
-2.06964e-08
-6.80582e-08
-2.03605e-08
-6.14907e-08
-1.99245e-08
-5.50883e-08
-1.93868e-08
-4.8884e-08
-1.87458e-08
-4.29115e-08
-1.79998e-08
-3.72047e-08
-1.71472e-08
-3.1798e-08
-1.61865e-08
-2.67257e-08
-1.51169e-08
-2.20218e-08
-1.39388e-08
-1.77194e-08
-1.26545e-08
-1.38492e-08
-1.12689e-08
-1.04389e-08
-9.79136e-09
-7.51075e-09
-8.23729e-09
-5.07944e-09
-6.63033e-09
-3.14918e-09
-5.00557e-09
-1.71006e-09
-3.4132e-09
-7.33985e-10
-1.92326e-09
-1.70262e-10
-6.31048e-10
5.94214e-11
3.37251e-10
6.5906e-11
8.19583e-10
6.03943e-10
-6.02593e-10
1.42645e-09
-2.23503e-09
4.68032e-09
-4.76845e-09
7.94691e-09
-8.09339e-09
1.10124e-08
-1.21086e-08
1.37651e-08
-1.67182e-08
1.61534e-08
-2.18316e-08
1.81676e-08
-2.73649e-08
1.98245e-08
-3.32412e-08
2.11559e-08
-3.93922e-08
2.22005e-08
-4.57579e-08
2.29986e-08
-5.22865e-08
2.35893e-08
-5.89342e-08
2.4008e-08
-6.56642e-08
2.4286e-08
-7.24456e-08
2.44501e-08
-7.92532e-08
2.45225e-08
-8.6066e-08
2.45213e-08
-9.28665e-08
2.44606e-08
-9.96402e-08
2.43516e-08
-1.06375e-07
2.42021e-08
-1.13059e-07
2.40181e-08
-1.19683e-07
2.38033e-08
-1.26239e-07
2.35599e-08
-1.32717e-07
2.32887e-08
-1.39109e-07
2.29896e-08
-1.45406e-07
2.26619e-08
-1.51598e-07
2.23041e-08
-1.57678e-07
2.19142e-08
-1.63634e-07
2.14902e-08
-1.69456e-07
2.10297e-08
-1.75134e-07
2.05302e-08
-1.80655e-07
1.99892e-08
-1.86007e-07
1.94043e-08
-1.91178e-07
1.87729e-08
-1.96154e-07
1.80929e-08
-2.00922e-07
1.73619e-08
-2.05466e-07
1.6578e-08
-2.09773e-07
1.57394e-08
-2.13826e-07
1.48447e-08
-2.17611e-07
1.38927e-08
-2.21113e-07
1.28826e-08
-2.24316e-07
1.18139e-08
-2.27204e-07
1.06867e-08
-2.29762e-07
9.50154e-09
-2.31976e-07
8.25945e-09
-2.33832e-07
6.96206e-09
-2.35314e-07
5.61158e-09
-2.36412e-07
4.21085e-09
-2.37113e-07
2.76336e-09
-2.37405e-07
1.27324e-09
-2.37281e-07
-2.54664e-10
-2.36732e-07
-1.81506e-09
-2.35752e-07
-3.40172e-09
-2.34337e-07
-5.008e-09
-2.32483e-07
-6.6267e-09
-2.30191e-07
-8.25006e-09
-2.27463e-07
-9.86993e-09
-2.24301e-07
-1.14778e-08
-2.20713e-07
-1.30649e-08
-2.16707e-07
-1.46222e-08
-2.12293e-07
-1.61406e-08
-2.07486e-07
-1.76114e-08
-2.02299e-07
-1.90254e-08
-1.96752e-07
-2.03742e-08
-1.90863e-07
-2.16494e-08
-1.84654e-07
-2.28432e-08
-1.78149e-07
-2.39484e-08
-1.71373e-07
-2.4958e-08
-1.64353e-07
-2.58661e-08
-1.57116e-07
-2.66672e-08
-1.49693e-07
-2.73564e-08
-1.42114e-07
-2.79297e-08
-1.3441e-07
-2.83834e-08
-1.26613e-07
-2.87146e-08
-1.18755e-07
-2.89207e-08
-1.10871e-07
-2.89997e-08
-1.02995e-07
-2.89496e-08
-9.51592e-08
-2.87688e-08
-8.73998e-08
-2.84557e-08
-7.97519e-08
-2.80085e-08
-7.2251e-08
-2.74254e-08
-6.49333e-08
-2.67045e-08
-5.78355e-08
-2.58435e-08
-5.0995e-08
-2.48404e-08
-4.44491e-08
-2.3693e-08
-3.82359e-08
-2.23997e-08
-3.23931e-08
-2.09598e-08
-2.69577e-08
-1.93742e-08
-2.19655e-08
-1.76466e-08
-1.74501e-08
-1.57843e-08
-1.34409e-08
-1.38006e-08
-9.96178e-09
-1.17164e-08
-7.02867e-09
-9.56344e-09
-4.64662e-09
-7.38761e-09
-2.80671e-09
-5.25312e-09
-1.48247e-09
-3.2475e-09
-6.26306e-10
-1.48722e-09
-1.65877e-10
-1.2318e-10
-9.03985e-13
6.54607e-10
6.03039e-10
-7.22184e-10
2.14863e-09
-2.65223e-09
6.61037e-09
-5.61132e-09
1.0906e-08
-9.45293e-09
1.4854e-08
-1.405e-08
1.83622e-08
-1.92894e-08
2.13929e-08
-2.50694e-08
2.39476e-08
-3.12982e-08
2.60533e-08
-3.78938e-08
2.77515e-08
-4.47837e-08
2.90904e-08
-5.19048e-08
3.01196e-08
-5.92022e-08
3.08867e-08
-6.66295e-08
3.14353e-08
-7.41472e-08
3.18037e-08
-8.17223e-08
3.20252e-08
-8.9327e-08
3.21272e-08
-9.69382e-08
3.21325e-08
-1.04537e-07
3.2059e-08
-1.12106e-07
3.19206e-08
-1.19631e-07
3.17277e-08
-1.27101e-07
3.14876e-08
-1.34503e-07
3.12055e-08
-1.41827e-07
3.08841e-08
-1.49063e-07
3.05249e-08
-1.56201e-07
3.01278e-08
-1.63231e-07
2.96918e-08
-1.70143e-07
2.92154e-08
-1.76925e-07
2.86961e-08
-1.83566e-07
2.81314e-08
-1.90054e-07
2.75183e-08
-1.96378e-07
2.68537e-08
-2.02523e-07
2.61346e-08
-2.08477e-07
2.53578e-08
-2.14224e-07
2.45203e-08
-2.1975e-07
2.36192e-08
-2.2504e-07
2.26517e-08
-2.30078e-07
2.16155e-08
-2.34847e-07
2.05082e-08
-2.3933e-07
1.93282e-08
-2.43511e-07
1.80741e-08
-2.47374e-07
1.67449e-08
-2.509e-07
1.53402e-08
-2.54074e-07
1.38602e-08
-2.56878e-07
1.23057e-08
-2.59296e-07
1.06781e-08
-2.61314e-07
8.97981e-09
-2.62916e-07
7.21368e-09
-2.64089e-07
5.38352e-09
-2.64819e-07
3.49394e-09
-2.65097e-07
1.55039e-09
-2.6491e-07
-4.40836e-10
-2.64253e-07
-2.4727e-09
-2.63117e-07
-4.53724e-09
-2.61499e-07
-6.6258e-09
-2.59397e-07
-8.72904e-09
-2.5681e-07
-1.0837e-08
-2.53741e-07
-1.29391e-08
-2.50194e-07
-1.50244e-08
-2.46178e-07
-1.70816e-08
-2.417e-07
-1.90993e-08
-2.36775e-07
-2.10658e-08
-2.31417e-07
-2.29697e-08
-2.25643e-07
-2.47996e-08
-2.19472e-07
-2.65445e-08
-2.12928e-07
-2.8194e-08
-2.06033e-07
-2.97379e-08
-1.98814e-07
-3.1167e-08
-1.913e-07
-3.24728e-08
-1.83518e-07
-3.36474e-08
-1.75502e-07
-3.46839e-08
-1.67282e-07
-3.55763e-08
-1.58892e-07
-3.63193e-08
-1.50367e-07
-3.69083e-08
-1.41742e-07
-3.73397e-08
-1.33052e-07
-3.76103e-08
-1.24335e-07
-3.77172e-08
-1.15626e-07
-3.76583e-08
-1.06964e-07
-3.74314e-08
-9.83849e-08
-3.70344e-08
-8.99282e-08
-3.64652e-08
-8.16321e-08
-3.57215e-08
-7.35356e-08
-3.4801e-08
-6.56782e-08
-3.3701e-08
-5.80997e-08
-3.24189e-08
-5.08403e-08
-3.09524e-08
-4.39403e-08
-2.92997e-08
-3.74396e-08
-2.74604e-08
-3.13776e-08
-2.54363e-08
-2.57917e-08
-2.32324e-08
-2.0717e-08
-2.0859e-08
-1.61844e-08
-1.83332e-08
-1.22189e-08
-1.56819e-08
-8.83739e-09
-1.2945e-08
-6.04618e-09
-1.01788e-08
-3.8381e-09
-7.4612e-09
-2.18958e-09
-4.89602e-09
-1.05778e-09
-2.61901e-09
-3.78205e-10
-8.02762e-10
-6.26621e-11
3.39061e-10
5.40379e-10
-8.2574e-10
2.97437e-09
-3.01995e-09
8.80458e-09
-6.3622e-09
1.42483e-08
-1.06727e-08
1.91646e-08
-1.57999e-08
2.34893e-08
-2.16132e-08
2.72062e-08
-2.7999e-08
3.03333e-08
-3.48575e-08
3.29118e-08
-4.21014e-08
3.49954e-08
-4.96543e-08
3.66434e-08
-5.74501e-08
3.79154e-08
-6.54318e-08
3.88684e-08
-7.35507e-08
3.95542e-08
-8.17656e-08
4.00186e-08
-9.00416e-08
4.03012e-08
-9.83494e-08
4.0435e-08
-1.06664e-07
4.04473e-08
-1.14965e-07
4.03599e-08
-1.23234e-07
4.01895e-08
-1.31455e-07
3.99489e-08
-1.39615e-07
3.96474e-08
-1.47701e-07
3.92911e-08
-1.557e-07
3.88836e-08
-1.63602e-07
3.84269e-08
-1.71395e-07
3.79209e-08
-1.79068e-07
3.73648e-08
-1.86609e-07
3.67564e-08
-1.94006e-07
3.60932e-08
-2.01247e-07
3.5372e-08
-2.08318e-07
3.45893e-08
-2.15206e-07
3.37414e-08
-2.21896e-07
3.28245e-08
-2.28373e-07
3.18349e-08
-2.34621e-07
3.0769e-08
-2.40625e-07
2.96231e-08
-2.46368e-07
2.83942e-08
-2.51832e-07
2.70792e-08
-2.56999e-07
2.56755e-08
-2.61852e-07
2.41811e-08
-2.66372e-07
2.25944e-08
-2.70542e-07
2.09143e-08
-2.74342e-07
1.91406e-08
-2.77755e-07
1.72734e-08
-2.80764e-07
1.53141e-08
-2.8335e-07
1.32645e-08
-2.85498e-07
1.11276e-08
-2.87191e-07
8.90719e-09
-2.88416e-07
6.60816e-09
-2.89158e-07
4.23636e-09
-2.89407e-07
1.79864e-09
-2.8915e-07
-6.97064e-10
-2.88381e-07
-3.24187e-09
-2.87093e-07
-5.82585e-09
-2.8528e-07
-8.43818e-09
-2.82942e-07
-1.10672e-08
-2.80078e-07
-1.37005e-08
-2.76693e-07
-1.6325e-08
-2.7279e-07
-1.89271e-08
-2.68379e-07
-2.14927e-08
-2.6347e-07
-2.40077e-08
-2.58078e-07
-2.64578e-08
-2.5222e-07
-2.88286e-08
-2.45913e-07
-3.11064e-08
-2.3918e-07
-3.32774e-08
-2.32045e-07
-3.53289e-08
-2.24535e-07
-3.72483e-08
-2.16677e-07
-3.90245e-08
-2.08503e-07
-4.06467e-08
-2.00045e-07
-4.21056e-08
-1.91336e-07
-4.33927e-08
-1.82412e-07
-4.45005e-08
-1.73309e-07
-4.54226e-08
-1.64063e-07
-4.61538e-08
-1.54714e-07
-4.66892e-08
-1.45299e-07
-4.70253e-08
-1.35857e-07
-4.71588e-08
-1.26429e-07
-4.70869e-08
-1.17053e-07
-4.68071e-08
-1.0777e-07
-4.6317e-08
-9.86213e-08
-4.56142e-08
-8.96466e-08
-4.46962e-08
-8.08874e-08
-4.35601e-08
-7.23853e-08
-4.22031e-08
-6.41819e-08
-4.06223e-08
-5.63191e-08
-3.88151e-08
-4.88388e-08
-3.678e-08
-4.17825e-08
-3.45168e-08
-3.51904e-08
-3.20283e-08
-2.91014e-08
-2.93215e-08
-2.35512e-08
-2.64092e-08
-1.85716e-08
-2.33128e-08
-1.41883e-08
-2.00652e-08
-1.04193e-08
-1.6714e-08
-7.27207e-09
-1.3326e-08
-4.74169e-09
-9.99158e-09
-2.80794e-09
-6.82978e-09
-1.43323e-09
-3.99371e-09
-5.60982e-10
-1.67502e-09
-1.14639e-10
-1.07283e-10
4.25738e-10
-9.1536e-10
3.88974e-09
-3.34229e-09
1.12315e-08
-7.02605e-09
1.7932e-08
-1.1758e-08
2.38965e-08
-1.73639e-08
2.90952e-08
-2.36967e-08
3.3539e-08
-3.06308e-08
3.72674e-08
-3.80582e-08
4.03393e-08
-4.58861e-08
4.28232e-08
-5.40341e-08
4.47914e-08
-6.24335e-08
4.63148e-08
-7.10253e-08
4.74602e-08
-7.97591e-08
4.8288e-08
-8.85923e-08
4.88518e-08
-9.74888e-08
4.91976e-08
-1.06418e-07
4.93641e-08
-1.15354e-07
4.93831e-08
-1.24274e-07
4.928e-08
-1.33159e-07
4.9075e-08
-1.41993e-07
4.87829e-08
-1.50761e-07
4.84148e-08
-1.59447e-07
4.7978e-08
-1.68041e-07
4.74772e-08
-1.76529e-07
4.69144e-08
-1.84898e-07
4.629e-08
-1.93136e-07
4.5603e-08
-2.0123e-07
4.4851e-08
-2.09168e-07
4.40309e-08
-2.16935e-07
4.31391e-08
-2.24517e-07
4.21716e-08
-2.319e-07
4.11239e-08
-2.39067e-07
3.99917e-08
-2.46003e-07
3.87706e-08
-2.5269e-07
3.74563e-08
-2.59112e-07
3.60446e-08
-2.65249e-07
3.45318e-08
-2.71084e-07
3.29144e-08
-2.76598e-07
3.11896e-08
-2.81772e-07
2.93548e-08
-2.86586e-07
2.74082e-08
-2.9102e-07
2.53488e-08
-2.95056e-07
2.31763e-08
-2.98674e-07
2.08913e-08
-3.01855e-07
1.84952e-08
-3.04581e-07
1.59907e-08
-3.06835e-07
1.33814e-08
-3.086e-07
1.06721e-08
-3.09861e-07
7.86871e-09
-3.10603e-07
4.97851e-09
-3.10814e-07
2.00991e-09
-3.10484e-07
-1.02741e-09
-3.09603e-07
-4.12258e-09
-3.08165e-07
-7.26354e-09
-3.06166e-07
-1.04371e-08
-3.03604e-07
-1.36292e-08
-3.0048e-07
-1.68247e-08
-2.96797e-07
-2.00078e-08
-2.92562e-07
-2.31621e-08
-2.87785e-07
-2.62705e-08
-2.82476e-07
-2.9316e-08
-2.76653e-07
-3.22813e-08
-2.70332e-07
-3.51493e-08
-2.63535e-07
-3.79032e-08
-2.56286e-07
-4.05267e-08
-2.4861e-07
-4.30043e-08
-2.40538e-07
-4.53212e-08
-2.32098e-07
-4.74637e-08
-2.23326e-07
-4.94193e-08
-2.14255e-07
-5.11766e-08
-2.04922e-07
-5.27257e-08
-1.95364e-07
-5.40578e-08
-1.85622e-07
-5.51652e-08
-1.75734e-07
-5.60417e-08
-1.65741e-07
-5.6682e-08
-1.55685e-07
-5.70817e-08
-1.45606e-07
-5.72373e-08
-1.35548e-07
-5.71456e-08
-1.25551e-07
-5.68039e-08
-1.15658e-07
-5.62096e-08
-1.05912e-07
-5.53602e-08
-9.63555e-08
-5.42529e-08
-8.70309e-08
-5.28848e-08
-7.79812e-08
-5.12528e-08
-6.92495e-08
-4.9354e-08
-6.08788e-08
-4.71859e-08
-5.29117e-08
-4.4747e-08
-4.53906e-08
-4.2038e-08
-3.83563e-08
-3.90626e-08
-3.18479e-08
-3.58298e-08
-2.59018e-08
-3.23553e-08
-2.05499e-08
-2.86647e-08
-1.58185e-08
-2.47966e-08
-1.17262e-08
-2.08063e-08
-8.28203e-09
-1.67702e-08
-5.4829e-09
-1.27907e-08
-3.3119e-09
-9.00078e-09
-1.7363e-09
-5.56932e-09
-7.06341e-10
-2.70497e-09
-1.54867e-10
-6.58759e-10
2.70871e-10
-9.93022e-10
4.88276e-09
-3.62418e-09
1.38627e-08
-7.61048e-09
2.19183e-08
-1.27185e-08
2.90045e-08
-1.8754e-08
3.51307e-08
-2.55544e-08
4.03393e-08
-3.29826e-08
4.46956e-08
-4.09226e-08
4.82793e-08
-4.92758e-08
5.11764e-08
-5.79581e-08
5.34737e-08
-6.68979e-08
5.52546e-08
-7.60344e-08
5.65967e-08
-8.53159e-08
5.75695e-08
-9.46986e-08
5.82345e-08
-1.04145e-07
5.86443e-08
-1.13624e-07
5.88433e-08
-1.23109e-07
5.88679e-08
-1.32577e-07
5.87475e-08
-1.42007e-07
5.85049e-08
-1.51381e-07
5.81576e-08
-1.60685e-07
5.77183e-08
-1.69902e-07
5.71956e-08
-1.7902e-07
5.65948e-08
-1.88024e-07
5.59186e-08
-1.96902e-07
5.51674e-08
-2.05639e-07
5.434e-08
-2.14222e-07
5.3434e-08
-2.22637e-07
5.24458e-08
-2.30869e-07
5.13711e-08
-2.38902e-07
5.02054e-08
-2.46722e-07
4.89436e-08
-2.54311e-07
4.75807e-08
-2.61652e-07
4.61116e-08
-2.68727e-07
4.45313e-08
-2.75517e-07
4.28351e-08
-2.82004e-07
4.10187e-08
-2.88168e-07
3.90781e-08
-2.93988e-07
3.70099e-08
-2.99445e-07
3.48115e-08
-3.04518e-07
3.24809e-08
-3.09186e-07
3.00168e-08
-3.13428e-07
2.7419e-08
-3.17226e-07
2.46885e-08
-3.20557e-07
2.18271e-08
-3.23405e-07
1.88381e-08
-3.25749e-07
1.57258e-08
-3.27573e-07
1.2496e-08
-3.2886e-07
9.156e-09
-3.29596e-07
5.71442e-09
-3.29768e-07
2.18135e-09
-3.29363e-07
-1.43164e-09
-3.28374e-07
-5.11159e-09
-3.26794e-07
-8.84413e-09
-3.24617e-07
-1.26136e-08
-3.21843e-07
-1.64033e-08
-3.18473e-07
-2.01951e-08
-3.1451e-07
-2.39704e-08
-3.09963e-07
-2.77097e-08
-3.0484e-07
-3.13928e-08
-2.99157e-07
-3.49996e-08
-2.92929e-07
-3.85095e-08
-2.86176e-07
-4.19024e-08
-2.78921e-07
-4.51583e-08
-2.71189e-07
-4.82582e-08
-2.6301e-07
-5.11835e-08
-2.54414e-07
-5.39171e-08
-2.45435e-07
-5.64429e-08
-2.36108e-07
-5.87461e-08
-2.26471e-07
-6.08134e-08
-2.16564e-07
-6.26333e-08
-2.06426e-07
-6.41955e-08
-1.961e-07
-6.54914e-08
-1.85628e-07
-6.65138e-08
-1.75053e-07
-6.72567e-08
-1.64419e-07
-6.77153e-08
-1.53771e-07
-6.78857e-08
-1.43152e-07
-6.77647e-08
-1.32606e-07
-6.73495e-08
-1.22178e-07
-6.66375e-08
-1.11912e-07
-6.56263e-08
-1.01852e-07
-6.43131e-08
-9.20417e-08
-6.2695e-08
-8.25254e-08
-6.07691e-08
-7.33468e-08
-5.85326e-08
-6.45496e-08
-5.59831e-08
-5.61768e-08
-5.31198e-08
-4.82708e-08
-4.9944e-08
-4.08727e-08
-4.64608e-08
-3.40215e-08
-4.2681e-08
-2.77535e-08
-3.86233e-08
-2.21006e-08
-3.43176e-08
-1.70892e-08
-2.9808e-08
-1.27385e-08
-2.5157e-08
-9.05823e-09
-2.04505e-08
-6.04724e-09
-1.58017e-08
-3.69113e-09
-1.13569e-08
-1.96089e-09
-7.29956e-09
-8.1181e-10
-3.85405e-09
-1.83026e-10
-1.28754e-09
8.78469e-11
-1.06046e-09
5.94322e-09
-3.87057e-09
1.66728e-08
-8.1239e-09
2.61717e-08
-1.3566e-08
3.44467e-08
-1.99851e-08
4.15498e-08
-2.72044e-08
4.75586e-08
-3.50764e-08
5.25676e-08
-4.3477e-08
5.668e-08
-5.23021e-08
6.00015e-08
-6.14637e-08
6.26353e-08
-7.08876e-08
6.46785e-08
-8.05111e-08
6.62201e-08
-9.02812e-08
6.73396e-08
-1.00153e-07
6.81065e-08
-1.10089e-07
6.85803e-08
-1.20057e-07
6.8811e-08
-1.30029e-07
6.88398e-08
-1.39981e-07
6.86999e-08
-1.49893e-07
6.84172e-08
-1.59747e-07
6.80113e-08
-1.69525e-07
6.74967e-08
-1.79213e-07
6.68831e-08
-1.88795e-07
6.61769e-08
-1.98257e-07
6.53808e-08
-2.07586e-07
6.44957e-08
-2.16766e-07
6.35201e-08
-2.25783e-07
6.24512e-08
-2.34622e-07
6.12851e-08
-2.43268e-07
6.00171e-08
-2.51705e-07
5.86417e-08
-2.59915e-07
5.71535e-08
-2.6788e-07
5.55466e-08
-2.75584e-07
5.38152e-08
-2.83006e-07
5.19537e-08
-2.90128e-07
4.99568e-08
-2.96929e-07
4.78195e-08
-3.03388e-07
4.55374e-08
-3.09485e-07
4.31067e-08
-3.15198e-07
4.05242e-08
-3.20505e-07
3.77879e-08
-3.25385e-07
3.48965e-08
-3.29816e-07
3.18499e-08
-3.33776e-07
2.86491e-08
-3.37245e-07
2.52965e-08
-3.40203e-07
2.1796e-08
-3.42631e-07
1.81528e-08
-3.44508e-07
1.43738e-08
-3.4582e-07
1.04675e-08
-3.46549e-07
6.44402e-09
-3.46683e-07
2.31527e-09
-3.4621e-07
-1.90522e-09
-3.45119e-07
-6.20223e-09
-3.43404e-07
-1.0559e-08
-3.41061e-07
-1.49571e-08
-3.38087e-07
-1.93771e-08
-3.34484e-07
-2.37978e-08
-3.30257e-07
-2.81975e-08
-3.25414e-07
-3.25532e-08
-3.19965e-07
-3.68417e-08
-3.13925e-07
-4.10391e-08
-3.07313e-07
-4.51218e-08
-3.00149e-07
-4.9066e-08
-2.92459e-07
-5.28487e-08
-2.8427e-07
-5.64475e-08
-2.75612e-07
-5.98411e-08
-2.6652e-07
-6.30093e-08
-2.57029e-07
-6.59335e-08
-2.47178e-07
-6.85968e-08
-2.37008e-07
-7.09838e-08
-2.2656e-07
-7.30812e-08
-2.15878e-07
-7.48773e-08
-2.05007e-07
-7.63625e-08
-1.93992e-07
-7.75287e-08
-1.8288e-07
-7.83693e-08
-1.71716e-07
-7.88793e-08
-1.60547e-07
-7.90546e-08
-1.4942e-07
-7.8892e-08
-1.3838e-07
-7.8389e-08
-1.27474e-07
-7.75432e-08
-1.16748e-07
-7.63525e-08
-1.06247e-07
-7.48143e-08
-9.60156e-08
-7.29263e-08
-8.60988e-08
-7.06858e-08
-7.6541e-08
-6.80904e-08
-6.73859e-08
-6.51382e-08
-5.86766e-08
-6.18291e-08
-5.04553e-08
-5.81652e-08
-4.27628e-08
-5.41533e-08
-3.56377e-08
-4.98061e-08
-2.91157e-08
-4.51453e-08
-2.32284e-08
-4.02049e-08
-1.8002e-08
-3.50343e-08
-1.34557e-08
-2.97034e-08
-9.59976e-09
-2.43064e-08
-6.43393e-09
-1.89675e-08
-3.94545e-09
-1.38454e-08
-2.10753e-09
-9.13747e-09
-8.78228e-10
-5.08336e-09
-1.99711e-10
-1.96606e-09
-1.11871e-10
-1.11917e-09
7.06239e-09
-4.08601e-09
1.96396e-08
-8.5746e-09
3.06602e-08
-1.43127e-08
4.01847e-08
-2.1073e-08
4.83102e-08
-2.86666e-08
5.51522e-08
-3.69358e-08
6.08368e-08
-4.57495e-08
6.54936e-08
-5.49979e-08
6.92499e-08
-6.45894e-08
7.22268e-08
-7.44471e-08
7.45362e-08
-8.45064e-08
7.62795e-08
-9.47133e-08
7.75465e-08
-1.05022e-07
7.84152e-08
-1.15394e-07
7.89524e-08
-1.25797e-07
7.92138e-08
-1.36203e-07
7.92454e-08
-1.46587e-07
7.9084e-08
-1.56928e-07
7.87586e-08
-1.67208e-07
7.82912e-08
-1.77409e-07
7.76978e-08
-1.87515e-07
7.69895e-08
-1.97512e-07
7.61731e-08
-2.07383e-07
7.52521e-08
-2.17114e-07
7.42272e-08
-2.26691e-07
7.30968e-08
-2.36098e-07
7.18579e-08
-2.45319e-07
7.0506e-08
-2.54338e-07
6.90358e-08
-2.63137e-07
6.74414e-08
-2.717e-07
6.57164e-08
-2.80008e-07
6.38544e-08
-2.88042e-07
6.18488e-08
-2.95781e-07
5.96933e-08
-3.03206e-07
5.73818e-08
-3.10296e-07
5.49089e-08
-3.17028e-07
5.22695e-08
-3.2338e-07
4.94594e-08
-3.29331e-07
4.64751e-08
-3.34858e-07
4.33142e-08
-3.39936e-07
3.99755e-08
-3.44545e-07
3.64588e-08
-3.48662e-07
3.27655e-08
-3.52264e-07
2.88984e-08
-3.55329e-07
2.48619e-08
-3.57839e-07
2.06622e-08
-3.59772e-07
1.63072e-08
-3.61112e-07
1.18069e-08
-3.6184e-07
7.17285e-09
-3.61944e-07
2.41887e-09
-3.6141e-07
-2.43943e-09
-3.60228e-07
-7.38448e-09
-3.5839e-07
-1.23969e-08
-3.55891e-07
-1.74556e-08
-3.5273e-07
-2.25378e-08
-3.48909e-07
-2.76194e-08
-3.44431e-07
-3.2675e-08
-3.39306e-07
-3.76784e-08
-3.33545e-07
-4.26026e-08
-3.27164e-07
-4.74201e-08
-3.20183e-07
-5.21034e-08
-3.12623e-07
-5.66255e-08
-3.04513e-07
-6.09594e-08
-2.95881e-07
-6.50795e-08
-2.8676e-07
-6.89612e-08
-2.77188e-07
-7.25814e-08
-2.67203e-07
-7.59187e-08
-2.56846e-07
-7.89536e-08
-2.46162e-07
-8.16687e-08