/*--------------------------------*- C++ -*----------------------------------*\
  =========                 |
  \\      /  F ield         | OpenFOAM: The Open Source CFD Toolbox
   \\    /   O peration     | Website:  https://openfoam.org
    \\  /    A nd           | Version:  9
     \\/     M anipulation  |
\*---------------------------------------------------------------------------*/
FoamFile
{
    format      ascii;
    class       volVectorField;
    location    "0.5";
    object      U;
}
// * * * * * * * * * * * * * * * * * * * * * * * * * * * * * * * * * * * * * //

dimensions      [0 1 -1 0 0 0 0];

internalField   nonuniform List<vector> 
10000
(
(5.76882e-06 -5.76054e-06 0)
(1.228e-05 -3.81971e-06 0)
(5.8981e-06 1.64605e-06 0)
(-1.65083e-05 7.12176e-06 0)
(-5.39934e-05 1.18026e-05 0)
(-0.00010409 1.54565e-05 0)
(-0.000164348 1.81804e-05 0)
(-0.000232484 2.0152e-05 0)
(-0.000306558 2.15387e-05 0)
(-0.000384988 2.248e-05 0)
(-0.000466515 2.30869e-05 0)
(-0.000550152 2.34469e-05 0)
(-0.00063514 2.36274e-05 0)
(-0.000720902 2.36796e-05 0)
(-0.000807005 2.36423e-05 0)
(-0.000893132 2.35438e-05 0)
(-0.000979048 2.34048e-05 0)
(-0.00106458 2.32394e-05 0)
(-0.00114961 2.30569e-05 0)
(-0.00123405 2.28631e-05 0)
(-0.00131781 2.26607e-05 0)
(-0.00140084 2.24505e-05 0)
(-0.00148308 2.22316e-05 0)
(-0.00156448 2.2002e-05 0)
(-0.00164496 2.17591e-05 0)
(-0.00172446 2.14996e-05 0)
(-0.00180291 2.122e-05 0)
(-0.0018802 2.09163e-05 0)
(-0.00195625 2.05848e-05 0)
(-0.00203093 2.02215e-05 0)
(-0.00210412 1.98226e-05 0)
(-0.00217568 1.93843e-05 0)
(-0.00224547 1.89028e-05 0)
(-0.00231331 1.83744e-05 0)
(-0.00237905 1.77954e-05 0)
(-0.00244249 1.71626e-05 0)
(-0.00250344 1.64728e-05 0)
(-0.00256169 1.57229e-05 0)
(-0.00261704 1.49105e-05 0)
(-0.00266925 1.40329e-05 0)
(-0.00271812 1.30883e-05 0)
(-0.00276339 1.20749e-05 0)
(-0.00280484 1.09917e-05 0)
(-0.00284224 9.83841e-06 0)
(-0.00287533 8.61505e-06 0)
(-0.0029039 7.32239e-06 0)
(-0.0029277 5.96192e-06 0)
(-0.00294653 4.53592e-06 0)
(-0.00296016 3.04762e-06 0)
(-0.00296841 1.50143e-06 0)
(-0.00297108 -9.58154e-08 0)
(-0.00296803 -1.74176e-06 0)
(-0.0029591 -3.42663e-06 0)
(-0.00294418 -5.14366e-06 0)
(-0.00292318 -6.88404e-06 0)
(-0.00289606 -8.63807e-06 0)
(-0.00286277 -1.03954e-05 0)
(-0.00282335 -1.2145e-05 0)
(-0.00277783 -1.38757e-05 0)
(-0.00272631 -1.55755e-05 0)
(-0.0026689 -1.72325e-05 0)
(-0.00260578 -1.88345e-05 0)
(-0.00253714 -2.03693e-05 0)
(-0.00246323 -2.18254e-05 0)
(-0.00238434 -2.31917e-05 0)
(-0.00230077 -2.44575e-05 0)
(-0.00221287 -2.56131e-05 0)
(-0.00212103 -2.66494e-05 0)
(-0.00202565 -2.75585e-05 0)
(-0.00192718 -2.83337e-05 0)
(-0.00182605 -2.89694e-05 0)
(-0.00172275 -2.94611e-05 0)
(-0.00161776 -2.98053e-05 0)
(-0.00151157 -2.99997e-05 0)
(-0.00140471 -3.00427e-05 0)
(-0.00129768 -2.99339e-05 0)
(-0.00119099 -2.96734e-05 0)
(-0.00108518 -2.92614e-05 0)
(-0.000980752 -2.86989e-05 0)
(-0.000878242 -2.79864e-05 0)
(-0.000778174 -2.71245e-05 0)
(-0.000681077 -2.61132e-05 0)
(-0.000587484 -2.4952e-05 0)
(-0.000497935 -2.36395e-05 0)
(-0.00041298 -2.21734e-05 0)
(-0.000333176 -2.05506e-05 0)
(-0.000259095 -1.87671e-05 0)
(-0.000191317 -1.68182e-05 0)
(-0.000130432 -1.46989e-05 0)
(-7.70313e-05 -1.24053e-05 0)
(-3.16949e-05 -9.93575e-06 0)
(5.02359e-06 -7.29684e-06 0)
(3.26338e-05 -4.50169e-06 0)
(5.07698e-05 -1.57841e-06 0)
(5.92891e-05 1.38386e-06 0)
(5.84322e-05 4.22157e-06 0)
(4.90878e-05 6.62891e-06 0)
(3.31961e-05 7.97794e-06 0)
(1.48714e-05 7.14408e-06 0)
(2.90368e-06 2.93096e-06 0)
(3.90303e-06 -1.23484e-05 0)
(-3.18313e-06 3.23919e-06 0)
(-4.26113e-05 3.09933e-05 0)
(-0.000117159 5.96303e-05 0)
(-0.000225499 8.53823e-05 0)
(-0.000363789 0.000106887 0)
(-0.000527267 0.000124068 0)
(-0.000711146 0.000137373 0)
(-0.000911068 0.000147397 0)
(-0.00112326 0.000154735 0)
(-0.00134458 0.000159924 0)
(-0.00157243 0.000163426 0)
(-0.00180478 0.000165625 0)
(-0.00203998 0.000166831 0)
(-0.00227678 0.000167291 0)
(-0.0025142 0.000167195 0)
(-0.00275151 0.000166691 0)
(-0.00298812 0.000165884 0)
(-0.00322362 0.000164851 0)
(-0.00345765 0.000163644 0)
(-0.00368994 0.000162295 0)
(-0.00392026 0.00016082 0)
(-0.00414838 0.000159225 0)
(-0.00437411 0.000157506 0)
(-0.00459722 0.000155653 0)
(-0.0048175 0.00015365 0)
(-0.0050347 0.00015148 0)
(-0.00524855 0.000149121 0)
(-0.00545876 0.000146552 0)
(-0.00566501 0.00014375 0)
(-0.00586694 0.000140692 0)
(-0.00606417 0.000137354 0)
(-0.00625629 0.000133715 0)
(-0.00644286 0.000129752 0)
(-0.00662341 0.000125443 0)
(-0.00679745 0.000120769 0)
(-0.00696445 0.00011571 0)
(-0.00712388 0.000110249 0)
(-0.00727516 0.000104371 0)
(-0.00741771 9.80626e-05 0)
(-0.00755094 9.13124e-05 0)
(-0.00767424 8.41131e-05 0)
(-0.00778699 7.64601e-05 0)
(-0.00788858 6.83527e-05 0)
(-0.00797839 5.97943e-05 0)
(-0.00805583 5.07926e-05 0)
(-0.0081203 4.13599e-05 0)
(-0.00817124 3.15137e-05 0)
(-0.00820811 2.12766e-05 0)
(-0.00823041 1.06768e-05 0)
(-0.0082377 -2.51253e-07 0)
(-0.00822956 -1.14615e-05 0)
(-0.00820564 -2.29151e-05 0)
(-0.00816566 -3.45612e-05 0)
(-0.00810941 -4.63432e-05 0)
(-0.00803677 -5.82002e-05 0)
(-0.00794769 -7.00667e-05 0)
(-0.0078422 -8.18743e-05 0)
(-0.00772045 -9.35514e-05 0)
(-0.00758268 -0.000105024 0)
(-0.0074292 -0.000116219 0)
(-0.00726046 -0.000127059 0)
(-0.00707698 -0.000137472 0)
(-0.00687938 -0.000147384 0)
(-0.00666839 -0.000156726 0)
(-0.00644482 -0.000165432 0)
(-0.00620956 -0.00017344 0)
(-0.00596359 -0.000180695 0)
(-0.00570794 -0.000187146 0)
(-0.00544373 -0.000192748 0)
(-0.00517211 -0.000197463 0)
(-0.00489432 -0.000201259 0)
(-0.00461158 -0.000204111 0)
(-0.0043252 -0.000205998 0)
(-0.00403648 -0.000206906 0)
(-0.00374677 -0.000206823 0)
(-0.00345741 -0.000205742 0)
(-0.00316977 -0.000203657 0)
(-0.00288522 -0.000200564 0)
(-0.00260517 -0.000196457 0)
(-0.00233102 -0.00019133 0)
(-0.00206419 -0.000185174 0)
(-0.00180611 -0.000177977 0)
(-0.00155827 -0.000169724 0)
(-0.00132214 -0.000160398 0)
(-0.00109924 -0.000149976 0)
(-0.000891124 -0.000138441 0)
(-0.000699345 -0.000125774 0)
(-0.000525471 -0.000111971 0)
(-0.000371044 -9.70443e-05 0)
(-0.000237538 -8.10415e-05 0)
(-0.00012629 -6.40704e-05 0)
(-3.83877e-05 -4.63257e-05 0)
(2.54716e-05 -2.81476e-05 0)
(6.52468e-05 -1.01254e-05 0)
(8.19253e-05 6.75915e-06 0)
(7.792e-05 2.08982e-05 0)
(5.76255e-05 2.97125e-05 0)
(2.90568e-05 2.92497e-05 0)
(7.00734e-06 1.48052e-05 0)
(-1.59838e-06 -6.05081e-06 0)
(-3.14475e-05 4.27495e-05 0)
(-0.000113121 0.000111852 0)
(-0.000244153 0.000182789 0)
(-0.000421797 0.000247766 0)
(-0.00064147 0.00030355 0)
(-0.000897196 0.000349422 0)
(-0.00118277 0.000385948 0)
(-0.00149235 0.000414232 0)
(-0.00182076 0.000435532 0)
(-0.00216349 0.000451077 0)
(-0.00251681 0.000461981 0)
(-0.00287763 0.000469203 0)
(-0.00324346 0.000473548 0)
(-0.00361232 0.00047567 0)
(-0.00398263 0.000476092 0)
(-0.00435319 0.000475219 0)
(-0.00472301 0.000473357 0)
(-0.00509134 0.000470731 0)
(-0.00545757 0.000467498 0)
(-0.00582119 0.000463763 0)
(-0.00618177 0.000459585 0)
(-0.00653892 0.000454991 0)
(-0.00689226 0.000449982 0)
(-0.00724142 0.000444539 0)
(-0.007586 0.000438629 0)
(-0.0079256 0.000432209 0)
(-0.00825977 0.000425228 0)
(-0.00858804 0.000417629 0)
(-0.00890989 0.000409356 0)
(-0.00922477 0.000400348 0)
(-0.00953206 0.000390544 0)
(-0.00983114 0.000379885 0)
(-0.0101213 0.000368313 0)
(-0.0104019 0.000355772 0)
(-0.010672 0.00034221 0)
(-0.010931 0.000327577 0)
(-0.011178 0.000311829 0)
(-0.0114121 0.000294927 0)
(-0.0116324 0.000276837 0)
(-0.0118381 0.000257534 0)
(-0.0120282 0.000237 0)
(-0.0122018 0.000215226 0)
(-0.012358 0.000192215 0)
(-0.0124959 0.000167978 0)
(-0.0126145 0.000142541 0)
(-0.0127131 0.000115941 0)
(-0.0127908 8.8229e-05 0)
(-0.0128467 5.94707e-05 0)
(-0.0128802 2.97448e-05 0)
(-0.0128906 -8.54927e-07 0)
(-0.0128774 -3.2203e-05 0)
(-0.0128399 -6.41893e-05 0)
(-0.0127779 -9.66737e-05 0)
(-0.012691 -0.000129503 0)
(-0.0125791 -0.000162513 0)
(-0.0124422 -0.000195527 0)
(-0.0122802 -0.000228361 0)
(-0.0120935 -0.000260824 0)
(-0.0118823 -0.000292718 0)
(-0.0116473 -0.000323845 0)
(-0.011389 -0.000354003 0)
(-0.0111083 -0.000382996 0)
(-0.0108061 -0.000410631 0)
(-0.0104835 -0.000436722 0)
(-0.0101417 -0.000461093 0)
(-0.00978196 -0.000483581 0)
(-0.0094058 -0.000504033 0)
(-0.00901473 -0.000522314 0)
(-0.00861042 -0.000538302 0)
(-0.00819457 -0.000551893 0)
(-0.007769 -0.000562997 0)
(-0.00733556 -0.000571541 0)
(-0.00689617 -0.000577464 0)
(-0.00645277 -0.000580718 0)
(-0.00600737 -0.000581266 0)
(-0.00556198 -0.000579077 0)
(-0.00511866 -0.000574126 0)
(-0.00467947 -0.000566389 0)
(-0.00424653 -0.00055584 0)
(-0.00382196 -0.000542452 0)
(-0.00340792 -0.000526189 0)
(-0.0030066 -0.000507011 0)
(-0.00262023 -0.00048487 0)
(-0.00225108 -0.000459713 0)
(-0.00190147 -0.000431486 0)
(-0.00157372 -0.000400146 0)
(-0.00127021 -0.000365667 0)
(-0.000993265 -0.000328065 0)
(-0.000745169 -0.000287427 0)
(-0.000528063 -0.000243948 0)
(-0.000343837 -0.000198001 0)
(-0.000193968 -0.000150221 0)
(-7.93003e-05 -0.000101644 0)
(2.83839e-07 -5.38819e-05 0)
(4.62725e-05 -9.42992e-06 0)
(6.20194e-05 2.79638e-05 0)
(5.32244e-05 5.28585e-05 0)
(2.95166e-05 5.77218e-05 0)
(7.7353e-06 3.28259e-05 0)
(-7.32717e-06 1.67826e-05 0)
(-6.17511e-05 0.000118745 0)
(-0.000188399 0.000243748 0)
(-0.0003769 0.000369144 0)
(-0.000621908 0.000484189 0)
(-0.000917838 0.000584011 0)
(-0.00125775 0.000667262 0)
(-0.00163449 0.000734573 0)
(-0.00204128 0.000787534 0)
(-0.00247199 0.000828096 0)
(-0.00292126 0.000858255 0)
(-0.0033845 0.000879875 0)
(-0.00385786 0.000894607 0)
(-0.00433819 0.000903864 0)
(-0.00482293 0.000908817 0)
(-0.00531001 0.000910415 0)
(-0.00579776 0.000909407 0)
(-0.00628487 0.00090637 0)
(-0.00677026 0.000901732 0)
(-0.00725306 0.000895803 0)
(-0.00773254 0.00088879 0)
(-0.00820805 0.000880821 0)
(-0.00867901 0.000871962 0)
(-0.00914489 0.000862226 0)
(-0.00960513 0.000851591 0)
(-0.0100592 0.000840005 0)
(-0.0105065 0.000827396 0)
(-0.0109464 0.000813676 0)
(-0.0113783 0.00079875 0)
(-0.0118015 0.000782513 0)
(-0.0122152 0.000764859 0)
(-0.0126186 0.00074568 0)
(-0.0130109 0.00072487 0)
(-0.0133913 0.000702324 0)
(-0.0137587 0.000677943 0)
(-0.0141121 0.000651631 0)
(-0.0144506 0.000623304 0)
(-0.014773 0.00059288 0)
(-0.0150783 0.000560293 0)
(-0.0153652 0.000525486 0)
(-0.0156328 0.000488416 0)
(-0.0158797 0.000449055 0)
(-0.0161049 0.000407393 0)
(-0.0163071 0.000363438 0)
(-0.0164853 0.000317219 0)
(-0.0166382 0.000268788 0)
(-0.0167648 0.00021822 0)
(-0.0168641 0.000165615 0)
(-0.016935 0.000111099 0)
(-0.0169768 5.48239e-05 0)
(-0.0169885 -3.02903e-06 0)
(-0.0169694 -6.22475e-05 0)
(-0.016919 -0.000122604 0)
(-0.0168368 -0.00018384 0)
(-0.0167225 -0.000245672 0)
(-0.0165758 -0.000307797 0)
(-0.0163968 -0.000369892 0)
(-0.0161855 -0.000431616 0)
(-0.0159424 -0.000492619 0)
(-0.0156679 -0.00055254 0)
(-0.0153626 -0.000611014 0)
(-0.0150274 -0.000667677 0)
(-0.0146634 -0.000722169 0)
(-0.0142717 -0.000774139 0)
(-0.0138538 -0.000823249 0)
(-0.0134111 -0.000869179 0)
(-0.0129454 -0.000911629 0)
(-0.0124584 -0.000950322 0)
(-0.0119522 -0.00098501 0)
(-0.0114288 -0.00101547 0)
(-0.0108904 -0.00104151 0)
(-0.0103392 -0.00106295 0)
(-0.00977767 -0.00107967 0)
(-0.00920814 -0.00109154 0)
(-0.00863311 -0.00109847 0)
(-0.0080551 -0.00110038 0)
(-0.00747667 -0.00109721 0)
(-0.00690041 -0.00108889 0)
(-0.00632897 -0.00107538 0)
(-0.00576502 -0.00105661 0)
(-0.00521127 -0.00103252 0)
(-0.00467047 -0.00100304 0)
(-0.00414542 -0.000968076 0)
(-0.00363898 -0.000927543 0)
(-0.00315403 -0.000881342 0)
(-0.00269351 -0.000829383 0)
(-0.0022604 -0.000771597 0)
(-0.00185767 -0.000707968 0)
(-0.00148825 -0.000638566 0)
(-0.00115496 -0.000563605 0)
(-0.000860442 -0.000483523 0)
(-0.00060696 -0.000399085 0)
(-0.000396255 -0.00031154 0)
(-0.000229266 -0.00022283 0)
(-0.000105793 -0.000135864 0)
(-2.40817e-05 -5.49119e-05 0)
(1.9628e-05 1.39388e-05 0)
(3.15595e-05 6.22365e-05 0)
(2.16966e-05 7.87483e-05 0)
(6.43346e-06 4.85453e-05 0)
(-1.25233e-05 5.59245e-05 0)
(-9.05423e-05 0.000231517 0)
(-0.000261143 0.000426252 0)
(-0.000505412 0.000616342 0)
(-0.000814682 0.000789699 0)
(-0.00118194 0.000940593 0)
(-0.00159921 0.00106739 0)
(-0.0020585 0.0011709 0)
(-0.00255234 0.00125324 0)
(-0.00307398 0.00131707 0)
(-0.00361744 0.00136516 0)
(-0.00417754 0.00140017 0)
(-0.00474992 0.0014245 0)
(-0.0053309 0.00144022 0)
(-0.00591749 0.00144908 0)
(-0.0065072 0.00145251 0)
(-0.00709802 0.00145167 0)
(-0.00768831 0.00144743 0)
(-0.00827674 0.00144049 0)
(-0.00886217 0.00143133 0)
(-0.00944365 0.00142029 0)
(-0.0100204 0.00140759 0)
(-0.0105915 0.00139334 0)
(-0.0111564 0.00137759 0)
(-0.0117143 0.00136031 0)
(-0.0122646 0.00134143 0)
(-0.0128064 0.00132086 0)
(-0.0133391 0.00129846 0)
(-0.0138617 0.0012741 0)
(-0.0143735 0.00124761 0)
(-0.0148735 0.00121885 0)
(-0.0153608 0.00118764 0)
(-0.0158342 0.00115384 0)
(-0.0162928 0.00111727 0)
(-0.0167354 0.0010778 0)
(-0.0171609 0.00103528 0)
(-0.0175678 0.000989575 0)
(-0.0179551 0.000940577 0)
(-0.0183213 0.000888183 0)
(-0.0186652 0.000832313 0)
(-0.0189853 0.000772906 0)
(-0.0192804 0.000709928 0)
(-0.0195489 0.000643369 0)
(-0.0197896 0.00057325 0)
(-0.0200011 0.000499625 0)
(-0.0201821 0.000422581 0)
(-0.0203314 0.000342243 0)
(-0.0204477 0.000258775 0)
(-0.0205299 0.000172378 0)
(-0.020577 8.32986e-05 0)
(-0.020588 -8.17817e-06 0)
(-0.0205623 -0.000101726 0)
(-0.020499 -0.000196979 0)
(-0.0203977 -0.000293534 0)
(-0.020258 -0.00039095 0)
(-0.0200799 -0.000488755 0)
(-0.0198631 -0.000586449 0)
(-0.0196081 -0.000683506 0)
(-0.0193151 -0.000779385 0)
(-0.0189849 -0.000873532 0)
(-0.0186182 -0.000965385 0)
(-0.018216 -0.00105439 0)
(-0.0177796 -0.00113998 0)
(-0.0173105 -0.00122164 0)
(-0.0168102 -0.00129883 0)
(-0.0162806 -0.00137108 0)
(-0.0157237 -0.00143792 0)
(-0.0151416 -0.00149893 0)
(-0.0145367 -0.00155372 0)
(-0.0139113 -0.00160196 0)
(-0.013268 -0.00164335 0)
(-0.0126096 -0.00167762 0)
(-0.0119386 -0.00170456 0)
(-0.0112581 -0.00172398 0)
(-0.0105708 -0.00173573 0)
(-0.00987968 -0.00173968 0)
(-0.00918779 -0.00173572 0)
(-0.00849815 -0.00172375 0)
(-0.00781385 -0.00170368 0)
(-0.00713803 -0.0016754 0)
(-0.00647385 -0.00163881 0)
(-0.00582454 -0.00159378 0)
(-0.00519339 -0.00154019 0)
(-0.00458371 -0.00147787 0)
(-0.0039989 -0.0014067 0)
(-0.00344237 -0.00132653 0)
(-0.00291756 -0.0012373 0)
(-0.00242792 -0.00113902 0)
(-0.0019768 -0.00103184 0)
(-0.00156743 -0.000916154 0)
(-0.00120277 -0.00079272 0)
(-0.000885366 -0.000662791 0)
(-0.00061713 -0.000528344 0)
(-0.000399091 -0.000392344 0)
(-0.000231056 -0.000259104 0)
(-0.00011123 -0.000134725 0)
(-3.57996e-05 -2.76366e-05 0)
(1.47992e-06 5.08546e-05 0)
(1.01031e-05 8.6049e-05 0)
(4.33972e-06 5.85287e-05 0)
(-1.69444e-05 0.00010966 0)
(-0.000116442 0.000378931 0)
(-0.000328095 0.00065718 0)
(-0.00062475 0.000921762 0)
(-0.000994188 0.00116078 0)
(-0.00142768 0.00136859 0)
(-0.00191601 0.00154379 0)
(-0.00245036 0.00168767 0)
(-0.00302264 0.00180296 0)
(-0.00362561 0.00189311 0)
(-0.00425283 0.00196172 0)
(-0.00489873 0.00201224 0)
(-0.00555855 0.00204784 0)
(-0.00622827 0.0020713 0)
(-0.00690454 0.00208496 0)
(-0.00758457 0.0020908 0)
(-0.00826606 0.00209037 0)
(-0.00894712 0.00208493 0)
(-0.00962617 0.00207543 0)
(-0.0103019 0.00206256 0)
(-0.0109731 0.00204682 0)
(-0.0116387 0.00202853 0)
(-0.012298 0.00200786 0)
(-0.0129498 0.0019849 0)
(-0.0135935 0.00195962 0)
(-0.0142282 0.00193194 0)
(-0.0148529 0.00190173 0)
(-0.0154667 0.00186884 0)
(-0.0160688 0.00183305 0)
(-0.016658 0.00179418 0)
(-0.0172332 0.001752 0)
(-0.0177935 0.00170629 0)
(-0.0183375 0.00165684 0)
(-0.018864 0.00160342 0)
(-0.0193716 0.00154584 0)
(-0.0198592 0.0014839 0)
(-0.0203251 0.00141744 0)
(-0.020768 0.00134628 0)
(-0.0211864 0.00127031 0)
(-0.0215787 0.00118941 0)
(-0.0219435 0.00110351 0)
(-0.0222791 0.00101257 0)
(-0.022584 0.000916583 0)
(-0.0228567 0.000815598 0)
(-0.0230957 0.000709695 0)
(-0.0232995 0.00059901 0)
(-0.0234667 0.000483726 0)
(-0.023596 0.000364085 0)
(-0.0236862 0.000240382 0)
(-0.0237361 0.000112968 0)
(-0.0237448 -1.77461e-05 0)
(-0.0237113 -0.000151297 0)
(-0.0236349 -0.000287163 0)
(-0.0235153 -0.000424769 0)
(-0.0233518 -0.000563496 0)
(-0.0231445 -0.000702678 0)
(-0.0228934 -0.00084161 0)
(-0.0225988 -0.000979558 0)
(-0.0222612 -0.00111576 0)
(-0.0218812 -0.00124945 0)
(-0.0214599 -0.00137984 0)
(-0.0209985 -0.00150614 0)
(-0.0204984 -0.0016276 0)
(-0.0199612 -0.00174347 0)
(-0.0193889 -0.00185302 0)
(-0.0187835 -0.00195559 0)
(-0.0181472 -0.00205052 0)
(-0.0174825 -0.00213724 0)
(-0.016792 -0.00221522 0)
(-0.0160785 -0.00228397 0)
(-0.0153448 -0.00234309 0)
(-0.0145939 -0.00239221 0)
(-0.0138289 -0.00243102 0)
(-0.0130531 -0.00245926 0)
(-0.0122695 -0.00247672 0)
(-0.0114817 -0.00248322 0)
(-0.0106928 -0.00247858 0)
(-0.00990632 -0.00246267 0)
(-0.00912572 -0.00243535 0)
(-0.00835448 -0.00239646 0)
(-0.00759614 -0.00234585 0)
(-0.00685431 -0.00228334 0)
(-0.00613263 -0.00220875 0)
(-0.00543478 -0.00212188 0)
(-0.00476452 -0.00202254 0)
(-0.00412563 -0.00191058 0)
(-0.00352189 -0.00178592 0)
(-0.00295706 -0.00164861 0)
(-0.00243482 -0.00149894 0)
(-0.00195864 -0.00133753 0)
(-0.00153172 -0.00116549 0)
(-0.00115679 -0.00098464 0)
(-0.000835885 -0.000797736 0)
(-0.000570141 -0.000608827 0)
(-0.000359445 -0.000423643 0)
(-0.000202122 -0.000250088 0)
(-9.45583e-05 -9.87959e-05 0)
(-3.08194e-05 1.63054e-05 0)
(-2.36544e-06 7.74775e-05 0)
(2.13923e-06 6.17782e-05 0)
(-2.0648e-05 0.000176236 0)
(-0.000139208 0.000557832 0)
(-0.000388171 0.000932817 0)
(-0.000732938 0.00128124 0)
(-0.00115782 0.00159267 0)
(-0.00165223 0.00186245 0)
(-0.00220562 0.00209003 0)
(-0.00280823 0.00227749 0)
(-0.00345138 0.00242844 0)
(-0.00412735 0.00254719 0)
(-0.00482937 0.00263821 0)
(-0.00555156 0.00270581 0)
(-0.00628886 0.00275395 0)
(-0.00703702 0.00278611 0)
(-0.00779241 0.00280527 0)
(-0.00855203 0.00281393 0)
(-0.00931335 0.00281411 0)
(-0.0100743 0.00280743 0)
(-0.010833 0.00279512 0)
(-0.0115881 0.0027781 0)
(-0.0123381 0.00275705 0)
(-0.013082 0.00273238 0)
(-0.0138186 0.00270435 0)
(-0.0145468 0.00267308 0)
(-0.0152658 0.00263855 0)
(-0.0159745 0.00260068 0)
(-0.0166718 0.00255932 0)
(-0.0173567 0.00251424 0)
(-0.0180282 0.00246522 0)
(-0.018685 0.00241198 0)
(-0.0193259 0.00235426 0)
(-0.0199497 0.00229177 0)
(-0.0205549 0.00222423 0)
(-0.0211404 0.00215138 0)
(-0.0217044 0.00207294 0)
(-0.0222456 0.00198867 0)
(-0.0227624 0.00189835 0)
(-0.0232531 0.00180179 0)
(-0.0237161 0.00169882 0)
(-0.0241498 0.00158932 0)
(-0.0245524 0.00147319 0)
(-0.0249222 0.00135039 0)
(-0.0252576 0.00122093 0)
(-0.0255569 0.00108488 0)
(-0.0258185 0.000942365 0)
(-0.0260406 0.000793572 0)
(-0.026222 0.000638759 0)
(-0.0263611 0.000478254 0)
(-0.0264565 0.00031246 0)
(-0.0265072 0.000141852 0)
(-0.0265119 -3.30208e-05 0)
(-0.0264699 -0.000211537 0)
(-0.0263804 -0.000392999 0)
(-0.0262428 -0.000576645 0)
(-0.0260568 -0.00076165 0)
(-0.0258223 -0.000947136 0)
(-0.0255394 -0.00113217 0)
(-0.0252085 -0.00131579 0)
(-0.0248301 -0.00149699 0)
(-0.0244051 -0.00167475 0)
(-0.0239347 -0.00184805 0)
(-0.0234201 -0.00201588 0)
(-0.022863 -0.00217722 0)
(-0.0222653 -0.00233109 0)
(-0.021629 -0.00247657 0)
(-0.0209564 -0.00261277 0)
(-0.0202501 -0.00273885 0)
(-0.0195127 -0.00285405 0)
(-0.0187471 -0.00295769 0)
(-0.0179565 -0.00304914 0)
(-0.0171438 -0.00312786 0)
(-0.0163125 -0.00319338 0)
(-0.0154659 -0.00324531 0)
(-0.0146076 -0.00328329 0)
(-0.0137409 -0.00330706 0)
(-0.0128697 -0.00331636 0)
(-0.0119974 -0.00331098 0)
(-0.011128 -0.00329073 0)
(-0.010265 -0.00325543 0)
(-0.00941225 -0.00320489 0)
(-0.00857365 -0.00313889 0)
(-0.00775305 -0.00305721 0)
(-0.00695437 -0.00295963 0)
(-0.00618158 -0.00284588 0)
(-0.00543868 -0.00271576 0)
(-0.00472971 -0.00256908 0)
(-0.00405869 -0.00240579 0)
(-0.00342958 -0.00222601 0)
(-0.00284627 -0.00203018 0)
(-0.00231241 -0.00181917 0)
(-0.00183133 -0.0015945 0)
(-0.00140587 -0.00135855 0)
(-0.0010382 -0.00111491 0)
(-0.000729538 -0.000868707 0)
(-0.000479918 -0.000627046 0)
(-0.000287887 -0.000399535 0)
(-0.000150177 -0.000198834 0)
(-6.13451e-05 -4.11869e-05 0)
(-1.39954e-05 5.31072e-05 0)
(1.66241e-07 5.84544e-05 0)
(-2.376e-05 0.000253948 0)
(-0.000159046 0.000764808 0)
(-0.000441378 0.00124891 0)
(-0.000829657 0.00169003 0)
(-0.00130501 0.00208017 0)
(-0.00185496 0.00241648 0)
(-0.00246758 0.0026998 0)
(-0.00313214 0.00293345 0)
(-0.0038393 0.00312211 0)
(-0.00458092 0.00327114 0)
(-0.00534989 0.00338595 0)
(-0.00614008 0.00347176 0)
(-0.00694624 0.00353332 0)
(-0.00776388 0.00357486 0)
(-0.00858922 0.00359999 0)
(-0.00941909 0.00361175 0)
(-0.0102508 0.00361263 0)
(-0.0110821 0.00360462 0)
(-0.011911 0.00358924 0)
(-0.0127358 0.00356767 0)
(-0.0135552 0.00354073 0)
(-0.0143678 0.00350897 0)
(-0.0151723 0.00347272 0)
(-0.0159677 0.00343214 0)
(-0.0167527 0.00338724 0)
(-0.0175263 0.00333792 0)
(-0.0182873 0.00328399 0)
(-0.0190345 0.00322521 0)
(-0.0197667 0.00316129 0)
(-0.0204827 0.0030919 0)
(-0.0211809 0.00301671 0)
(-0.0218602 0.00293537 0)
(-0.0225189 0.00284754 0)
(-0.0231556 0.0027529 0)
(-0.0237686 0.0026511 0)
(-0.0243564 0.00254187 0)
(-0.0249171 0.00242493 0)
(-0.0254491 0.00230004 0)
(-0.0259506 0.00216701 0)
(-0.0264197 0.00202568 0)
(-0.0268546 0.00187596 0)
(-0.0272536 0.00171782 0)
(-0.0276147 0.00155127 0)
(-0.0279362 0.00137641 0)
(-0.0282164 0.00119342 0)
(-0.0284535 0.00100255 0)
(-0.0286459 0.00080413 0)
(-0.0287922 0.000598602 0)
(-0.0288908 0.00038648 0)
(-0.0289406 0.000168379 0)
(-0.0289405 -5.49966e-05 0)
(-0.0288894 -0.00028285 0)
(-0.0287866 -0.000514294 0)
(-0.0286316 -0.000748359 0)
(-0.0284241 -0.000983999 0)
(-0.028164 -0.0012201 0)
(-0.0278514 -0.00145548 0)
(-0.0274868 -0.00168892 0)
(-0.0270709 -0.00191916 0)
(-0.0266046 -0.00214493 0)
(-0.0260892 -0.00236492 0)
(-0.0255262 -0.00257786 0)
(-0.0249175 -0.0027825 0)
(-0.0242649 -0.0029776 0)
(-0.0235709 -0.003162 0)
(-0.0228379 -0.00333458 0)
(-0.0220688 -0.00349432 0)
(-0.0212665 -0.00364025 0)
(-0.0204341 -0.00377153 0)
(-0.0195749 -0.00388738 0)
(-0.0186924 -0.00398712 0)
(-0.0177901 -0.00407018 0)
(-0.0168717 -0.00413607 0)
(-0.015941 -0.00418435 0)
(-0.0150018 -0.00421469 0)
(-0.014058 -0.00422678 0)
(-0.0131136 -0.00422037 0)
(-0.0121724 -0.00419523 0)
(-0.0112385 -0.00415113 0)
(-0.0103159 -0.00408783 0)
(-0.00940866 -0.0040051 0)
(-0.00852094 -0.00390267 0)
(-0.00765684 -0.00378027 0)
(-0.00682052 -0.00363761 0)
(-0.00601617 -0.00347445 0)
(-0.00524798 -0.00329061 0)
(-0.00452012 -0.00308606 0)
(-0.00383671 -0.00286103 0)
(-0.00320171 -0.00261612 0)
(-0.00261889 -0.00235246 0)
(-0.00209167 -0.00207201 0)
(-0.00162295 -0.00177773 0)
(-0.00121498 -0.00147402 0)
(-0.000869102 -0.00116704 0)
(-0.0005855 -0.000865225 0)
(-0.000362993 -0.000579749 0)
(-0.000198716 -0.0003251 0)
(-8.77698e-05 -0.000119548 0)
(-2.38717e-05 1.44659e-05 0)
(-1.43094e-06 4.93654e-05 0)
(-2.63945e-05 0.000341284 0)
(-0.000176285 0.000996572 0)
(-0.000488185 0.00160119 0)
(-0.000915416 0.0021433 0)
(-0.00143625 0.00261807 0)
(-0.00203646 0.00302511 0)
(-0.00270272 0.00336719 0)
(-0.00342331 0.00364921 0)
(-0.00418824 0.00387723 0)
(-0.00498889 0.00405779 0)
(-0.00581786 0.00419738 0)
(-0.00666878 0.00430216 0)
(-0.00753622 0.00437775 0)
(-0.00841556 0.0044291 0)
(-0.00930287 0.00446048 0)
(-0.0101949 0.00447549 0)
(-0.0110887 0.00447707 0)
(-0.011982 0.00446759 0)
(-0.0128727 0.00444889 0)
(-0.0137591 0.00442236 0)
(-0.0146395 0.004389 0)
(-0.0155126 0.00434949 0)
(-0.0163769 0.00430425 0)
(-0.0172313 0.00425347 0)
(-0.0180744 0.00419718 0)
(-0.0189051 0.00413527 0)
(-0.0197221 0.00406753 0)
(-0.020524 0.00399367 0)
(-0.0213096 0.00391335 0)
(-0.0220774 0.00382619 0)
(-0.022826 0.00373179 0)
(-0.0235539 0.00362975 0)
(-0.0242595 0.00351965 0)
(-0.024941 0.0034011 0)
(-0.0255969 0.00327372 0)
(-0.0262253 0.00313716 0)
(-0.0268244 0.00299109 0)
(-0.0273924 0.00283525 0)
(-0.0279272 0.0026694 0)
(-0.0284271 0.00249338 0)
(-0.02889 0.00230707 0)
(-0.029314 0.00211045 0)
(-0.0296971 0.00190357 0)
(-0.0300375 0.00168655 0)
(-0.0303333 0.00145962 0)
(-0.0305828 0.00122311 0)
(-0.0307841 0.000977447 0)
(-0.0309357 0.000723168 0)
(-0.0310362 0.000460926 0)
(-0.0310842 0.000191483 0)
(-0.0310784 -8.42855e-05 0)
(-0.0310181 -0.000365393 0)
(-0.0309023 -0.000650745 0)
(-0.0307305 -0.000939147 0)
(-0.0305025 -0.00122931 0)
(-0.0302181 -0.00151987 0)
(-0.0298776 -0.00180939 0)
(-0.0294816 -0.00209635 0)
(-0.0290306 -0.00237924 0)
(-0.028526 -0.00265647 0)
(-0.027969 -0.00292648 0)
(-0.0273613 -0.00318771 0)
(-0.0267049 -0.00343862 0)
(-0.0260019 -0.00367772 0)
(-0.025255 -0.0039036 0)
(-0.0244669 -0.0041149 0)
(-0.0236405 -0.00431039 0)
(-0.0227791 -0.00448889 0)
(-0.021886 -0.00464939 0)
(-0.0209649 -0.00479094 0)
(-0.0200194 -0.00491275 0)
(-0.0190535 -0.00501411 0)
(-0.018071 -0.00509444 0)
(-0.0170759 -0.00515325 0)
(-0.0160724 -0.00519012 0)
(-0.0150647 -0.00520471 0)
(-0.0140568 -0.00519673 0)
(-0.013053 -0.00516591 0)
(-0.0120574 -0.00511199 0)
(-0.0110745 -0.00503474 0)
(-0.0101083 -0.00493386 0)
(-0.00916313 -0.00480908 0)
(-0.00824335 -0.00466009 0)
(-0.00735321 -0.00448659 0)
(-0.00649702 -0.00428833 0)
(-0.00567907 -0.00406515 0)
(-0.00490362 -0.00381707 0)
(-0.00417484 -0.00354443 0)
(-0.00349675 -0.00324799 0)
(-0.00287316 -0.0029292 0)
(-0.00230751 -0.00259041 0)
(-0.00180276 -0.0022352 0)
(-0.0013612 -0.00186871 0)
(-0.000984262 -0.00149812 0)
(-0.000672306 -0.00113309 0)
(-0.000424406 -0.000786242 0)
(-0.000238079 -0.000473717 0)
(-0.000108926 -0.000215568 0)
(-3.1592e-05 -3.60691e-05 0)
(-2.6098e-06 3.56342e-05 0)
(-2.86419e-05 0.00043695 0)
(-0.000191266 0.00125011 0)
(-0.000529226 0.0019856 0)
(-0.000991093 0.00263637 0)
(-0.00155265 0.00320132 0)
(-0.00219804 0.00368301 0)
(-0.00291263 0.0040866 0)
(-0.00368373 0.00441893 0)
(-0.00450067 0.00468768 0)
(-0.00535438 0.00490075 0)
(-0.00623714 0.00506583 0)
(-0.00714237 0.0051901 0)
(-0.00806446 0.00528008 0)
(-0.00899868 0.00534149 0)
(-0.009941 0.00537927 0)
(-0.010888 0.00539755 0)
(-0.0118369 0.00539976 0)
(-0.012785 0.00538864 0)
(-0.0137303 0.00536633 0)
(-0.014671 0.00533445 0)
(-0.0156053 0.00529419 0)
(-0.0165317 0.00524634 0)
(-0.0174488 0.00519141 0)
(-0.0183552 0.00512963 0)
(-0.0192496 0.00506105 0)
(-0.0201307 0.00498555 0)
(-0.020997 0.00490288 0)
(-0.0218473 0.00481273 0)
(-0.02268 0.00471469 0)
(-0.0234937 0.00460834 0)
(-0.0242868 0.0044932 0)
(-0.0250576 0.0043688 0)
(-0.0258045 0.00423467 0)
(-0.0265258 0.00409034 0)
(-0.0272195 0.00393539 0)
(-0.0278839 0.00376938 0)
(-0.0285169 0.00359197 0)
(-0.0291166 0.00340284 0)
(-0.029681 0.00320172 0)
(-0.0302079 0.00298843 0)
(-0.0306955 0.00276285 0)
(-0.0311415 0.00252496 0)
(-0.031544 0.00227483 0)
(-0.031901 0.00201264 0)
(-0.0322104 0.00173866 0)
(-0.0324704 0.00145331 0)
(-0.0326792 0.0011571 0)
(-0.0328352 0.0008507 0)
(-0.0329367 0.000534898 0)
(-0.0329823 0.000210619 0)
(-0.032971 -0.00012108 0)
(-0.0329015 -0.000459009 0)
(-0.0327731 -0.00080185 0)
(-0.0325854 -0.00114817 0)
(-0.0323378 -0.00149642 0)
(-0.0320306 -0.00184496 0)
(-0.0316638 -0.00219207 0)
(-0.031238 -0.00253594 0)
(-0.0307542 -0.00287475 0)
(-0.0302136 -0.00320662 0)
(-0.0296175 -0.00352967 0)
(-0.028968 -0.00384204 0)
(-0.028267 -0.0041419 0)
(-0.027517 -0.00442749 0)
(-0.0267207 -0.00469712 0)
(-0.0258811 -0.00494918 0)
(-0.0250015 -0.00518219 0)
(-0.0240853 -0.0053948 0)
(-0.0231362 -0.00558577 0)
(-0.022158 -0.00575402 0)
(-0.0211547 -0.00589861 0)
(-0.0201305 -0.00601873 0)
(-0.0190895 -0.00611369 0)
(-0.0180361 -0.00618294 0)
(-0.0169746 -0.006226 0)
(-0.0159094 -0.00624251 0)
(-0.014845 -0.00623214 0)
(-0.0137856 -0.00619462 0)
(-0.0127359 -0.00612967 0)
(-0.0117001 -0.00603705 0)
(-0.0106827 -0.00591646 0)
(-0.00968804 -0.00576762 0)
(-0.00872062 -0.00559022 0)
(-0.00778479 -0.00538396 0)
(-0.00688492 -0.0051486 0)
(-0.00602535 -0.00488402 0)
(-0.00521036 -0.0045903 0)
(-0.00444414 -0.00426789 0)
(-0.00373073 -0.00391778 0)
(-0.0030739 -0.00354168 0)
(-0.0024771 -0.00314238 0)
(-0.00194329 -0.002724 0)
(-0.00147479 -0.00229246 0)
(-0.0010731 -0.00185586 0)
(-0.000738695 -0.00142502 0)
(-0.000470871 -0.00101391 0)
(-0.000267449 -0.000640167 0)
(-0.000124413 -0.000325473 0)
(-3.70636e-05 -9.57478e-05 0)
(-3.38169e-06 1.84814e-05 0)
(-3.05723e-05 0.000539838 0)
(-0.000204297 0.00152274 0)
(-0.000565165 0.0023984 0)
(-0.0010577 0.00316486 0)
(-0.00165553 0.00382514 0)
(-0.00234135 0.00438515 0)
(-0.0030993 0.00485281 0)
(-0.00391578 0.0052372 0)
(-0.00477947 0.00554786 0)
(-0.00568083 0.00579424 0)
(-0.00661181 0.00598534 0)
(-0.00756562 0.00612946 0)
(-0.00853653 0.00623404 0)
(-0.00951966 0.00630562 0)
(-0.0105109 0.00634981 0)
(-0.0115069 0.00637133 0)
(-0.0125045 0.00637404 0)
(-0.0135013 0.00636107 0)
(-0.014495 0.00633487 0)
(-0.0154837 0.00629729 0)
(-0.0164657 0.00624969 0)
(-0.0174394 0.00619298 0)
(-0.0184032 0.00612776 0)
(-0.0193558 0.00605429 0)
(-0.0202957 0.00597264 0)
(-0.0212215 0.00588267 0)
(-0.0221317 0.00578412 0)
(-0.0230249 0.00567663 0)
(-0.0238996 0.00555973 0)
(-0.0247541 0.00543294 0)
(-0.0255868 0.00529572 0)
(-0.0263961 0.00514753 0)
(-0.02718 0.00498783 0)
(-0.0279368 0.00481609 0)
(-0.0286645 0.00463181 0)
(-0.0293611 0.00443452 0)
(-0.0300246 0.00422381 0)
(-0.030653 0.00399931 0)
(-0.031244 0.00376075 0)
(-0.0317955 0.0035079 0)
(-0.0323054 0.00324066 0)
(-0.0327714 0.00295899 0)
(-0.0331915 0.00266301 0)
(-0.0335635 0.00235293 0)
(-0.0338854 0.00202909 0)
(-0.0341551 0.00169197 0)
(-0.0343708 0.00134222 0)
(-0.0345307 0.000980621 0)
(-0.0346331 0.000608102 0)
(-0.0346766 0.000225765 0)
(-0.0346599 -0.000165139 0)
(-0.0345818 -0.000563202 0)
(-0.0344417 -0.000966872 0)
(-0.0342389 -0.00137445 0)
(-0.033973 -0.00178413 0)
(-0.0336441 -0.00219396 0)
(-0.0332525 -0.00260192 0)
(-0.0327987 -0.00300589 0)
(-0.0322838 -0.00340372 0)
(-0.0317089 -0.0037932 0)
(-0.0310759 -0.00417213 0)
(-0.0303865 -0.00453833 0)
(-0.0296431 -0.00488966 0)
(-0.0288484 -0.00522403 0)
(-0.0280053 -0.00553948 0)
(-0.0271169 -0.00583413 0)
(-0.0261869 -0.00610626 0)
(-0.0252188 -0.00635428 0)
(-0.0242168 -0.00657677 0)
(-0.0231848 -0.00677248 0)
(-0.0221272 -0.00694033 0)