/*--------------------------------*- C++ -*----------------------------------*\
  =========                 |
  \\      /  F ield         | OpenFOAM: The Open Source CFD Toolbox
   \\    /   O peration     | Website:  https://openfoam.org
    \\  /    A nd           | Version:  9
     \\/     M anipulation  |
\*---------------------------------------------------------------------------*/
FoamFile
{
    format      ascii;
    class       volScalarField;
    location    "2";
    object      p;
}
// * * * * * * * * * * * * * * * * * * * * * * * * * * * * * * * * * * * * * //

dimensions      [0 2 -2 0 0 0 0];

internalField   nonuniform List<scalar> 
1260
(
-0.0927594
-0.0910951
-0.0893727
-0.0875993
-0.0857821
-0.0839285
-0.0820458
-0.0801407
-0.0782185
-0.0762831
-0.074335
-0.0723712
-0.070383
-0.0683561
-0.0662689
-0.0640933
-0.0617965
-0.0593449
-0.0567127
-0.0538949
-0.050924
-0.0478876
-0.0449378
-0.0422803
-0.0401348
-0.0386695
-0.0379307
-0.0378166
-0.0381747
-0.038944
-0.0928181
-0.0911478
-0.08942
-0.0876419
-0.085821
-0.0839653
-0.0820824
-0.0801797
-0.0782638
-0.0763393
-0.0744085
-0.0724698
-0.0705171
-0.068538
-0.0665133
-0.0644169
-0.0622172
-0.05988
-0.0573762
-0.0546934
-0.0518524
-0.0489257
-0.0460499
-0.0434205
-0.0412587
-0.0397469
-0.0389543
-0.0387988
-0.0391381
-0.0399123
-0.0927491
-0.0910719
-0.0893377
-0.0875539
-0.0857284
-0.0838693
-0.0819849
-0.0800833
-0.0781717
-0.0762559
-0.0743396
-0.0724229
-0.0705014
-0.0685651
-0.066597
-0.0645733
-0.0624638
-0.0602346
-0.0578543
-0.0553047
-0.0525965
-0.0497878
-0.0469995
-0.0444154
-0.0422541
-0.0407095
-0.0398712
-0.0396776
-0.039998
-0.040775
-0.0925523
-0.0908672
-0.0891254
-0.0873346
-0.0855031
-0.0836394
-0.0817521
-0.0798499
-0.0779408
-0.0760317
-0.0741273
-0.0722293
-0.0703351
-0.0684368
-0.0665198
-0.0645624
-0.0625362
-0.0604081
-0.0581456
-0.055726
-0.0531512
-0.0504662
-0.0477766
-0.0452525
-0.0431078
-0.0415437
-0.0406683
-0.0404404
-0.0407423
-0.0415202
-0.0922279
-0.0905334
-0.0887827
-0.0869837
-0.0851448
-0.0832748
-0.081383
-0.0794785
-0.0775701
-0.0756654
-0.0737703
-0.0718879
-0.0700174
-0.0681526
-0.0662812
-0.0643839
-0.0624342
-0.0604003
-0.0582492
-0.0559549
-0.0535122
-0.0509544
-0.0483719
-0.0459208
-0.0438071
-0.0422363
-0.0413328
-0.0410749
-0.0413593
-0.0421369
-0.0917765
-0.0900712
-0.0883101
-0.0865012
-0.0846532
-0.0827754
-0.0808773
-0.0789687
-0.0770588
-0.0751563
-0.073268
-0.0713982
-0.0695476
-0.067712
-0.0658812
-0.0640379
-0.062158
-0.0602111
-0.0581645
-0.05599
-0.0536766
-0.0512471
-0.048778
-0.0464104
-0.0443408
-0.0427758
-0.0418531
-0.04157
-0.0418381
-0.0426146
-0.0911991
-0.0894815
-0.0877083
-0.0858877
-0.0840288
-0.0821413
-0.080235
-0.0783202
-0.0764068
-0.074504
-0.0726198
-0.0707596
-0.0689255
-0.0671149
-0.0653197
-0.0635247
-0.0617079
-0.0598408
-0.0578915
-0.0558305
-0.0536421
-0.0513403
-0.0489885
-0.0467131
-0.044699
-0.0431513
-0.0422182
-0.0419149
-0.0421686
-0.0429434
-0.0904975
-0.0887658
-0.0869785
-0.0851444
-0.0832727
-0.0813733
-0.0794567
-0.0775335
-0.0756142
-0.0737088
-0.0718261
-0.0699724
-0.0681512
-0.0663616
-0.0645971
-0.0628448
-0.0610847
-0.0592903
-0.0574307
-0.0554762
-0.0534075
-0.0512311
-0.0489985
-0.0468216
-0.0448729
-0.0433531
-0.0424182
-0.0420999
-0.0423413
-0.0431144
-0.0896737
-0.087926
-0.0861228
-0.084273
-0.0823863
-0.0804729
-0.0785437
-0.0766097
-0.0746821
-0.0727715
-0.0708873
-0.0690371
-0.0672255
-0.0654528
-0.0637143
-0.0619991
-0.0602893
-0.0585603
-0.056783
-0.0549275
-0.0529721
-0.0509173
-0.0488039
-0.0467301
-0.0448548
-0.0433724
-0.042444
-0.0421159
-0.0423474
-0.0431194
-0.0887304
-0.0869647
-0.0851434
-0.0832758
-0.0813718
-0.0794421
-0.0774978
-0.0755506
-0.0736121
-0.0716935
-0.069805
-0.0679551
-0.0661494
-0.0643896
-0.0626725
-0.060989
-0.0593231
-0.0576526
-0.0559496
-0.0541852
-0.052336
-0.0503977
-0.0484018
-0.0464334
-0.044638
-0.0432014
-0.0422871
-0.0419545
-0.0421789
-0.0429507
-0.0876707
-0.085885
-0.0840435
-0.0821558
-0.0802321
-0.0782835
-0.0763217
-0.0743586
-0.0724064
-0.070477
-0.0685812
-0.0667283
-0.0649249
-0.0631739
-0.0614736
-0.0598163
-0.0581883
-0.0565689
-0.0549325
-0.0532508
-0.0515
-0.0496719
-0.0477901
-0.0459277
-0.0442167
-0.0428329
-0.0419397
-0.0416078
-0.041828
-0.0426011
-0.0864984
-0.0846906
-0.0828266
-0.0809165
-0.0789707
-0.0770007
-0.0750186
-0.0730368
-0.0710681
-0.0691249
-0.0672187
-0.0653594
-0.0635546
-0.0618083
-0.06012
-0.0584837
-0.0568871
-0.0553118
-0.0537338
-0.0521264
-0.0504654
-0.0487401
-0.0469673
-0.0452096
-0.0435856
-0.0422604
-0.0413948
-0.0410684
-0.0412874
-0.042064
-0.0852179
-0.0833858
-0.0814972
-0.0795622
-0.0775918
-0.0755978
-0.0735927
-0.0715895
-0.0696013
-0.0676411
-0.0657212
-0.063852
-0.0620421
-0.0602962
-0.0586152
-0.0569942
-0.0554228
-0.0538843
-0.0523566
-0.0508144
-0.0492341
-0.047603
-0.0459328
-0.0442766
-0.0427405
-0.041478
-0.0406453
-0.040329
-0.04055
-0.0413326
-0.0838341
-0.0819758
-0.0800602
-0.078098
-0.0761005
-0.0740799
-0.072049
-0.0700214
-0.0680107
-0.0660305
-0.0640933
-0.0622107
-0.0603916
-0.0586419
-0.0569631
-0.0553519
-0.0537993
-0.0522901
-0.0508042
-0.0493179
-0.0478084
-0.046262
-0.0446865
-0.0431265
-0.0416771
-0.0404797
-0.0396844
-0.0393822
-0.0396086
-0.0404002
-0.0823528
-0.0804661
-0.0785216
-0.0765299
-0.0745028
-0.0724529
-0.0703936
-0.0683387
-0.0663024
-0.0642987
-0.0623409
-0.060441
-0.0586086
-0.0568504
-0.0551688
-0.0535616
-0.052021
-0.0505335
-0.0490806
-0.0476404
-0.0461912
-0.044719
-0.0432284
-0.0417578
-0.0403917
-0.03926
-0.0385051
-0.0382206
-0.0384554
-0.0392599
-0.0748646
-0.0728055
-0.0707239
-0.0686333
-0.0665482
-0.0644831
-0.0624527
-0.0604707
-0.0585495
-0.0566995
-0.054928
-0.0532382
-0.0516288
-0.0500932
-0.0486195
-0.0471904
-0.045786
-0.0443858
-0.0429759
-0.0415593
-0.0401688
-0.0388803
-0.0378128
-0.0370999
-0.0368359
-0.0370822
-0.0379037
-0.0731098
-0.0710166
-0.0689007
-0.0667763
-0.0646581
-0.0625612
-0.0605006
-0.0584906
-0.0565441
-0.0546719
-0.052882
-0.0511783
-0.0495602
-0.0480223
-0.0465536
-0.0451388
-0.0437591
-0.0423957
-0.0410353
-0.0396797
-0.0383581
-0.037139
-0.0361317
-0.0354607
-0.0352187
-0.0354795
-0.0363228
-0.0712744
-0.069145
-0.0669927
-0.0648318
-0.0626778
-0.0605459
-0.0584517
-0.0564098
-0.0544337
-0.0525345
-0.0507208
-0.048997
-0.0473633
-0.045815
-0.0443424
-0.0429313
-0.0415645
-0.0402246
-0.0388994
-0.0375903
-0.0363238
-0.0351632
-0.0342094
-0.0335779
-0.0333585
-0.033636
-0.0345066
-0.0693682
-0.0672009
-0.0650101
-0.0628105
-0.0606179
-0.058448
-0.0563167
-0.054239
-0.0522286
-0.0502974
-0.048454
-0.0467034
-0.0450465
-0.0434792
-0.0419927
-0.0405741
-0.0392073
-0.0378765
-0.0365706
-0.0352912
-0.0340637
-0.0329475
-0.0320374
-0.0314407
-0.0312425
-0.0315386
-0.0324424
-0.0674024
-0.0651957
-0.0629646
-0.0607242
-0.0584905
-0.0562796
-0.0541076
-0.0519899
-0.0499407
-0.0479718
-0.0460923
-0.0443077
-0.0426192
-0.0410234
-0.0395121
-0.0380734
-0.0366927
-0.035355
-0.0340507
-0.0327821
-0.0315745
-0.0304854
-0.0296055
-0.0290356
-0.0288555
-0.029171
-0.0301148
-0.0653893
-0.0631422
-0.0608693
-0.0585861
-0.0563089
-0.0540541
-0.0518379
-0.0496761
-0.0475828
-0.0455702
-0.0436478
-0.0418211
-0.0400918
-0.0384567
-0.0369086
-0.0354361
-0.0340254
-0.0326632
-0.0313407
-0.0300617
-0.0288517
-0.0277685
-0.0269014
-0.0263468
-0.026179
-0.0265135
-0.0275045
-0.0633426
-0.0610542
-0.0587385
-0.056411
-0.0540882
-0.0517866
-0.0495226
-0.0473121
-0.0451693
-0.0431066
-0.0411334
-0.0392557
-0.0374751
-0.035789
-0.0341904
-0.0326685
-0.0312104
-0.0298036
-0.0284408
-0.0271268
-0.0258888
-0.024786
-0.0239097
-0.0233546
-0.0231903
-0.0235418
-0.024588
-0.0612772
-0.0589474
-0.0565881
-0.0542149
-0.0518445
-0.0494933
-0.0471779
-0.044914
-0.0427159
-0.0405959
-0.0385635
-0.0366246
-0.0347811
-0.0330304
-0.0313657
-0.0297768
-0.0282513
-0.0267775
-0.0253491
-0.0239724
-0.0226765
-0.0215242
-0.0206111
-0.0200348
-0.0198616
-0.020226
-0.021336
-0.0592095
-0.0568384
-0.0544351
-0.0520153
-0.0495955
-0.047192
-0.0448214
-0.0424991
-0.0402393
-0.0380542
-0.0359531
-0.0339417
-0.0320219
-0.0301912
-0.0284429
-0.0267668
-0.025151
-0.0235844
-0.0220616
-0.0205903
-0.0192023
-0.0179649
-0.0169817
-0.0163578
-0.0161588
-0.0165291
-0.0177124
-0.0571568
-0.0547451
-0.0522979
-0.0498308
-0.0473599
-0.0449015
-0.0424717
-0.0400857
-0.0377574
-0.0354984
-0.0333178
-0.0312212
-0.02921
-0.0272817
-0.0254294
-0.0236431
-0.0219107
-0.0202216
-0.018571
-0.0169685
-0.0154486
-0.0140845
-0.0129911
-0.0122863
-0.0120396
-0.0124057
-0.0136728
-0.0551376
-0.0526864
-0.0501957
-0.0476808
-0.0451575
-0.0426415
-0.0401485
-0.037693
-0.0352884
-0.0329459
-0.0306739
-0.0284775
-0.0263578
-0.0243118
-0.0223322
-0.0204087
-0.0185292
-0.0166831
-0.0148665
-0.0130902
-0.0113921
-0.00985261
-0.00860089
-0.00777427
-0.00745153
-0.00779992
-0.00916221
-0.0531711
-0.0506819
-0.0481484
-0.0455856
-0.0430084
-0.0404321
-0.0378714
-0.0353403
-0.0328512
-0.0304144
-0.0280376
-0.0257251
-0.0234773
-0.0212904
-0.0191566
-0.0170648
-0.0150027
-0.0129595
-0.0109316
-0.00893184
-0.00700202
-0.00522992
-0.00376254
-0.00276369
-0.00232936
-0.00264231
-0.00411265
-0.0512767
-0.0487513
-0.0461761
-0.0435652
-0.0409328
-0.0382933
-0.0356604
-0.0330468
-0.0304639
-0.027921
-0.0254245
-0.0229776
-0.0205794
-0.0182253
-0.0159062
-0.0136102
-0.011324
-0.00903637
-0.00674429
-0.00446249
-0.00223761
-0.000165548
0.00158586
0.00281849
0.003409
0.00315338
0.00156091
-0.0494736
-0.046914
-0.0442982
-0.0416392
-0.0389503
-0.0362444
-0.0335341
-0.0308308
-0.0281442
-0.0254821
-0.0228492
-0.0202473
-0.0176738
-0.0151224
-0.0125825
-0.0100405
-0.00748178
-0.00489438
-0.00227567
0.000356811
0.00295491
0.00540641
0.00752286
0.00906452
0.00986723
0.00969548
0.00796619
-0.0477798
-0.0451882
-0.0425329
-0.0398257
-0.0370785
-0.034303
-0.0315099
-0.0287088
-0.0259076
-0.0231119
-0.0203245
-0.0175447
-0.0147679
-0.0119853
-0.00918379
-0.00634759
-0.00345998
-0.000507791
0.00251068
0.0055748
0.00864441
0.0115688
0.0141473
0.0160909
0.0171771
0.0171215
0.0152423
-0.0462112
-0.0435896
-0.0408957
-0.03814
-0.0353329
-0.032484
-0.0296021
-0.0266947
-0.023767
-0.0208223
-0.0178605
-0.0148779
-0.0118666
-0.00881458
-0.00570534
-0.00251954
0.000762562
0.00415619
0.00766394
0.0112648
0.014898
0.0184207
0.0215829
0.024045
0.0255068
0.0256082
0.0235725
-0.0447809
-0.0421308
-0.039399
-0.0365942
-0.0337248
-0.0307985
-0.0278215
-0.0247985
-0.021732
-0.0186217
-0.015464
-0.0122514
-0.00897154
-0.00560774
-0.00213874
0.00145976
0.00521202
0.00913673
0.0132378
0.0174908
0.0218224
0.0260895
0.0299838
0.0331118
0.0350708
0.0353855
0.0332025
-0.0434972
-0.0408199
-0.0380503
-0.0351952
-0.032261
-0.0292527
-0.0261738
-0.0230257
-0.0198072
-0.016514
-0.0131379
-0.00966604
-0.00608065
-0.00235863
0.00152794
0.00561029
0.00991929
0.014479
0.0192959
0.0243433
0.0295388
0.0347124
0.0395354
0.0435201
0.0461404
0.0467531
0.0444647
-0.0423632
-0.039659
-0.0368512
-0.0339443
-0.0309423
-0.0278473
-0.0246594
-0.0213764
-0.0179925
-0.0144985
-0.0108804
-0.00711872
-0.00318837
0.000942039
0.00530952
0.00995482
0.0149183
0.020232
0.0259077
0.0319176
0.0381682
0.0444616
0.0504594
0.0555457
0.0590511
0.0600999
0.0578071
-0.0413753
-0.038644
-0.035797
-0.0328363
-0.0297632
-0.0265765
-0.0232727
-0.0198448
-0.0162822
-0.0125694
-0.00868533
-0.00460246
-0.000286148
0.00430571
0.00922206
0.0145166
0.0202427
0.026445
0.0331437
0.0403134
0.0478515
0.0555374
0.0629809
0.0695069
0.0742081
0.0759206
0.0738228
-0.0405233
-0.0377641
-0.0348763
-0.0318595
-0.0287119
-0.0254287
-0.0220021
-0.01842
-0.0146658
-0.0107167
-0.00654326
-0.00210786
0.00263587
0.00774359
0.0132797
0.0193149
0.0259208
0.0331595
0.0410662
0.0496231
0.0587229
0.0681202
0.0773661
0.0857656
0.0920891
0.0948361
0.0932823
-0.0397907
-0.0370022
-0.034072
-0.0309968
-0.0277714
-0.0243873
-0.0208317
-0.017087
-0.0131294
-0.008928
-0.00444325
0.000374369
0.00558546
0.0112624
0.0174891
0.0243582
0.0319654
0.0403979
0.0497144
0.0599139
0.0708931
0.0823885
0.0939062
0.10466
0.113248
0.117625
0.11717
-0.0391566
-0.0363374
-0.0333631
-0.0302274
-0.0269217
-0.0234331
-0.0197437
-0.0158294
-0.0116589
-0.00719174
-0.00237699
0.00284871
0.0085627
0.0148574
0.0218405
0.0296322
0.0383598
0.0481447
0.0590806
0.0711976
0.0844122
0.0984584
0.112802
0.126546
0.138322
0.145234
0.146708
-0.0385985
-0.0357476
-0.0327282
-0.0295309
-0.0261434
-0.0225484
-0.0187223
-0.0146343
-0.0102447
-0.0055028
-0.000344972
0.00530762
0.0115513
0.0185017
0.0262944
0.0350835
0.0450361
0.056319
0.0690761
0.0833883
0.0992167
0.116318
0.134144
0.151758
0.167827
0.178657
0.183283
-0.0380976
-0.0352149
-0.0321505
-0.028892
-0.0254233
-0.0217223
-0.01776
-0.0134983
-0.00888886
-0.00387016
0.00163476
0.00772132
0.0145064
0.0221313
0.0307634
0.0405962
0.0518454
0.0647366
0.0794837
0.0962448
0.115062
0.135757
0.157829
0.18038
0.201998
0.218669
0.228377
-0.0376438
-0.0347308
-0.0316235
-0.0283066
-0.0247601
-0.0209575
-0.0168642
-0.0124351
-0.00761312
-0.00232616
0.00351616
0.0100259
0.0173411
0.0256293
0.035092
0.0459659
0.0585235
0.073063
0.0898931
0.109287
0.131426
0.156271
0.183453
0.212135
0.240928
0.265619
0.284261
-0.0372416
-0.0343019
-0.0311565
-0.0277871
-0.0241706
-0.0202761
-0.0160639
-0.0114825
-0.0064669
-0.000935065
0.00521571
0.0121129
0.0199142
0.0288121
0.0390409
0.0508807
0.0646638
0.0807708
0.0996305
0.121681
0.147337
0.176837
0.210147
0.246612
0.284937
0.320977
0.356339
-0.0369149
-0.0339548
-0.0307794
-0.0273683
-0.0236953
-0.0197262
-0.0154169
-0.0107108
-0.00553636
0.000196549
0.00660064
0.0138159
0.022016
0.0314137
0.0422709
0.0549039
0.0696988
0.0871137
0.107705
0.132108
0.161081
0.195369
0.235728
0.282302
0.334823
0.390765
0.456835
-0.0367158
-0.0337458
-0.030554
-0.0271185
-0.0234112
-0.0193957
-0.0150253
-0.0102399
-0.00496388
0.000897808
0.00746417
0.0148829
0.0233374
0.0330529
0.044308
0.0574416
0.072875
0.0911177
0.112822
0.138784
0.170109
0.208189
0.25519
0.313628
0.387554
0.479838
0.605387
-0.0366997
-0.0337351
-0.0305459
-0.0271101
-0.0233992
-0.0193761
-0.0149934
-0.0101902
-0.00489006
0.00100336
0.00761035
0.0150802
0.0235983
0.0333925
0.0447449
0.0579994
0.0735869
0.0920316
0.114022
0.140411
0.17249
0.212005
0.262447
0.329328
0.426522
0.57075
0.791312
)
;

boundaryField
{
    movingWall
    {
        type            zeroGradient;
    }
    fixedWalls
    {
        type            zeroGradient;
    }
    frontAndBack
    {
        type            empty;
    }
    procBoundary4to5
    {
        type            processor;
        value           nonuniform List<scalar> 
48
(
-0.0943592
-0.0944241
-0.0943623
-0.0941738
-0.0938588
-0.0934182
-0.0928532
-0.0921657
-0.0913577
-0.090432
-0.0893919
-0.0882412
-0.0869842
-0.0856258
-0.0841716
-0.0807803
-0.0788635
-0.0768879
-0.0768879
-0.0751668
-0.0733669
-0.0714978
-0.0695702
-0.0675961
-0.0655887
-0.0635626
-0.0615335
-0.0595183
-0.057535
-0.0556022
-0.053739
-0.0519644
-0.0502961
-0.0487504
-0.0473405
-0.0460753
-0.0449585
-0.0439875
-0.0431529
-0.0424387
-0.0418242
-0.0412869
-0.0408071
-0.0403734
-0.0399887
-0.0396745
-0.0394798
-0.0394561
)
;
    }
    procBoundary4to6
    {
        type            processor;
        value           nonuniform List<scalar> 
30
(
-0.0925739
-0.0909148
-0.0891971
-0.0874275
-0.0856131
-0.0837607
-0.0818769
-0.0799678
-0.0780378
-0.0760891
-0.074121
-0.0721282
-0.0701002
-0.0680201
-0.0658642
-0.0636027
-0.0612021
-0.0586302
-0.0558661
-0.0529133
-0.0498177
-0.0466829
-0.0436754
-0.0410087
-0.0388975
-0.037492
-0.0368146
-0.0367443
-0.0371208
-0.0378827
)
;
    }
}


// ************************************************************************* //
