/*--------------------------------*- C++ -*----------------------------------*\
  =========                 |
  \\      /  F ield         | OpenFOAM: The Open Source CFD Toolbox
   \\    /   O peration     | Website:  https://openfoam.org
    \\  /    A nd           | Version:  9
     \\/     M anipulation  |
\*---------------------------------------------------------------------------*/
FoamFile
{
    format      ascii;
    class       surfaceScalarField;
    location    "2";
    object      phi;
}
// * * * * * * * * * * * * * * * * * * * * * * * * * * * * * * * * * * * * * //

dimensions      [0 3 -1 0 0 0 0];

internalField   nonuniform List<scalar> 
2445
(
-4.4972e-07
-1.86169e-06
-4.66925e-07
-1.96905e-06
-4.83926e-07
-2.07522e-06
-5.00691e-07
-2.18003e-06
-5.17231e-07
-2.2834e-06
-5.33625e-07
-2.38533e-06
-5.50054e-07
-2.48608e-06
-5.6683e-07
-2.58621e-06
-5.84437e-07
-2.68684e-06
-6.03557e-07
-2.78979e-06
-6.2507e-07
-2.89782e-06
-6.50019e-07
-3.01478e-06
-6.79494e-07
-3.14572e-06
-7.14418e-07
-3.29669e-06
-7.55217e-07
-3.47415e-06
-8.01376e-07
-3.68386e-06
-8.5092e-07
-3.92903e-06
-8.99924e-07
-4.20778e-06
-9.42214e-07
-4.51009e-06
-9.69464e-07
-4.81464e-06
-9.71964e-07
-5.08667e-06
-9.40228e-07
-5.278e-06
-8.6749e-07
-5.33115e-06
-7.52684e-07
-5.18901e-06
-6.02926e-07
-4.81016e-06
-4.34052e-07
-4.18626e-06
-2.681e-07
-3.35329e-06
-1.28347e-07
-2.38753e-06
-3.44097e-08
-1.38424e-06
-4.28668e-07
-3.58739e-07
-1.84259e-06
-3.77797e-07
-1.94999e-06
-3.96745e-07
-2.05627e-06
-4.15534e-07
-2.16124e-06
-4.34153e-07
-2.26478e-06
-4.52645e-07
-2.36684e-06
-4.7114e-07
-2.46758e-06
-4.89888e-07
-2.56746e-06
-5.09296e-07
-2.66744e-06
-5.2996e-07
-2.76913e-06
-5.52685e-07
-2.87509e-06
-5.78458e-07
-2.98901e-06
-6.08367e-07
-3.11581e-06
-6.43417e-07
-3.26164e-06
-6.84234e-07
-3.43333e-06
-7.30636e-07
-3.63746e-06
-7.81116e-07
-3.87855e-06
-8.32303e-07
-4.1566e-06
-8.78572e-07
-4.46382e-06
-9.12005e-07
-4.78121e-06
-9.22975e-07
-5.0757e-06
-9.01604e-07
-5.29937e-06
-8.40178e-07
-5.39257e-06
-7.36238e-07
-5.29295e-06
-5.95422e-07
-4.95098e-06
-4.32519e-07
-4.34916e-06
-2.69374e-07
-3.51643e-06
-1.2996e-07
-2.52695e-06
-3.51343e-08
-1.47907e-06
-4.63802e-07
-2.67062e-07
-1.82172e-06
-2.88001e-07
-1.92905e-06
-3.08934e-07
-2.03533e-06
-3.29803e-07
-2.14037e-06
-3.50578e-07
-2.24401e-06
-3.71273e-07
-2.34615e-06
-3.91977e-07
-2.44688e-06
-4.12882e-07
-2.54656e-06
-4.34324e-07
-2.64599e-06
-4.56818e-07
-2.74664e-06
-4.81084e-07
-2.85083e-06
-5.08043e-07
-2.96205e-06
-5.38753e-07
-3.0851e-06
-5.74266e-07
-3.22613e-06
-6.15358e-07
-3.39224e-06
-6.62129e-07
-3.59068e-06
-7.13489e-07
-3.82719e-06
-7.66596e-07
-4.10349e-06
-8.16377e-07
-4.41404e-06
-8.55363e-07
-4.74222e-06
-8.74104e-07
-5.05696e-06
-8.62443e-07
-5.31103e-06
-8.11841e-07
-5.44317e-06
-7.1853e-07
-5.38626e-06
-5.86678e-07
-5.08283e-06
-4.29968e-07
-4.50587e-06
-2.69957e-07
-3.67645e-06
-1.31214e-07
-2.66569e-06
-3.57554e-08
-1.57453e-06
-4.99558e-07
-1.74715e-07
-1.79907e-06
-1.97556e-07
-1.90621e-06
-2.20508e-07
-2.01238e-06
-2.43505e-07
-2.11738e-06
-2.66502e-07
-2.22101e-06
-2.89491e-07
-2.32316e-06
-3.12525e-07
-2.42384e-06
-3.35748e-07
-2.52334e-06
-3.59429e-07
-2.62231e-06
-3.84007e-07
-2.72206e-06
-4.10116e-07
-2.82472e-06
-4.386e-07
-2.93356e-06
-4.70469e-07
-3.05323e-06
-5.06788e-07
-3.18981e-06
-5.48439e-07
-3.35059e-06
-5.95756e-07
-3.54337e-06
-6.48018e-07
-3.77493e-06
-7.02873e-07
-4.04863e-06
-7.55798e-07
-4.36111e-06
-7.99804e-07
-4.69822e-06
-8.25688e-07
-5.03108e-06
-8.23126e-07
-5.31359e-06
-7.82865e-07
-5.48344e-06
-6.99911e-07
-5.46921e-06
-5.76983e-07
-5.20576e-06
-4.26605e-07
-4.65625e-06
-2.69968e-07
-3.83308e-06
-1.3216e-07
-2.8035e-06
-3.62828e-08
-1.6704e-06
-5.3584e-07
-8.17128e-08
-1.77461e-06
-1.06478e-07
-1.88144e-06
-1.31478e-07
-1.98738e-06
-1.56644e-07
-2.09221e-06
-1.8192e-07
-2.19573e-06
-2.07282e-07
-2.2978e-06
-2.32753e-07
-2.39837e-06
-2.58434e-07
-2.49766e-06
-2.84537e-07
-2.59621e-06
-3.11425e-07
-2.69517e-06
-3.39651e-07
-2.79649e-06
-3.69973e-07
-2.90324e-06
-4.03343e-07
-3.01987e-06
-4.40807e-07
-3.15234e-06
-4.83319e-07
-3.30808e-06
-5.31394e-07
-3.49529e-06
-5.84637e-07
-3.72168e-06
-6.41149e-07
-3.99212e-06
-6.96937e-07
-4.30533e-06
-7.45517e-07
-4.64964e-06
-7.77993e-07
-4.9986e-06
-7.8397e-07
-5.30762e-06
-7.53586e-07
-5.51382e-06
-6.80703e-07
-5.5421e-06
-5.66611e-07
-5.31985e-06
-4.22636e-07
-4.80022e-06
-2.69532e-07
-3.98619e-06
-1.32853e-07
-2.94018e-06
-3.6729e-08
-1.76653e-06
-5.72569e-07
1.1934e-08
-1.74834e-06
-1.47741e-08
-1.85474e-06
-4.18495e-08
-1.96031e-06
-6.92214e-08
-2.06484e-06
-9.68292e-08
-2.16812e-06
-1.24634e-07
-2.26999e-06
-1.52636e-07
-2.37037e-06
-1.80898e-07
-2.46939e-06
-2.09583e-07
-2.56752e-06
-2.38985e-07
-2.66577e-06
-2.69575e-07
-2.7659e-06
-3.02028e-07
-2.87079e-06
-3.37218e-07
-2.98467e-06
-3.7616e-07
-3.1134e-06
-4.19838e-07
-3.2644e-06
-4.68912e-07
-3.44622e-06
-5.23263e-07
-3.66733e-06
-5.81404e-07
-3.93398e-06
-6.39854e-07
-4.24688e-06
-6.92642e-07
-4.59685e-06
-7.31232e-07
-4.96001e-06
-7.4524e-07
-5.29361e-06
-7.24297e-07
-5.53476e-06
-6.61197e-07
-5.6052e-06
-5.55824e-07
-5.42523e-06
-4.18267e-07
-4.93778e-06
-2.68783e-07
-4.13567e-06
-1.33355e-07
-3.07561e-06
-3.71086e-08
-1.86277e-06
-6.09678e-07
1.06221e-07
-1.72025e-06
7.75527e-08
-1.82607e-06
4.8377e-08
-1.93113e-06
1.8764e-08
-2.03523e-06
-1.12224e-08
-2.13814e-06
-4.15341e-08
-2.23968e-06
-7.21516e-08
-2.33975e-06
-1.03108e-07
-2.43844e-06
-1.34518e-07
-2.53611e-06
-1.66615e-07
-2.63367e-06
-1.99794e-07
-2.73272e-06
-2.34643e-07
-2.83594e-06
-2.71956e-07
-2.94736e-06
-3.12692e-07
-3.07267e-06
-3.57843e-07
-3.21925e-06
-4.08173e-07
-3.39589e-06
-4.63792e-07
-3.61171e-06
-5.23587e-07
-3.87419e-06
-5.84564e-07
-4.1859e-06
-6.41267e-07
-4.54015e-06
-6.85562e-07
-4.91571e-06
-7.07149e-07
-5.27202e-06
-6.95244e-07
-5.54667e-06
-6.4165e-07
-5.65879e-06
-5.44863e-07
-5.52201e-06
-4.13696e-07
-5.06895e-06
-2.67855e-07
-4.28151e-06
-1.33732e-07
-3.20973e-06
-3.74384e-08
-1.95907e-06
-6.47116e-07
2.01157e-07
-1.69032e-06
1.70509e-07
-1.79542e-06
1.39207e-07
-1.89983e-06
1.07317e-07
-2.00334e-06
7.49061e-08
-2.10573e-06
4.20294e-08
-2.2068e-06
8.72025e-09
-2.30644e-06
-2.50303e-08
-2.40469e-06
-5.92959e-08
-2.50185e-06
-9.42539e-08
-2.59871e-06
-1.30225e-07
-2.69675e-06
-1.67714e-07
-2.79845e-06
-2.07429e-07
-2.90765e-06
-2.50262e-07
-3.02983e-06
-2.97187e-07
-3.17232e-06
-3.49036e-07
-3.34404e-06
-4.0611e-07
-3.55464e-06
-4.67627e-07
-3.81267e-06
-5.3105e-07
-4.12248e-06
-5.9144e-07
-4.47976e-06
-6.41092e-07
-4.86606e-06
-6.69862e-07
-5.24325e-06
-6.66633e-07
-5.5499e-06
-6.22286e-07
-5.70314e-06
-5.3395e-07
-5.61035e-06
-4.09116e-07
-5.19378e-06
-2.66888e-07
-4.42374e-06
-1.34056e-07
-3.34256e-06
-3.77374e-08
-2.05539e-06
-6.84854e-07
2.96753e-07
-1.65854e-06
2.64107e-07
-1.76277e-06
2.30652e-07
-1.86637e-06
1.96452e-07
-1.96914e-06
1.61572e-07
-2.07085e-06
1.26071e-07
-2.1713e-06
8.99951e-08
-2.27037e-06
5.33585e-08
-2.36805e-06
1.61202e-08
-2.46461e-06
-2.18471e-08
-2.56074e-06
-6.07964e-08
-2.6578e-06
-1.01148e-07
-2.7581e-06
-1.43524e-07
-2.86527e-06
-1.88738e-07
-2.98462e-06
-2.37728e-07
-3.12334e-06
-2.91362e-07
-3.29041e-06
-3.50093e-07
-3.49591e-06
-4.13431e-07
-3.74933e-06
-4.79268e-07
-4.05664e-06
-5.4317e-07
-4.41585e-06
-5.97892e-07
-4.81134e-06
-6.33499e-07
-5.20764e-06
-6.38624e-07
-5.54477e-06
-6.03294e-07
-5.73847e-06
-5.23281e-07
-5.69036e-06
-4.04711e-07
-5.31235e-06
-2.66019e-07
-4.56243e-06
-1.34402e-07
-3.47418e-06
-3.80265e-08
-2.15176e-06
-7.2288e-07
3.93027e-07
-1.62491e-06
3.58364e-07
-1.72811e-06
3.2273e-07
-1.83074e-06
2.86184e-07
-1.93259e-06
2.48789e-07
-2.03345e-06
2.10609e-07
-2.13312e-06
1.71697e-07
-2.23146e-06
1.32086e-07
-2.32844e-06
9.17641e-08
-2.42429e-06
5.06513e-08
-2.51963e-06
8.55666e-09
-2.61571e-06
-3.48625e-08
-2.71468e-06
-8.01371e-08
-2.82e-06
-1.27999e-07
-2.93676e-06
-1.7933e-07
-3.072e-06
-2.35011e-07
-3.23473e-06
-2.95611e-07
-3.43531e-06
-3.60894e-07
-3.68405e-06
-4.29149e-07
-3.98839e-06
-4.96437e-07
-4.34857e-06
-5.55989e-07
-4.75179e-06
-5.98138e-07
-5.16549e-06
-6.11339e-07
-5.53157e-06
-5.84827e-07
-5.76498e-06
-5.13032e-07
-5.76216e-06
-4.00651e-07
-5.42473e-06
-2.65385e-07
-4.6977e-06
-1.34846e-07
-3.60472e-06
-3.83281e-08
-2.24828e-06
-7.61208e-07
4.90005e-07
-1.58939e-06
4.53303e-07
-1.69141e-06
4.1546e-07
-1.7929e-06
3.76532e-07
-1.89366e-06
3.36578e-07
-1.9935e-06
2.95663e-07
-2.09221e-06
2.53846e-07
-2.18964e-06
2.11177e-07
-2.28577e-06
1.67669e-07
-2.38078e-06
1.23284e-07
-2.47525e-06
7.78896e-08
-2.57031e-06
3.1218e-08
-2.66801e-06
-1.71742e-08
-2.77161e-06
-6.79296e-08
-2.886e-06
-1.21864e-07
-3.01807e-06
-1.79847e-07
-3.17674e-06
-2.4253e-07
-3.37262e-06
-3.09897e-07
-3.61668e-06
-3.80602e-07
-3.91768e-06
-4.51189e-07
-4.27798e-06
-5.15379e-07
-4.6876e-06
-5.6382e-07
-5.11705e-06
-5.84861e-07
-5.51053e-06
-5.67004e-07
-5.78283e-06
-5.03348e-07
-5.82581e-06
-3.97095e-07
-5.53099e-06
-2.65121e-07
-4.82967e-06
-1.35471e-07
-3.73437e-06
-3.86667e-08
-2.34509e-06
-7.99875e-07
5.87715e-07
-1.55199e-06
5.4895e-07
-1.65264e-06
5.08868e-07
-1.75282e-06
4.67519e-07
-1.85231e-06
4.24959e-07
-1.95094e-06
3.81252e-07
-2.0485e-06
3.36464e-07
-2.14485e-06
2.90655e-07
-2.23996e-06
2.43866e-07
-2.33399e-06
1.96092e-07
-2.42747e-06
1.47256e-07
-2.52148e-06
9.71621e-08
-2.61791e-06
4.54528e-08
-2.7199e-06
-8.4234e-09
-2.83213e-06
-6.52052e-08
-2.96129e-06
-1.25732e-07
-3.11622e-06
-1.90712e-07
-3.30764e-06
-2.60312e-07
-3.54708e-06
-3.33522e-07
-3.84447e-06
-4.0735e-07
-4.20415e-06
-4.76022e-07
-4.61893e-06
-5.30546e-07
-5.06253e-06
-5.59231e-07
-5.48185e-06
-5.49911e-07
-5.79216e-06
-4.94352e-07
-5.88137e-06
-3.94184e-07
-5.63116e-06
-2.6536e-07
-4.9585e-06
-1.36357e-07
-3.86337e-06
-3.90683e-08
-2.44237e-06
-8.38943e-07
6.86187e-07
-1.51267e-06
6.45334e-07
-1.61179e-06
6.02979e-07
-1.71046e-06
5.59168e-07
-1.8085e-06
5.13952e-07
-1.90572e-06
4.67396e-07
-2.00194e-06
4.1957e-07
-2.09703e-06
3.70545e-07
-2.19093e-06
3.20382e-07
-2.28383e-06
2.69111e-07
-2.3762e-06
2.16705e-07
-2.46907e-06
1.63035e-07
-2.56424e-06
1.07828e-07
-2.66469e-06
5.06244e-08
-2.77492e-06
-9.23132e-09
-2.90143e-06
-7.25289e-08
-3.05292e-06
-1.40012e-07
-3.24016e-06
-2.11998e-07
-3.47509e-06
-2.87781e-07
-3.76869e-06
-3.64819e-07
-4.12711e-06
-4.37851e-07
-4.54589e-06
-4.98284e-07
-5.0021e-06
-5.34457e-07
-5.44567e-06
-5.33594e-07
-5.79302e-06
-4.86134e-07
-5.92883e-06
-3.92047e-07
-5.72524e-06
-2.66231e-07
-5.08431e-06
-1.37592e-07
-3.99201e-06
-3.95608e-08
-2.54041e-06
-8.78504e-07
7.85451e-07
-1.47142e-06
7.4248e-07
-1.56882e-06
6.97817e-07
-1.6658e-06
6.51501e-07
-1.76219e-06
6.0358e-07
-1.8578e-06
5.54117e-07
-1.95248e-06
5.03187e-07
-2.04609e-06
4.5087e-07
-2.13862e-06
3.97246e-07
-2.23021e-06
3.42378e-07
-2.32133e-06
2.86284e-07
-2.41298e-06
2.28899e-07
-2.50686e-06
1.70032e-07
-2.60582e-06
1.09315e-07
-2.71421e-06
4.61828e-08
-2.8383e-06
-2.00994e-08
-2.98664e-06
-9.02804e-08
-3.16998e-06
-1.64804e-07
-3.40057e-06
-2.43239e-07
-3.69025e-06
-3.23474e-07
-4.04688e-06
-4.00765e-07
-4.4686e-06
-4.66964e-07
-4.9359e-06
-5.10504e-07
-5.40213e-06
-5.18062e-07
-5.78546e-06
-4.78756e-07
-5.96814e-06
-3.90791e-07
-5.81321e-06
-2.67856e-07
-5.20725e-06
-1.39262e-07
-4.1206e-06
-4.01741e-08
-2.63949e-06
-9.18678e-07
8.85531e-07
8.40411e-07
7.93402e-07
7.44536e-07
-1.71332e-06
6.93858e-07
-1.80713e-06
6.41431e-07
-1.90005e-06
5.87332e-07
-1.992e-06
5.3165e-07
-2.08294e-06
4.74485e-07
-2.17304e-06
4.15928e-07
-2.26278e-06
3.5604e-07
-2.35309e-06
2.94818e-07
-2.44564e-06
2.32147e-07
-2.54315e-06
1.67753e-07
-2.64981e-06
1.0116e-07
-2.77171e-06
3.17033e-08
-2.91718e-06
-4.13578e-08
-3.09692e-06
-1.18565e-07
-3.32336e-06
-1.99734e-07
-3.60908e-06
-2.83163e-07
-3.96345e-06
-3.64636e-07
-4.38713e-06
-4.36482e-07
-4.86405e-06
-4.873e-07
-5.35132e-06
-5.03288e-07
-5.76947e-06
-4.72244e-07
-5.99918e-06
-3.90502e-07
-5.89495e-06
-2.70353e-07
-5.3274e-06
-1.41459e-07
-4.2495e-06
-4.09403e-08
-2.74001e-06
-9.59618e-07
8.38285e-07
-1.66186e-06
7.84799e-07
-1.75364e-06
7.2935e-07
-1.84461e-06
6.72019e-07
-1.93466e-06
6.12906e-07
-2.02382e-06
5.52125e-07
-2.11226e-06
4.89796e-07
-2.20045e-06
4.26022e-07
-2.28931e-06
3.60856e-07
-2.38047e-06
2.9426e-07
-2.47655e-06
2.26046e-07
-2.5816e-06
1.55832e-07
-2.70149e-06
8.30308e-08
-2.84438e-06
6.92246e-09
-3.02081e-06
-7.31007e-08
-3.24334e-06
-1.57083e-07
-3.5251e-06
-2.43714e-07
-3.87682e-06
-3.29302e-07
-4.30154e-06
-4.06697e-07
-4.78666e-06
-4.64732e-07
-5.29328e-06
-4.89198e-07
-5.74501e-06
-4.66588e-07
-6.02179e-06
-3.91243e-07
-5.97029e-06
-2.73832e-07
-5.44481e-06
-1.44276e-07
-4.37905e-06
-4.18937e-08
-2.84239e-06
-1.00151e-06
9.3275e-07
-1.60775e-06
8.76406e-07
-1.69729e-06
8.17881e-07
-1.78608e-06
7.57261e-07
-1.87404e-06
6.94654e-07
-1.96122e-06
6.30192e-07
-2.0478e-06
5.64021e-07
-2.13428e-06
4.96282e-07
-2.22157e-06
4.27086e-07
-2.31128e-06
3.56462e-07
-2.40593e-06
2.84311e-07
-2.50945e-06
2.10344e-07
-2.62752e-06
1.34054e-07
-2.76809e-06
5.47601e-08
-2.94152e-06
-2.82077e-08
-3.16037e-06
-1.15079e-07
-3.43823e-06
-2.04921e-07
-3.78698e-06
-2.94568e-07
-4.21189e-06
-3.77426e-07
-4.7038e-06
-4.4264e-07
-5.22807e-06
-4.75674e-07
-5.71197e-06
-4.61734e-07
-6.03573e-06
-3.93045e-07
-6.03898e-06
-2.78393e-07
-5.55946e-06
-1.47809e-07
-4.50964e-06
-4.30714e-08
-2.94713e-06
-1.04458e-06
1.02792e-06
-1.55096e-06
9.68671e-07
-1.63804e-06
9.07021e-07
-1.72443e-06
8.4306e-07
-1.81008e-06
7.76907e-07
-1.89506e-06
7.08711e-07
-1.9796e-06
6.38642e-07
-2.06421e-06
5.6688e-07
-2.14981e-06
4.93586e-07
-2.23798e-06
4.18859e-07
-2.3312e-06
3.42681e-07
-2.43327e-06
2.64855e-07
-2.5497e-06
1.84958e-07
-2.68819e-06
1.02354e-07
-2.85891e-06
1.63398e-08
-3.07436e-06
-7.34875e-08
-3.3484e-06
-1.66546e-07
-3.69392e-06
-2.602e-07
-4.11824e-06
-3.48447e-07
-4.61555e-06
-4.20818e-07
-5.15569e-06
-4.62547e-07
-5.67024e-06
-4.57583e-07
-6.0407e-06
-3.95906e-07
-6.10066e-06
-2.84121e-07
-5.67124e-06
-1.52155e-07
-4.6416e-06
-4.45136e-08
-3.05477e-06
-1.0891e-06
1.12377e-06
-1.49145e-06
1.06157e-06
-1.57585e-06
9.96757e-07
-1.65961e-06
9.29416e-07
-1.74274e-06
8.59678e-07
-1.82532e-06
7.8771e-07
-1.90763e-06
7.13707e-07
-1.99021e-06
6.37885e-07
-2.07399e-06
5.60453e-07
-2.16055e-06
4.81574e-07
-2.25233e-06
4.01311e-07
-2.353e-06
3.19552e-07
-2.46794e-06
2.35959e-07
-2.6046e-06
1.49952e-07
-2.77291e-06
6.0806e-08
-2.98521e-06
-3.20329e-08
-3.25556e-06
-1.28312e-07
-3.59764e-06
-2.25921e-07
-4.02063e-06
-3.19485e-07
-4.52199e-06
-3.99007e-07
-5.07617e-06
-4.49591e-07
-5.61966e-06
-4.53977e-07
-6.03631e-06
-3.99781e-07
-6.15486e-06
-2.91084e-07
-5.77994e-06
-1.57415e-07
-4.77527e-06
-4.62633e-08
-3.16593e-06
-1.13536e-06
1.22025e-06
-1.42917e-06
1.15508e-06
-1.51067e-06
1.08707e-06
-1.5916e-06
1.01632e-06
-1.67199e-06
9.42978e-07
-1.75198e-06
8.67222e-07
-1.83188e-06
7.89272e-07
-1.91226e-06
7.0938e-07
-1.9941e-06
6.27801e-07
-2.07897e-06
5.44757e-07
-2.16928e-06
4.60383e-07
-2.26863e-06
3.74653e-07
-2.38221e-06
2.87311e-07
-2.51726e-06
1.97835e-07
-2.68343e-06
1.05493e-07
-2.89287e-06
9.60113e-09
-3.15967e-06
-8.98936e-08
-3.49814e-06
-1.91404e-07
-3.91912e-06
-2.90216e-07
-4.42318e-06
-3.76888e-07
-4.9895e-06
-4.36514e-07
-5.56003e-06
-4.50699e-07
-6.02213e-06
-4.04576e-07
-6.20098e-06
-2.99326e-07
-5.88519e-06
-1.6369e-07
-4.91091e-06
-4.83673e-08
-3.28125e-06
-1.18373e-06
1.3173e-06
-1.36412e-06
1.24913e-06
-1.44251e-06
1.17792e-06
-1.52039e-06
1.10376e-06
-1.59784e-06
1.02682e-06
-1.67504e-06
9.47288e-07
-1.75234e-06
8.65412e-07
-1.83038e-06
7.81475e-07
-1.91016e-06
6.95776e-07
-1.99327e-06
6.08591e-07
-2.0821e-06
5.20124e-07
-2.18016e-06
4.30425e-07
-2.29251e-06
3.39318e-07
-2.42615e-06
2.4634e-07
-2.59045e-06
1.50763e-07
-2.79729e-06
5.17972e-08
-3.06071e-06
-5.09046e-08
-3.39544e-06
-1.56261e-07
-3.81376e-06
-2.60248e-07
-4.31919e-06
-3.54073e-07
-4.89568e-06
-4.22953e-07
-5.49115e-06
-4.47456e-07
-5.99762e-06
-4.10135e-07
-6.2383e-06
-3.08859e-07
-5.98647e-06
-1.71078e-07
-5.04869e-06
-5.08762e-08
-3.40145e-06
-1.2346e-06
1.41482e-06
-1.29629e-06
1.34367e-06
-1.37135e-06
1.26927e-06
-1.44599e-06
1.19173e-06
-1.5203e-06
1.11123e-06
-1.59453e-06
1.02797e-06
-1.66909e-06
9.42226e-07
-1.74464e-06
8.54312e-07
-1.82225e-06
7.64566e-07
-1.90352e-06
6.73312e-07
-1.99084e-06
5.80815e-07
-2.08767e-06
4.87195e-07
-2.19889e-06
3.92349e-07
-2.33131e-06
2.95873e-07
-2.49397e-06
1.9705e-07
-2.69847e-06
9.4999e-08
-2.95865e-06
-1.08894e-08
-3.28955e-06
-1.20031e-07
-3.70462e-06
-2.29119e-07
-4.2101e-06
-3.30099e-07
-4.79469e-06
-4.08465e-07
-5.41279e-06
-4.43873e-07
-5.96221e-06
-4.16233e-07
-6.26594e-06
-3.19657e-07
-6.08304e-06
-1.79679e-07
-5.18867e-06
-5.38451e-08
-3.52728e-06
-1.28845e-06
1.51271e-06
-1.22571e-06
1.43861e-06
-1.29725e-06
1.36107e-06
-1.36845e-06
1.28022e-06
-1.43945e-06
1.19624e-06
-1.51055e-06
1.10935e-06
-1.5822e-06
1.01985e-06
-1.65514e-06
9.28082e-07
-1.73048e-06
8.34417e-07
-1.80986e-06
7.39222e-07
-1.89565e-06
6.42813e-07
-1.99126e-06
5.45372e-07
-2.10145e-06
4.46861e-07
-2.23279e-06
3.46929e-07
-2.39404e-06
2.44879e-07
-2.59642e-06
1.39752e-07
-2.85353e-06
3.0702e-08
-3.1805e-06
-8.21657e-08
-3.59175e-06
-1.9628e-07
-4.09599e-06
-3.04415e-07
-4.68656e-06
-3.92509e-07
-5.32469e-06
-4.39479e-07
-5.91525e-06
-4.22556e-07
-6.28286e-06
-3.31643e-07
-6.17395e-06
-1.89583e-07
-5.33073e-06
-5.73349e-08
-3.65953e-06
-1.34578e-06
1.61084e-06
-1.15244e-06
1.53388e-06
-1.22029e-06
1.4533e-06
-1.28787e-06
1.36925e-06
-1.3554e-06
1.28192e-06
-1.42321e-06
1.19156e-06
-1.49184e-06
1.09848e-06
-1.56206e-06
1.00304e-06
-1.63505e-06
9.05655e-07
-1.71247e-06
8.06713e-07
-1.79671e-06
7.06575e-07
-1.89112e-06
6.05472e-07
-2.00035e-06
5.03422e-07
-2.13074e-06
4.00122e-07
-2.29074e-06
2.94892e-07
-2.49119e-06
1.86714e-07
-2.74535e-06
7.45315e-08
-3.06832e-06
-4.20079e-08
-3.47521e-06
-1.61073e-07
-3.97692e-06
-2.76361e-07
-4.57127e-06
-3.74439e-07
-5.22662e-06
-4.33689e-07
-5.856e-06
-4.28691e-07
-6.28786e-06
-3.44676e-07
-6.25797e-06
-2.00877e-07
-5.47453e-06
-6.14144e-08
-3.79899e-06
-1.4072e-06
1.70909e-06
-1.07659e-06
1.62939e-06
-1.14059e-06
1.54593e-06
-1.20441e-06
1.45887e-06
-1.26834e-06
1.3684e-06
-1.33275e-06
1.2748e-06
-1.39824e-06
1.17839e-06
-1.46565e-06
1.07956e-06
-1.53621e-06
9.78716e-07
-1.61163e-06
8.76298e-07
-1.69429e-06
7.72686e-07
-1.78751e-06
6.6815e-07
-1.89581e-06
5.62745e-07
-2.02534e-06
4.56211e-07
-2.18421e-06
3.47882e-07
-2.38286e-06
2.36696e-07
-2.63416e-06
1.21408e-07
-2.95303e-06
1.24797e-09
-3.35505e-06
-1.22714e-07
-3.85296e-06
-2.45158e-07
-4.44883e-06
-3.53481e-07
-5.11829e-06
-4.25791e-07
-5.78368e-06
-4.34105e-07
-6.27955e-06
-3.58538e-07
-6.33354e-06
-2.13635e-07
-5.61943e-06
-6.61655e-08
-3.94646e-06
-1.47336e-06
1.80733e-06
-9.98345e-07
1.7251e-06
-1.05836e-06
1.639e-06
-1.11831e-06
1.54919e-06
-1.17853e-06
1.45589e-06
-1.23945e-06
1.35937e-06
-1.30172e-06
1.25998e-06
-1.36626e-06
1.15811e-06
-1.43434e-06
1.05418e-06
-1.5077e-06
9.48649e-07
-1.58876e-06
8.41905e-07
-1.68076e-06
7.34238e-07
-1.78815e-06
6.25731e-07
-1.91683e-06
5.16147e-07
-2.07463e-06
4.04835e-07
-2.27155e-06
2.90693e-07
-2.52002e-06
1.72318e-07
-2.83466e-06
4.85472e-08
-3.23128e-06
-8.02622e-08
-3.72415e-06
-2.09874e-07
-4.31922e-06
-3.28713e-07
-4.99945e-06
-4.14925e-07
-5.69747e-06
-4.38127e-07
-6.25634e-06
-3.72916e-07
-6.39875e-06
-2.2792e-07
-5.76442e-06
-7.16913e-08
-4.10269e-06
-1.54505e-06
1.90553e-06
-9.17952e-07
1.82107e-06
-9.73893e-07
1.73265e-06
-1.0299e-06
1.64047e-06
-1.08634e-06
1.54473e-06
-1.14371e-06
1.44573e-06
-1.20272e-06
1.34381e-06
-1.26434e-06
1.23937e-06
-1.3299e-06
1.13284e-06
-1.40117e-06
1.02465e-06
-1.48057e-06
9.15211e-07
-1.57132e-06
8.04802e-07
-1.67774e-06
6.93515e-07
-1.80554e-06
5.81124e-07
-1.96223e-06
4.66979e-07
-2.15741e-06
3.49945e-07
-2.40299e-06
2.28488e-07
-2.7132e-06
1.01101e-07
-3.1039e-06
-3.25644e-08
-3.59049e-06
-1.69386e-07
-4.18239e-06
-2.99038e-07
-4.8698e-06
-4.00051e-07
-5.59646e-06
-4.39917e-07
-6.21648e-06
-3.87379e-07
-6.45129e-06
-2.43775e-07
-5.90803e-06
-7.81309e-08
-4.26834e-06
-1.62319e-06
2.00372e-06
-8.35783e-07
1.91744e-06
-8.87607e-07
1.82717e-06
-9.39633e-07
1.7331e-06
-9.92266e-07
1.63545e-06
-1.04607e-06
1.53453e-06
-1.1018e-06
1.43068e-06
-1.16049e-06
1.32427e-06
-1.22349e-06
1.21573e-06
-1.29263e-06
1.10547e-06
-1.37031e-06
9.93872e-07
-1.45972e-06
8.81204e-07
-1.56507e-06
7.67538e-07
-1.69188e-06
6.52639e-07
-1.84734e-06
5.35848e-07
-2.04061e-06
4.15997e-07
-2.28314e-06
2.9144e-07
-2.58864e-06
1.60369e-07
-2.97283e-06
2.17798e-08
-3.4519e-06
-1.22353e-07
-4.03826e-06
-2.63143e-07
-4.72901e-06
-3.79918e-07
-5.47969e-06
-4.38436e-07
-6.15796e-06
-4.01354e-07
-6.48837e-06
-2.61225e-07
-6.04816e-06
-8.5682e-08
-4.44388e-06
-1.70887e-06
2.10217e-06
-7.52334e-07
2.01461e-06
-8.00045e-07
1.92307e-06
-8.48101e-07
1.82776e-06
-8.96952e-07
1.7289e-06
-9.47206e-07
1.62677e-06
-9.99674e-07
1.52171e-06
-1.05542e-06
1.41408e-06
-1.11586e-06
1.30426e-06
-1.18281e-06
1.19263e-06
-1.25869e-06
1.07953e-06
-1.34662e-06
9.65187e-07
-1.45072e-06
8.49626e-07
-1.57632e-06
7.32582e-07
-1.73029e-06
6.13367e-07
-1.9214e-06
4.90777e-07
-2.16055e-06
3.6307e-07
-2.46094e-06
2.28185e-07
-2.83794e-06
8.45061e-08
-3.30822e-06
-6.7166e-08
-3.88659e-06
-2.19423e-07
-4.57675e-06
-3.53009e-07
-5.3461e-06
-4.32403e-07
-6.07857e-06
-4.1409e-07
-6.50668e-06
-2.80262e-07
-6.18199e-06
-9.46324e-08
-4.62951e-06
-1.8035e-06
2.20144e-06
-6.68264e-07
2.11331e-06
-7.11921e-07
2.02129e-06
-7.56073e-07
1.92554e-06
-8.01207e-07
1.82631e-06
-8.47974e-07
1.72386e-06
-8.97221e-07
1.61848e-06
-9.5005e-07
1.51052e-06
-1.00789e-06
1.4003e-06
-1.07259e-06
1.28814e-06
-1.14653e-06
1.17431e-06
-1.2328e-06
1.05898e-06
-1.33539e-06
9.42092e-07
-1.45943e-06
8.2333e-07
-1.61153e-06
7.01951e-07
-1.80002e-06
5.76699e-07
-2.03529e-06
4.45748e-07
-2.32999e-06
3.06831e-07
-2.69902e-06
1.57853e-07
-3.15924e-06
-1.37929e-09
-3.72736e-06
-1.65892e-07
-4.41224e-06
-3.17503e-07
-5.19449e-06
-4.20241e-07
-5.97583e-06
-4.24603e-07
-6.50232e-06
-3.0082e-07
-6.30577e-06
-1.05396e-07
-4.82493e-06
-1.9089e-06
2.30263e-06
-5.84423e-07
2.21485e-06
-6.24141e-07
2.12328e-06
-6.64505e-07
2.02811e-06
-7.06033e-07
1.92954e-06
-7.49404e-07
1.82781e-06
-7.95494e-07
1.72319e-06
-8.45427e-07
1.61594e-06
-9.00643e-07
1.50634e-06
-9.62985e-07
1.39462e-06
-1.03481e-06
1.28096e-06
-1.11914e-06
1.16542e-06
-1.21985e-06
1.04787e-06
-1.34188e-06
9.27877e-07
-1.49154e-06
8.04628e-07
-1.67677e-06
6.76791e-07
-1.90746e-06
5.4245e-07
-2.19565e-06
3.99156e-07
-2.55573e-06
2.44318e-07
-3.0044e-06
7.65479e-08
-3.55959e-06
-1.00397e-07
-4.2353e-06
-2.71147e-07
-5.02374e-06
-3.99962e-07
-5.84701e-06
-4.31588e-07
-6.47069e-06
-3.22723e-07
-6.41464e-06
-1.18547e-07
-5.02911e-06
-2.02744e-06
2.40762e-06
-5.01875e-07
2.3213e-06
-5.37822e-07
2.23136e-06
-5.74558e-07
2.13795e-06
-6.12624e-07
2.04126e-06
-6.52716e-07
1.94149e-06
-6.95724e-07
1.83884e-06
-7.42778e-07
1.73351e-06
-7.95315e-07
1.62569e-06
-8.55159e-07
1.5155e-06
-9.24624e-07
1.40301e-06
-1.00665e-06
1.28816e-06
-1.10499e-06
1.17067e-06
-1.22439e-06
1.04999e-06
-1.37087e-06
9.25202e-07
-1.55198e-06
7.94854e-07
-1.77711e-06
6.56928e-07
-2.05772e-06
5.08809e-07
-2.40761e-06
3.47526e-07
-2.84312e-06
1.70849e-07
-3.38291e-06
-1.94765e-08
-4.04497e-06
-2.11071e-07
-4.83214e-06
-3.69051e-07
-5.68903e-06
-4.33287e-07
-6.40646e-06
-3.45584e-07
-6.50234e-06
-1.34829e-07
-5.23986e-06
-2.16227e-06
2.51949e-06
-4.2191e-07
2.43596e-06
-4.54293e-07
2.349e-06
-4.87594e-07
2.25874e-06
-5.22362e-07
2.16532e-06
-5.59299e-07
2.06889e-06
-5.99293e-07
1.96958e-06
-6.43465e-07
1.86749e-06
-6.93232e-07
1.76271e-06
-7.50378e-07
1.65525e-06
-8.1716e-07
1.54502e-06
-8.96425e-07
1.4318e-06
-9.91775e-07
1.31517e-06
-1.10776e-06
1.19441e-06
-1.25011e-06
1.06843e-06
-1.426e-06
9.35636e-07
-1.64432e-06
7.93869e-07
-1.91595e-06
6.40341e-07
-2.25408e-06
4.71765e-07
-2.67454e-06
2.85059e-07
-3.19621e-06
7.994e-08
-3.83985e-06
-1.33909e-07
-4.6183e-06
-3.24256e-07
-5.49869e-06
-4.2728e-07
-6.30343e-06
-3.68632e-07
-6.56099e-06
-1.5512e-07
-5.45338e-06
-2.31739e-06
2.64299e-06
-3.46029e-07
2.56378e-06
-3.75077e-07
2.48133e-06
-4.05145e-07
2.39575e-06
-4.36779e-07
2.30712e-06
-4.70672e-07
2.21552e-06
-5.07694e-07
2.121e-06
-5.48943e-07
2.02356e-06
-5.95793e-07
1.92316e-06
-6.49975e-07
1.81966e-06
-7.13661e-07
1.71282e-06
-7.89587e-07
1.60224e-06
-8.81195e-07
1.4873e-06
-9.92815e-07
1.36707e-06
-1.12988e-06
1.24026e-06
-1.29918e-06
1.10507e-06
-1.50913e-06
9.59149e-07
-1.77003e-06
7.99506e-07
-2.09444e-06
6.22546e-07
-2.49758e-06
4.24487e-07
-2.99815e-06
2.03357e-07
-3.61872e-06
-3.4474e-08
-4.38047e-06
-2.61256e-07
-5.2719e-06
-4.10189e-07
-6.1545e-06
-3.90411e-07
-6.58076e-06
-1.80297e-07
-5.66349e-06
-2.49769e-06
2.78525e-06
-2.75885e-07
2.71199e-06
-3.0182e-07
2.63569e-06
-3.28841e-07
2.55639e-06
-3.57478e-07
2.47411e-06
-3.88401e-07
2.38887e-06
-4.2245e-07
2.3006e-06
-4.60676e-07
2.20921e-06
-5.04398e-07
2.1145e-06
-5.55268e-07
2.01619e-06
-6.15354e-07
1.91386e-06
-6.87256e-07
1.8069e-06
-7.74232e-07
1.69446e-06
-8.80371e-07
1.57537e-06
-1.0108e-06
1.44808e-06
-1.17189e-06
1.31053e-06
-1.37158e-06
1.16009e-06
-1.6196e-06
9.93501e-07
-1.92785e-06
8.06846e-07
-2.31093e-06
5.95738e-07
-2.78704e-06
3.56597e-07
-3.37958e-06
9.1975e-08
-4.11584e-06
-1.74747e-07
-5.00518e-06
-3.7718e-07
-5.95207e-06
-4.08306e-07
-6.54964e-06
-2.10937e-07
-5.86086e-06
-2.70863e-06
2.95652e-06
-2.13166e-07
2.89087e-06
-2.36172e-07
2.82232e-06
-2.60284e-07
2.75085e-06
-2.86007e-07
2.67642e-06
-3.13976e-07
2.59895e-06
-3.44983e-07
2.5183e-06
-3.80019e-07
2.43422e-06
-4.20326e-07
2.34641e-06
-4.67454e-07
2.2544e-06
-5.23346e-07
2.15758e-06
-5.90434e-07
2.05512e-06
-6.71766e-07
1.94591e-06
-7.71162e-07
1.82851e-06
-8.93396e-07
1.70104e-06
-1.04443e-06
1.56112e-06
-1.23166e-06
1.40576e-06
-1.46424e-06
1.23133e-06
-1.75342e-06
1.0335e-06
-2.1131e-06
8.07314e-07
-2.56085e-06
5.47822e-07
-3.12009e-06
2.54139e-07
-3.82216e-06
-5.61625e-08
-4.69488e-06
-3.21351e-07
-5.68688e-06
-4.17942e-07
-6.45305e-06
-2.46769e-07
-6.03203e-06
-2.9554e-06
3.1711e-06
-1.594e-07
3.11451e-06
-1.79587e-07
3.05508e-06
-2.00857e-07
2.99275e-06
-2.23675e-07
2.9274e-06
-2.48628e-07
2.85887e-06
-2.76449e-07
2.7869e-06
-3.08052e-07
2.71116e-06
-3.44581e-07
2.63117e-06
-3.87464e-07
2.54631e-06
-4.3849e-07
2.45577e-06
-4.99894e-07
2.35849e-06
-5.74479e-07
2.25308e-06
-6.65752e-07
2.13778e-06
-7.78102e-07
2.01037e-06
-9.17015e-07
1.86804e-06
-1.08933e-06
1.70735e-06
-1.30354e-06
1.52415e-06
-1.57022e-06
1.31359e-06
-1.90254e-06
1.07008e-06
-2.31734e-06
7.8749e-07
-2.8375e-06
4.61649e-07
-3.49632e-06
1.026e-07
-4.33583e-06
-2.33774e-07
-5.35051e-06
-4.12182e-07
-6.27464e-06
-2.85766e-07
-6.15845e-06
-3.24116e-06
3.44798e-06
-1.15673e-07
3.40146e-06
-1.33065e-07
3.35207e-06
-1.5147e-07
3.2997e-06
-1.71306e-07
3.24418e-06
-1.93104e-07
3.18525e-06
-2.17521e-07
3.12258e-06
-2.4538e-07
3.05571e-06
-2.7771e-07
2.98404e-06
-3.15793e-07
2.90678e-06
-3.61234e-07
2.82293e-06
-4.16041e-07
2.73118e-06
-4.82729e-07
2.62987e-06
-5.64447e-07
2.51691e-06
-6.65141e-07
2.38966e-06
-7.89761e-07
2.24483e-06
-9.44504e-07
2.07844e-06
-1.13715e-06
1.88569e-06
-1.37746e-06
1.66098e-06
-1.67784e-06
1.39793e-06
-2.05429e-06
1.08929e-06
-2.52887e-06
7.27942e-07
-3.13497e-06
3.16273e-07
-3.92416e-06
-9.92227e-08
-4.93501e-06
-3.79675e-07
-5.99419e-06
-3.23029e-07
-6.21509e-06
-3.56419e-06
3.81118e-06
-8.22973e-08
3.77495e-06
-9.68313e-08
3.73575e-06
-1.12269e-07
3.69342e-06
-1.28978e-07
3.64773e-06
-1.47417e-07
3.59838e-06
-1.68163e-07
3.54493e-06
-1.9193e-07
3.48683e-06
-2.19614e-07
3.42337e-06
-2.52329e-07
3.3536e-06
-2.91471e-07
3.27635e-06
-3.38783e-07
3.19007e-06
-3.9645e-07
3.09283e-06
-4.6721e-07
2.98219e-06
-5.54501e-07
2.85508e-06
-6.62655e-07
2.70771e-06
-7.97132e-07
2.53543e-06
-9.64866e-07
2.33265e-06
-1.17468e-06
2.09284e-06
-1.43803e-06
1.80851e-06
-1.76995e-06
1.47118e-06
-2.19154e-06
1.07128e-06
-2.73507e-06
6.03807e-07
-3.45669e-06
9.99126e-08
-4.43112e-06
-3.04728e-07
-5.58954e-06
-3.49852e-07
-6.16997e-06
-3.91404e-06
4.28893e-06
-5.84813e-08
4.26214e-06
-7.00449e-08
4.23225e-06
-8.23767e-08
4.19906e-06
-9.57831e-08
4.16229e-06
-1.10649e-07
4.12158e-06
-1.27455e-07
4.07645e-06
-1.46798e-07
4.02626e-06
-1.69422e-07
3.97018e-06
-1.96256e-07
3.90717e-06
-2.28458e-07
3.83586e-06
-2.67477e-07
3.75454e-06
-3.15123e-07
3.661e-06
-3.73672e-07
3.55248e-06
-4.45983e-07
3.4255e-06
-5.35678e-07
3.27573e-06
-6.47353e-07
3.0978e-06
-7.86942e-07
2.88523e-06
-9.62112e-07
2.63032e-06
-1.18312e-06
2.32415e-06
-1.46378e-06
1.95665e-06
-1.82404e-06
1.51601e-06
-2.29443e-06
9.9001e-07
-2.93069e-06
3.89176e-07
-3.83028e-06
-1.60616e-07
-5.03975e-06
-3.53762e-07
-5.97682e-06
-4.26781e-06
4.91109e-06
-4.2155e-08
4.89171e-06
-5.06647e-08
4.86913e-06
-5.97901e-08
4.84312e-06
-6.9772e-08
4.81338e-06
-8.09137e-08
4.77952e-06
-9.35918e-08
4.74099e-06
-1.08275e-07
4.69712e-06
-1.25544e-07
4.64699e-06
-1.46126e-07
4.58945e-06
-1.70921e-07
4.52303e-06
-2.01056e-07
4.44584e-06
-2.37935e-07
4.35549e-06
-2.83327e-07
4.24896e-06
-3.39443e-07
4.12239e-06
-4.09116e-07
3.97098e-06
-4.95936e-07
3.78868e-06
-6.0465e-07
3.56804e-06
-7.41466e-07
3.30001e-06
-9.1509e-07
2.9738e-06
-1.13757e-06
2.57715e-06
-1.4274e-06
2.09569e-06
-1.81297e-06
1.51205e-06
-2.34705e-06
8.15767e-07
-3.134e-06
9.89554e-08
-4.32294e-06
-3.0204e-07
-5.57583e-06
-4.56985e-06
5.70434e-06
-3.01813e-08
5.68937e-06
-3.56951e-08
5.67124e-06
-4.16634e-08
5.64973e-06
-4.82578e-08
5.62451e-06
-5.56947e-08
5.59516e-06
-6.42425e-08
5.56112e-06
-7.42342e-08
5.52166e-06
-8.60816e-08
5.47583e-06
-1.00297e-07
5.42242e-06
-1.17514e-07
5.35989e-06
-1.38525e-07
5.28626e-06
-1.64308e-07
5.19904e-06
-1.96099e-07
5.09502e-06
-2.35429e-07
4.97019e-06
-2.84281e-07
4.81939e-06
-3.45138e-07
4.63613e-06
-4.21392e-07
4.41211e-06
-5.17445e-07
4.13696e-06
-6.39944e-07
3.79762e-06
-7.98224e-07
3.37858e-06
-1.00836e-06
2.86108e-06
-1.29547e-06
2.22324e-06
-1.70921e-06
1.43621e-06
-2.34697e-06
5.45016e-07
-3.43175e-06
-1.12563e-07
-4.91825e-06
-4.68241e-06
6.68549e-06
-1.92826e-08
6.67192e-06
-2.21271e-08
6.65552e-06
-2.52601e-08
6.63605e-06
-2.87834e-08
6.61318e-06
-3.28257e-08