/*--------------------------------*- C++ -*----------------------------------*\
  =========                 |
  \\      /  F ield         | OpenFOAM: The Open Source CFD Toolbox
   \\    /   O peration     | Website:  https://openfoam.org
    \\  /    A nd           | Version:  9
     \\/     M anipulation  |
\*---------------------------------------------------------------------------*/
FoamFile
{
    format      ascii;
    class       volVectorField;
    location    "2";
    object      U;
}
// * * * * * * * * * * * * * * * * * * * * * * * * * * * * * * * * * * * * * //

dimensions      [0 1 -1 0 0 0 0];

internalField   nonuniform List<vector> 
1260
(
(-0.0441034 -0.187081 0)
(-0.0458324 -0.197812 0)
(-0.0475438 -0.208421 0)
(-0.0492323 -0.218892 0)
(-0.0508966 -0.229219 0)
(-0.0525405 -0.239405 0)
(-0.0541762 -0.24948 0)
(-0.0558277 -0.259508 0)
(-0.0575339 -0.269608 0)
(-0.0593527 -0.279972 0)
(-0.0613627 -0.290884 0)
(-0.0636618 -0.302742 0)
(-0.0663603 -0.316053 0)
(-0.0695653 -0.331415 0)
(-0.0733533 -0.349453 0)
(-0.0777312 -0.370699 0)
(-0.0825858 -0.395405 0)
(-0.0876304 -0.423288 0)
(-0.0923609 -0.453231 0)
(-0.0960411 -0.482993 0)
(-0.0977424 -0.509018 0)
(-0.0964612 -0.526488 0)
(-0.0913289 -0.529775 0)
(-0.0818966 -0.513445 0)
(-0.0684316 -0.473761 0)
(-0.0520959 -0.410338 0)
(-0.0348411 -0.327106 0)
(-0.018966 -0.231778 0)
(-0.00677889 -0.13371 0)
(-0.000947642 -0.0411332 0)
(-0.0349149 -0.185259 0)
(-0.0368244 -0.195999 0)
(-0.0387259 -0.206624 0)
(-0.0406135 -0.217116 0)
(-0.0424836 -0.227463 0)
(-0.0443372 -0.237663 0)
(-0.0461825 -0.247737 0)
(-0.0480374 -0.257737 0)
(-0.0499342 -0.267763 0)
(-0.0519222 -0.27799 0)
(-0.0540717 -0.288681 0)
(-0.0564733 -0.300215 0)
(-0.0592338 -0.313093 0)
(-0.0624635 -0.327924 0)
(-0.0662525 -0.345378 0)
(-0.070634 -0.366073 0)
(-0.0755357 -0.390401 0)
(-0.0807238 -0.41827 0)
(-0.0857523 -0.448789 0)
(-0.0899361 -0.479941 0)
(-0.0923745 -0.508324 0)
(-0.0920505 -0.529124 0)
(-0.0880273 -0.536469 0)
(-0.0797343 -0.524374 0)
(-0.0672868 -0.48829 0)
(-0.0517118 -0.426932 0)
(-0.0348939 -0.343569 0)
(-0.0191561 -0.245745 0)
(-0.00690973 -0.143155 0)
(-0.000981804 -0.0446128 0)
(-0.0256559 -0.18326 0)
(-0.0277479 -0.194 0)
(-0.0298429 -0.20463 0)
(-0.031934 -0.215134 0)
(-0.0340164 -0.225495 0)
(-0.0360888 -0.235706 0)
(-0.0381558 -0.24578 0)
(-0.0402305 -0.255758 0)
(-0.0423385 -0.265726 0)
(-0.0445218 -0.275838 0)
(-0.0468416 -0.286339 0)
(-0.0493807 -0.297587 0)
(-0.0522405 -0.310071 0)
(-0.0555312 -0.324405 0)
(-0.059352 -0.341289 0)
(-0.0637574 -0.361418 0)
(-0.0687106 -0.385309 0)
(-0.0740264 -0.41305 0)
(-0.0793155 -0.443976 0)
(-0.0839465 -0.476305 0)
(-0.0870535 -0.506822 0)
(-0.0876167 -0.53076 0)
(-0.0846438 -0.542058 0)
(-0.0774532 -0.53423 0)
(-0.0660127 -0.501923 0)
(-0.0512115 -0.442917 0)
(-0.0348589 -0.359734 0)
(-0.0192936 -0.25966 0)
(-0.00702012 -0.152674 0)
(-0.00101282 -0.0481595 0)
(-0.0163288 -0.181084 0)
(-0.0186053 -0.191811 0)
(-0.0208964 -0.202437 0)
(-0.023195 -0.212941 0)
(-0.0254953 -0.223307 0)
(-0.0277941 -0.233524 0)
(-0.0300933 -0.243596 0)
(-0.0324017 -0.253555 0)
(-0.0347393 -0.263474 0)
(-0.0371406 -0.27349 0)
(-0.0396587 -0.283827 0)
(-0.0423677 -0.294823 0)
(-0.0453622 -0.306951 0)
(-0.0487498 -0.320822 0)
(-0.0526349 -0.337159 0)
(-0.0570885 -0.356719 0)
(-0.0621039 -0.380129 0)
(-0.0675403 -0.407648 0)
(-0.0730627 -0.438833 0)
(-0.0780945 -0.472142 0)
(-0.0818099 -0.504575 0)
(-0.0831963 -0.531455 0)
(-0.0812174 -0.546588 0)
(-0.0750908 -0.543035 0)
(-0.0646421 -0.514659 0)
(-0.0506201 -0.458273 0)
(-0.0347525 -0.375571 0)
(-0.0193863 -0.273493 0)
(-0.00711217 -0.162246 0)
(-0.00104078 -0.0517632 0)
(-0.00693541 -0.178728 0)
(-0.00939801 -0.189431 0)
(-0.0118878 -0.200039 0)
(-0.0143973 -0.210534 0)
(-0.0169203 -0.220895 0)
(-0.0194523 -0.231108 0)
(-0.0219927 -0.241173 0)
(-0.024547 -0.251113 0)
(-0.0271301 -0.260989 0)
(-0.0297699 -0.270922 0)
(-0.0325113 -0.281117 0)
(-0.0354199 -0.29189 0)
(-0.0385823 -0.303697 0)
(-0.0421016 -0.317141 0)
(-0.0460841 -0.332959 0)
(-0.0506126 -0.351955 0)
(-0.0557059 -0.374856 0)
(-0.0612627 -0.402079 0)
(-0.0669995 -0.433391 0)
(-0.0723946 -0.467503 0)
(-0.076667 -0.501644 0)
(-0.0788189 -0.53127 0)
(-0.0777813 -0.550108 0)
(-0.0726806 -0.550819 0)
(-0.0632055 -0.526507 0)
(-0.0499626 -0.472991 0)
(-0.0345916 -0.39106 0)
(-0.0194428 -0.287221 0)
(-0.00718838 -0.171849 0)
(-0.00106586 -0.0554153 0)
(0.00252314 -0.176192 0)
(-0.000127094 -0.186857 0)
(-0.00281768 -0.197436 0)
(-0.00554137 -0.207908 0)
(-0.00829141 -0.218251 0)
(-0.0110625 -0.228451 0)
(-0.0138522 -0.238501 0)
(-0.0166632 -0.248418 0)
(-0.0195059 -0.258253 0)
(-0.0224021 -0.268112 0)
(-0.0253895 -0.278182 0)
(-0.0285248 -0.288758 0)
(-0.0318861 -0.300276 0)
(-0.0355704 -0.313328 0)
(-0.039683 -0.328657 0)
(-0.0443149 -0.347104 0)
(-0.0495053 -0.36948 0)
(-0.0551881 -0.396346 0)
(-0.0611277 -0.427674 0)
(-0.066857 -0.462426 0)
(-0.0716425 -0.498079 0)
(-0.0745088 -0.530258 0)
(-0.0743637 -0.552663 0)
(-0.0702523 -0.55761 0)
(-0.0617312 -0.537476 0)
(-0.049263 -0.487067 0)
(-0.0343936 -0.406191 0)
(-0.0194725 -0.300828 0)
(-0.00725174 -0.18147 0)
(-0.00108833 -0.0591083 0)
(0.0120467 -0.173474 0)
(0.00920732 -0.184088 0)
(0.00631372 -0.194624 0)
(0.00337289 -0.205059 0)
(0.000391685 -0.215372 0)
(-0.00262395 -0.225546 0)
(-0.00567031 -0.235572 0)
(-0.00874757 -0.24546 0)
(-0.0118624 -0.255251 0)
(-0.0150314 -0.265041 0)
(-0.0182849 -0.274998 0)
(-0.0216714 -0.285399 0)
(-0.0252604 -0.296658 0)
(-0.0291412 -0.309352 0)
(-0.033416 -0.324223 0)
(-0.0381803 -0.34214 0)
(-0.0434898 -0.363986 0)
(-0.0493086 -0.39045 0)
(-0.0554456 -0.4217 0)
(-0.0614869 -0.456944 0)
(-0.0667488 -0.493925 0)
(-0.0702846 -0.528467 0)
(-0.070988 -0.554296 0)
(-0.0678315 -0.563438 0)
(-0.0602448 -0.54758 0)
(-0.0485443 -0.500502 0)
(-0.0341759 -0.420956 0)
(-0.0194855 -0.314305 0)
(-0.00730564 -0.191097 0)
(-0.00110856 -0.0628363 0)
(0.0216357 -0.170573 0)
(0.0186057 -0.181123 0)
(0.015507 -0.1916 0)
(0.0123461 -0.201984 0)
(0.00912979 -0.212253 0)
(0.0058644 -0.222388 0)
(0.00255461 -0.232377 0)
(-0.000797738 -0.242226 0)
(-0.00419609 -0.25197 0)
(-0.0076523 -0.261692 0)
(-0.0111903 -0.271545 0)
(-0.0148506 -0.281788 0)
(-0.0186935 -0.292813 0)
(-0.0228004 -0.30518 0)
(-0.0272682 -0.319626 0)
(-0.0321942 -0.337037 0)
(-0.0376461 -0.358356 0)
(-0.0436143 -0.384386 0)
(-0.0499484 -0.415479 0)
(-0.0562857 -0.451084 0)
(-0.061994 -0.489219 0)
(-0.0661604 -0.525939 0)
(-0.0676727 -0.555043 0)
(-0.0654399 -0.568328 0)
(-0.0587689 -0.556832 0)
(-0.0478279 -0.513299 0)
(-0.0339559 -0.435358 0)
(-0.0194923 -0.327652 0)
(-0.00735384 -0.200727 0)
(-0.001127 -0.0665953 0)
(0.0312914 -0.167488 0)
(0.0280694 -0.177958 0)
(0.0247632 -0.188363 0)
(0.0213792 -0.19868 0)
(0.017924 -0.208889 0)
(0.0144038 -0.21897 0)
(0.0108242 -0.228909 0)
(0.00718863 -0.238709 0)
(0.00349623 -0.248398 0)
(-0.000260513 -0.258049 0)
(-0.00409964 -0.267803 0)
(-0.00805398 -0.277901 0)
(-0.0121751 -0.288715 0)
(-0.0165356 -0.300785 0)
(-0.0212258 -0.314837 0)
(-0.0263421 -0.331769 0)
(-0.0319608 -0.35257 0)
(-0.0380943 -0.378146 0)
(-0.044629 -0.409015 0)
(-0.0512516 -0.444866 0)
(-0.0573819 -0.483993 0)
(-0.0621455 -0.522712 0)
(-0.0644322 -0.55494 0)
(-0.0630951 -0.572306 0)
(-0.0573232 -0.565246 0)
(-0.0471337 -0.525467 0)
(-0.0337507 -0.449401 0)
(-0.0195039 -0.340871 0)
(-0.00740043 -0.21036 0)
(-0.0011442 -0.0703831 0)
(0.0410159 -0.164217 0)
(0.0376001 -0.174593 0)
(0.0340842 -0.184908 0)
(0.0304741 -0.195144 0)
(0.0267759 -0.205276 0)
(0.022996 -0.215287 0)
(0.0191404 -0.225161 0)
(0.0152137 -0.234898 0)
(0.0112175 -0.244522 0)
(0.00714805 -0.254097 0)
(0.00299263 -0.263755 0)
(-0.00127438 -0.273717 0)
(-0.00569596 -0.284337 0)
(-0.0103355 -0.296137 0)
(-0.0152758 -0.309827 0)
(-0.0206101 -0.32631 0)
(-0.0264202 -0.346609 0)
(-0.0327365 -0.371718 0)
(-0.0394786 -0.402311 0)
(-0.0463799 -0.438303 0)
(-0.052913 -0.478274 0)
(-0.0582455 -0.518817 0)
(-0.0612763 -0.554017 0)
(-0.0608109 -0.575393 0)
(-0.0559244 -0.572834 0)
(-0.0464796 -0.537013 0)
(-0.0335766 -0.463095 0)
(-0.0195314 -0.353974 0)
(-0.00744984 -0.220002 0)
(-0.00116079 -0.0742 0)
(0.0508117 -0.16076 0)
(0.0472003 -0.171025 0)
(0.0434722 -0.181235 0)
(0.0396327 -0.19137 0)
(0.0356874 -0.20141 0)
(0.0316427 -0.211333 0)
(0.0275049 -0.221126 0)
(0.0232796 -0.230785 0)
(0.0189705 -0.240332 0)
(0.014577 -0.249825 0)
(0.0100914 -0.259383 0)
(0.00549477 -0.269216 0)
(0.000752478 -0.279659 0)
(-0.00418957 -0.291211 0)
(-0.00940574 -0.30457 0)
(-0.0149845 -0.320632 0)
(-0.0210103 -0.34045 0)
(-0.027528 -0.365089 0)
(-0.0344866 -0.395363 0)
(-0.0416637 -0.431407 0)
(-0.0485843 -0.472082 0)
(-0.0544619 -0.514281 0)
(-0.058211 -0.552299 0)
(-0.0585972 -0.577607 0)
(-0.0545859 -0.579604 0)
(-0.0458816 -0.547942 0)
(-0.0334495 -0.476453 0)
(-0.0195862 -0.366978 0)
(-0.00750679 -0.229664 0)
(-0.00117749 -0.0780484 0)
(0.0606817 -0.157114 0)
(0.0568727 -0.167252 0)
(0.0529297 -0.177339 0)
(0.0488573 -0.187357 0)
(0.0446607 -0.197285 0)
(0.0403461 -0.207103 0)
(0.0359199 -0.216797 0)
(0.0313887 -0.226363 0)
(0.0267578 -0.235819 0)
(0.0220297 -0.245219 0)
(0.0172011 -0.254675 0)
(0.0122594 -0.264381 0)
(0.00717798 -0.274658 0)
(0.00191194 -0.285985 0)
(-0.00360402 -0.29904 0)
(-0.00945216 -0.314712 0)
(-0.0157172 -0.334071 0)
(-0.0224551 -0.358244 0)
(-0.0296408 -0.388169 0)
(-0.0370935 -0.424185 0)
(-0.0443902 -0.465435 0)
(-0.050793 -0.509128 0)
(-0.0552386 -0.549808 0)
(-0.0564601 -0.578963 0)
(-0.0533178 -0.585564 0)
(-0.0453535 -0.558263 0)
(-0.0333845 -0.48949 0)
(-0.01968 -0.379904 0)
(-0.00757632 -0.239362 0)
(-0.00119512 -0.0819332 0)
(0.070629 -0.153277 0)
(0.0666201 -0.163271 0)
(0.0624593 -0.173218 0)
(0.0581503 -0.183099 0)
(0.053698 -0.192897 0)
(0.0491081 -0.202591 0)
(0.0443874 -0.212167 0)
(0.0395431 -0.221623 0)
(0.0345821 -0.230973 0)
(0.0295095 -0.240269 0)
(0.0243261 -0.249615 0)
(0.0190252 -0.259196 0)
(0.0135879 -0.269316 0)
(0.0079784 -0.280435 0)
(0.00214076 -0.293213 0)
(-0.00399991 -0.308526 0)
(-0.0105265 -0.327453 0)
(-0.0175034 -0.351168 0)
(-0.0249278 -0.380721 0)
(-0.0326579 -0.416641 0)
(-0.040322 -0.458347 0)
(-0.0472335 -0.503376 0)
(-0.0523573 -0.546561 0)
(-0.0544019 -0.579471 0)
(-0.0521268 -0.590715 0)
(-0.0449066 -0.567976 0)
(-0.0333955 -0.502218 0)
(-0.0198245 -0.392779 0)
(-0.0076638 -0.249121 0)
(-0.00121456 -0.0858621 0)
(0.0806566 -0.149249 0)
(0.0764455 -0.15908 0)
(0.0720636 -0.168867 0)
(0.0675141 -0.178594 0)
(0.0628013 -0.188241 0)
(0.0579308 -0.197791 0)
(0.0529094 -0.20723 0)
(0.047745 -0.216557 0)
(0.0424458 -0.225785 0)
(0.0370194 -0.234964 0)
(0.0314704 -0.244192 0)
(0.0257976 -0.253646 0)
(0.0199895 -0.263615 0)
(0.014019 -0.274543 0)
(0.00783985 -0.287067 0)
(0.00138542 -0.302052 0)
(-0.0054237 -0.320574 0)
(-0.0126575 -0.343846 0)
(-0.0203327 -0.373012 0)
(-0.0283434 -0.408777 0)
(-0.0363685 -0.450828 0)
(-0.043775 -0.497041 0)
(-0.0495619 -0.542573 0)
(-0.052421 -0.579135 0)
(-0.051016 -0.595056 0)
(-0.0445494 -0.57708 0)
(-0.0334956 -0.514653 0)
(-0.0200318 -0.405632 0)
(-0.00777493 -0.258969 0)
(-0.00123684 -0.0898458 0)
(0.0907674 -0.145026 0)
(0.0863511 -0.154676 0)
(0.0817446 -0.164284 0)
(0.0769505 -0.173835 0)
(0.0719725 -0.183311 0)
(0.0668159 -0.192697 0)
(0.0614877 -0.20198 0)
(0.0559963 -0.211158 0)
(0.0503513 -0.220247 0)
(0.0445624 -0.229294 0)
(0.038638 -0.238395 0)
(0.032582 -0.247718 0)
(0.0263897 -0.257541 0)
(0.0200429 -0.268291 0)
(0.0135048 -0.280585 0)
(0.00671745 -0.295269 0)
(-0.00039337 -0.313416 0)
(-0.00790112 -0.336262 0)
(-0.0158391 -0.365033 0)
(-0.0241346 -0.400594 0)
(-0.0325158 -0.442888 0)
(-0.0404056 -0.490136 0)
(-0.0468432 -0.537853 0)
(-0.0505117 -0.577959 0)
(-0.0499847 -0.598577 0)
(-0.0442879 -0.585569 0)
(-0.0336963 -0.526806 0)
(-0.0203137 -0.418498 0)
(-0.00791581 -0.26894 0)
(-0.00126306 -0.0938977 0)
(0.0864607 -0.168819 0)
(0.0812126 -0.178104 0)
(0.0757645 -0.187304 0)
(0.0701235 -0.196409 0)
(0.0642986 -0.205419 0)
(0.0583007 -0.214351 0)
(0.0521416 -0.223251 0)
(0.0458332 -0.232213 0)
(0.0393841 -0.2414 0)
(0.0327962 -0.25108 0)
(0.0260599 -0.261663 0)
(0.0191475 -0.273748 0)
(0.0120106 -0.288159 0)
(0.00458085 -0.30596 0)
(-0.00321649 -0.328404 0)
(-0.0114286 -0.356777 0)
(-0.0200132 -0.392091 0)
(-0.0287469 -0.434533 0)
(-0.0371101 -0.482672 0)
(-0.0441881 -0.532409 0)
(-0.048664 -0.575938 0)
(-0.0490278 -0.601265 0)
(-0.0441241 -0.593429 0)
(-0.0340076 -0.538684 0)
(-0.0206825 -0.431412 0)
(-0.00809299 -0.279074 0)
(-0.00129446 -0.0980349 0)
(0.0960449 -0.163541 0)
(0.0905219 -0.172613 0)
(0.0847771 -0.181606 0)
(0.0788177 -0.190512 0)
(0.0726533 -0.199334 0)
(0.0662961 -0.208089 0)
(0.0597601 -0.216827 0)
(0.0530602 -0.225638 0)
(0.0462098 -0.234683 0)
(0.0392171 -0.24422 0)
(0.0320803 -0.254646 0)
(0.0247812 -0.266541 0)
(0.0172805 -0.280707 0)
(0.00951681 -0.298193 0)
(0.00141597 -0.320256 0)
(-0.00708049 -0.348236 0)
(-0.0159588 -0.383267 0)
(-0.0250419 -0.42577 0)
(-0.0338696 -0.474657 0)
(-0.0415792 -0.526246 0)
(-0.0468634 -0.573066 0)
(-0.0481358 -0.603099 0)
(-0.0440567 -0.600639 0)
(-0.0344372 -0.550289 0)
(-0.0211501 -0.444411 0)
(-0.00831348 -0.289418 0)
(-0.00133243 -0.102278 0)
(0.105702 -0.157997 0)
(0.0998994 -0.166833 0)
(0.093853 -0.175597 0)
(0.0875702 -0.184283 0)
(0.0810612 -0.192896 0)
(0.0743395 -0.201457 0)
(0.0674211 -0.210015 0)
(0.060324 -0.218664 0)
(0.0530661 -0.227559 0)
(0.0456615 -0.236953 0)
(0.038116 -0.247231 0)
(0.0304204 -0.258953 0)
(0.0225447 -0.2729 0)
(0.0144348 -0.290101 0)
(0.00601851 -0.311809 0)
(-0.00277159 -0.339402 0)
(-0.0119474 -0.374122 0)
(-0.0213771 -0.416604 0)
(-0.0306612 -0.4661 0)
(-0.0389949 -0.519367 0)
(-0.0450902 -0.569332 0)
(-0.0472938 -0.604054 0)
(-0.0440795 -0.607168 0)
(-0.0349905 -0.561616 0)
(-0.0217285 -0.457532 0)
(-0.00858486 -0.300024 0)
(-0.00137852 -0.106651 0)
(0.115429 -0.152182 0)
(0.109343 -0.160761 0)
(0.102991 -0.169274 0)
(0.0963803 -0.177718 0)
(0.0895227 -0.186101 0)
(0.0824326 -0.194448 0)
(0.0751282 -0.202811 0)
(0.0676304 -0.211284 0)
(0.0599611 -0.220023 0)
(0.0521403 -0.229273 0)
(0.0441809 -0.239409 0)
(0.0360821 -0.250974 0)
(0.0278232 -0.264727 0)
(0.0193577 -0.281672 0)
(0.0106164 -0.303053 0)
(0.00152507 -0.33027 0)
(-0.00795138 -0.364655 0)
(-0.0177248 -0.407039 0)
(-0.0274573 -0.457008 0)
(-0.0364082 -0.511773 0)
(-0.0433193 -0.564721 0)
(-0.0464811 -0.604094 0)
(-0.0441811 -0.612976 0)
(-0.0356694 -0.572649 0)
(-0.022429 -0.470808 0)
(-0.00891534 -0.31095 0)
(-0.00143443 -0.111184 0)
(0.125221 -0.146092 0)
(0.118848 -0.154392 0)
(0.112187 -0.162632 0)
(0.105246 -0.170813 0)
(0.098038 -0.178947 0)
(0.0905777 -0.187061 0)
(0.0828858 -0.195213 0)
(0.0749862 -0.203497 0)
(0.0669048 -0.212071 0)
(0.0586667 -0.221176 0)
(0.0502915 -0.231177 0)
(0.0417866 -0.2426 0)
(0.0331397 -0.25618 0)
(0.0243125 -0.272898 0)
(0.0152394 -0.29398 0)
(0.00584095 -0.320834 0)
(-0.00393847 -0.354866 0)
(-0.0140524 -0.397082 0)
(-0.0242254 -0.447388 0)
(-0.0337865 -0.503464 0)
(-0.0415193 -0.559217 0)
(-0.0456706 -0.603179 0)
(-0.0443442 -0.61801 0)
(-0.0364718 -0.583359 0)
(-0.0232625 -0.48427 0)
(-0.0093138 -0.322259 0)
(-0.00150209 -0.115908 0)
(0.13507 -0.139725 0)
(0.128408 -0.147725 0)
(0.121438 -0.15567 0)
(0.114166 -0.163567 0)
(0.106607 -0.171431 0)
(0.0987774 -0.179295 0)
(0.0906997 -0.18722 0)
(0.0824006 -0.195304 0)
(0.0739097 -0.203705 0)
(0.0652571 -0.212663 0)
(0.0564683 -0.222533 0)
(0.0475583 -0.233827 0)
(0.0385229 -0.247257 0)
(0.0293314 -0.263776 0)
(0.0199225 -0.284584 0)
(0.0102131 -0.311092 0)
(0.000129539 -0.344757 0)
(-0.0103212 -0.386738 0)
(-0.0209265 -0.437247 0)
(-0.031091 -0.49444 0)
(-0.0396519 -0.552798 0)
(-0.0448277 -0.60126 0)
(-0.044544 -0.622205 0)
(-0.0373907 -0.593703 0)
(-0.0242384 -0.49794 0)
(-0.00978992 -0.33402 0)
(-0.00158366 -0.120862 0)
(0.144967 -0.13308 0)
(0.138017 -0.140757 0)
(0.130737 -0.148388 0)
(0.123137 -0.155981 0)
(0.11523 -0.163556 0)
(0.107036 -0.171153 0)
(0.0985776 -0.178836 0)
(0.0898855 -0.186708 0)
(0.0809924 -0.194929 0)
(0.0719326 -0.203738 0)
(0.0627373 -0.213482 0)
(0.0534279 -0.224659 0)
(0.0440077 -0.237958 0)
(0.0344533 -0.254302 0)
(0.0247079 -0.274864 0)
(0.014686 -0.301041 0)
(0.00429826 -0.334327 0)
(-0.0064853 -0.376013 0)
(-0.0175147 -0.426593 0)
(-0.0282753 -0.484701 0)
(-0.0376709 -0.545444 0)
(-0.0439091 -0.598282 0)
(-0.0447476 -0.625479 0)
(-0.0384125 -0.60362 0)
(-0.0253645 -0.511832 0)
(-0.0103543 -0.346307 0)
(-0.00168154 -0.126088 0)
(0.154898 -0.126158 0)
(0.147663 -0.133493 0)
(0.140079 -0.140788 0)
(0.132156 -0.148058 0)
(0.123909 -0.155328 0)
(0.115359 -0.162642 0)
(0.106531 -0.17007 0)
(0.0974573 -0.17772 0)
(0.0881745 -0.185754 0)
(0.0787206 -0.194411 0)
(0.0691313 -0.204032 0)
(0.0594337 -0.215102 0)
(0.0496376 -0.228288 0)
(0.0397261 -0.24448 0)
(0.0296469 -0.26482 0)
(0.0193134 -0.290683 0)
(0.00862242 -0.32358 0)
(-0.00248996 -0.364912 0)
(-0.0139353 -0.415433 0)
(-0.0252842 -0.474248 0)
(-0.0355209 -0.53713 0)
(-0.0428622 -0.594183 0)
(-0.0449124 -0.627739 0)
(-0.0395164 -0.613026 0)
(-0.0266462 -0.525944 0)
(-0.0110186 -0.359196 0)
(-0.00179852 -0.131637 0)
(0.16485 -0.118963 0)
(0.157337 -0.125936 0)
(0.149458 -0.132879 0)
(0.141222 -0.139809 0)
(0.132648 -0.146757 0)
(0.123756 -0.153774 0)
(0.114575 -0.160935 0)
(0.105139 -0.168353 0)
(0.0954855 -0.176195 0)
(0.0856571 -0.184698 0)
(0.0756928 -0.194199 0)
(0.0656244 -0.20517 0)
(0.055467 -0.218256 0)
(0.045209 -0.234316 0)
(0.0348027 -0.254455 0)
(0.0241606 -0.280017 0)
(0.0131684 -0.312519 0)
(0.001731 -0.353442 0)
(-0.0101228 -0.403774 0)
(-0.0220525 -0.463079 0)
(-0.0331362 -0.527831 0)
(-0.0416231 -0.588895 0)
(-0.0449844 -0.628872 0)
(-0.0406719 -0.621812 0)
(-0.0280852 -0.540254 0)
(-0.0117962 -0.372767 0)
(-0.00193785 -0.137564 0)
(0.174807 -0.111503 0)
(0.167028 -0.118098 0)
(0.158868 -0.124672 0)
(0.150338 -0.131247 0)
(0.141456 -0.137861 0)
(0.132244 -0.144569 0)
(0.122734 -0.151453 0)
(0.112961 -0.158632 0)
(0.102965 -0.166275 0)
(0.0927895 -0.174622 0)
(0.082477 -0.184004 0)
(0.0720622 -0.194882 0)
(0.0615644 -0.207878 0)
(0.0509762 -0.223821 0)
(0.0402533 -0.243775 0)
(0.0293083 -0.269049 0)
(0.0180175 -0.301147 0)
(0.00625791 -0.341608 0)
(-0.00599826 -0.391624 0)
(-0.0185021 -0.451196 0)
(-0.0304387 -0.517522 0)
(-0.0401152 -0.582342 0)
(-0.0448968 -0.628749 0)
(-0.0418379 -0.62984 0)
(-0.0296786 -0.554716 0)
(-0.0127026 -0.387102 0)
(-0.0021036 -0.143931 0)
(0.184755 -0.103792 0)
(0.17673 -0.109995 0)
(0.16831 -0.116187 0)
(0.15951 -0.122395 0)
(0.150348 -0.128664 0)
(0.140849 -0.135053 0)
(0.131044 -0.141653 0)
(0.120969 -0.148586 0)
(0.110666 -0.156027 0)
(0.100181 -0.164214 0)
(0.0895554 -0.173477 0)
(0.078827 -0.184263 0)
(0.0680168 -0.197175 0)
(0.0571204 -0.21301 0)
(0.046096 -0.232791 0)
(0.034856 -0.257782 0)
(0.0232693 -0.289465 0)
(0.0111891 -0.329414 0)
(-0.00146603 -0.378989 0)
(-0.0145398 -0.438599 0)
(-0.0273357 -0.506176 0)
(-0.0382472 -0.574444 0)
(-0.0445679 -0.627222 0)
(-0.0429596 -0.63694 0)
(-0.0314173 -0.569251 0)
(-0.0137567 -0.402278 0)
(-0.00230125 -0.15081 0)
(0.194684 -0.0958524 0)
(0.186439 -0.101652 0)
(0.177792 -0.107451 0)
(0.168757 -0.113285 0)
(0.159355 -0.1192 0)
(0.149609 -0.125265 0)
(0.139553 -0.131575 0)
(0.129224 -0.138257 0)
(0.118663 -0.145491 0)
(0.107914 -0.153516 0)
(0.0970215 -0.162656 0)
(0.0860211 -0.173349 0)
(0.0749346 -0.186177 0)
(0.0637586 -0.201905 0)
(0.0524523 -0.221515 0)
(0.0409278 -0.246224 0)
(0.0290478 -0.277476 0)
(0.0166454 -0.31686 0)
(0.00359037 -0.365869 0)
(-0.0100527 -0.425283 0)
(-0.0237165 -0.493766 0)
(-0.0359101 -0.565114 0)
(-0.0438978 -0.624125 0)
(-0.0439664 -0.642901 0)
(-0.0332841 -0.583736 0)
(-0.0149827 -0.418368 0)
(-0.00253882 -0.158286 0)
(0.204593 -0.0877141 0)
(0.196168 -0.0931029 0)
(0.187337 -0.0985049 0)
(0.178115 -0.103958 0)
(0.168522 -0.109517 0)
(0.158586 -0.115254 0)
(0.148337 -0.12127 0)
(0.137813 -0.127699 0)
(0.127053 -0.134722 0)
(0.116101 -0.142578 0)
(0.104997 -0.15159 0)
(0.0937764 -0.162183 0)
(0.0824584 -0.17492 0)
(0.0710382 -0.190534 0)
(0.0594746 -0.209965 0)
(0.0476783 -0.23438 0)
(0.035507 -0.265179 0)
(0.0227771 -0.303943 0)
(0.00931509 -0.352264 0)
(-0.00490433 -0.411244 0)
(-0.019449 -0.480262 0)
(-0.0329739 -0.55426 0)
(-0.042766 -0.619269 0)
(-0.0447682 -0.647471 0)
(-0.0352514 -0.597999 0)
(-0.0164125 -0.435434 0)
(-0.00282883 -0.166459 0)
(0.214501 -0.0794199 0)
(0.205948 -0.0843959 0)
(0.19699 -0.0893991 0)
(0.187642 -0.0944723 0)
(0.177926 -0.0996742 0)
(0.167869 -0.105084 0)
(0.1575 -0.110805 0)
(0.146854 -0.116978 0)
(0.13597 -0.123785 0)
(0.124887 -0.131466 0)
(0.113641 -0.140339 0)
(0.102262 -0.150818 0)
(0.0907667 -0.163447 0)
(0.0791453 -0.178929 0)
(0.0673541 -0.19816 0)
(0.0553011 -0.222258 0)
(0.0428392 -0.25257 0)
(0.0297715 -0.290654 0)
(0.0158873 -0.338161 0)
(0.00107324 -0.396469 0)
(-0.0143729 -0.465626 0)
(-0.029282 -0.54178 0)
(-0.0410263 -0.612446 0)
(-0.0452514 -0.650348 0)
(-0.0372772 -0.611797 0)
(-0.0180882 -0.453514 0)
(-0.0031915 -0.175454 0)
(0.224457 -0.0710268 0)
(0.215845 -0.0755933 0)
(0.206833 -0.0802015 0)
(0.197439 -0.0848987 0)
(0.187684 -0.089748 0)
(0.177592 -0.0948326 0)
(0.167192 -0.100261 0)
(0.156515 -0.106176 0)
(0.145596 -0.112761 0)
(0.134467 -0.120256 0)
(0.12316 -0.128974 0)
(0.111697 -0.139317 0)
(0.100087 -0.151811 0)
(0.0883151 -0.167129 0)
(0.0763309 -0.186126 0)
(0.0640383 -0.209866 0)
(0.0512849 -0.239644 0)
(0.0378625 -0.276975 0)
(0.0235293 -0.323543 0)
(0.00809201 -0.38094 0)
(-0.00828864 -0.449809 0)
(-0.024647 -0.527564 0)
(-0.038502 -0.603422 0)
(-0.0452723 -0.651172 0)
(-0.0393 -0.62481 0)
(-0.0200645 -0.472609 0)
(-0.00365933 -0.185429 0)
(0.234561 -0.0626099 0)
(0.225977 -0.0667754 0)
(0.217006 -0.0709978 0)
(0.207663 -0.075328 0)
(0.19797 -0.0798324 0)
(0.187948 -0.0845977 0)
(0.177623 -0.0897355 0)
(0.167021 -0.0953896 0)
(0.15617 -0.101745 0)
(0.145097 -0.109039 0)
(0.133822 -0.117578 0)
(0.12236 -0.127755 0)
(0.110709 -0.140074 0)
(0.0988442 -0.15518 0)
(0.0867071 -0.173889 0)
(0.0741939 -0.197213 0)
(0.0611452 -0.226387 0)
(0.0473415 -0.262879 0)
(0.032516 -0.308372 0)
(0.016423 -0.364612 0)
(-0.000944701 -0.432772 0)
(-0.018843 -0.511493 0)
(-0.0349771 -0.591936 0)
(-0.0446484 -0.649522 0)
(-0.0412301 -0.636612 0)
(-0.022407 -0.492664 0)
(-0.00428303 -0.196595 0)
(0.244991 -0.0542641 0)
(0.236544 -0.058043 0)
(0.227727 -0.0618938 0)
(0.218555 -0.0658698 0)
(0.209044 -0.0700401 0)
(0.199215 -0.0744934 0)
(0.189088 -0.0793426 0)
(0.178683 -0.0847322 0)
(0.168019 -0.090846 0)
(0.157114 -0.0979181 0)
(0.145977 -0.106247 0)
(0.13461 -0.116214 0)
(0.123 -0.128305 0)
(0.111107 -0.143135 0)
(0.0988615 -0.16148 0)
(0.0861485 -0.184304 0)
(0.0727988 -0.212781 0)
(0.0585818 -0.248324 0)
(0.0432105 -0.292588 0)
(0.0263859 -0.347418 0)
(0.00795822 -0.414439 0)
(-0.0115704 -0.493426 0)
(-0.0301777 -0.577698 0)
(-0.0431452 -0.644902 0)
(-0.0429366 -0.646654 0)
(-0.0251852 -0.513532 0)
(-0.00513827 -0.209225 0)
(0.256043 -0.0461072 0)
(0.247865 -0.0495185 0)
(0.239337 -0.0530157 0)
(0.230471 -0.0566534 0)
(0.221283 -0.060502 0)
(0.211786 -0.0646507 0)
(0.201994 -0.0692126 0)
(0.19192 -0.0743308 0)
(0.181573 -0.0801862 0)
(0.170959 -0.0870079 0)
(0.160075 -0.095086 0)
(0.148907 -0.104788 0)
(0.137425 -0.11658 0)
(0.125575 -0.13105 0)
(0.113269 -0.148934 0)
(0.100378 -0.171146 0)
(0.0867189 -0.198805 0)
(0.0720466 -0.233259 0)
(0.056055 -0.276122 0)
(0.0384003 -0.329283 0)
(0.0188202 -0.394707 0)
(-0.00246386 -0.473218 0)
(-0.0237651 -0.560385 0)
(-0.0404586 -0.636734 0)
(-0.044228 -0.654233 0)
(-0.0284548 -0.534926 0)
(-0.00633105 -0.223676 0)
(0.268182 -0.0382792 0)
(0.260424 -0.0413453 0)
(0.252338 -0.0445091 0)
(0.243933 -0.0478255 0)
(0.235219 -0.0513647 0)
(0.226205 -0.0552149 0)
(0.216896 -0.0594876 0)
(0.207296 -0.0643227 0)
(0.197404 -0.0698966 0)
(0.18721 -0.0764313 0)
(0.176697 -0.0842067 0)
(0.165835 -0.0935754 0)
(0.154574 -0.104982 0)
(0.142839 -0.118986 0)
(0.130524 -0.136285 0)
(0.117477 -0.157746 0)
(0.103497 -0.184428 0)
(0.0883189 -0.217619 0)
(0.0716167 -0.258874 0)
(0.0530087 -0.310082 0)
(0.0321325 -0.373439 0)
(0.00894183 -0.450691 0)
(-0.0152861 -0.539633 0)
(-0.0361859 -0.62435 0)
(-0.0448218 -0.65847 0)
(-0.0322226 -0.556366 0)
(-0.00799735 -0.240393 0)
(0.282113 -0.0309394 0)
(0.27494 -0.0336837 0)
(0.26746 -0.0365341 0)
(0.259678 -0.0395449 0)
(0.251598 -0.0427844 0)
(0.243221 -0.0463386 0)
(0.234545 -0.0503153 0)
(0.225562 -0.0548498 0)
(0.21626 -0.0601116 0)
(0.206614 -0.0663135 0)
(0.19659 -0.0737228 0)
(0.186139 -0.0826754 0)
(0.175188 -0.0935931 0)
(0.163642 -0.107004 0)
(0.151365 -0.123569 0)
(0.138183 -0.144104 0)
(0.123866 -0.169614 0)
(0.108126 -0.201321 0)
(0.0906064 -0.24072 0)
(0.0708902 -0.289663 0)
(0.0485304 -0.350473 0)
(0.0232609 -0.425628 0)
(-0.00415823 -0.51508 0)
(-0.0297978 -0.607001 0)
(-0.0443014 -0.658279 0)
(-0.03639 -0.577105 0)
(-0.0102873 -0.25991 0)
(0.298863 -0.0242582 0)
(0.292443 -0.0267015 0)
(0.285732 -0.0292556 0)
(0.278729 -0.0319722 0)
(0.271434 -0.0349171 0)
(0.26384 -0.0381721 0)
(0.255936 -0.0418398 0)
(0.247703 -0.0460487 0)
(0.239114 -0.0509593 0)
(0.230131 -0.056773 0)
(0.220702 -0.063742 0)
(0.210756 -0.0721825 0)
(0.200198 -0.082491 0)
(0.188903 -0.0951631 0)
(0.17671 -0.110818 0)
(0.163409 -0.130222 0)
(0.148738 -0.154321 0)
(0.132371 -0.184277 0)
(0.113917 -0.221514 0)
(0.0929161 -0.267829 0)
(0.0688506 -0.325581 0)
(0.0412613 -0.397763 0)
(0.0103716 -0.48632 0)
(-0.0205557 -0.583834 0)
(-0.0420532 -0.65234 0)
(-0.0406736 -0.596035 0)
(-0.01332 -0.282793 0)
(0.319868 -0.0184013 0)
(0.314349 -0.0205591 0)
(0.308549 -0.0228274 0)
(0.302461 -0.025255 0)
(0.296078 -0.0279031 0)
(0.289387 -0.0308483 0)
(0.282365 -0.0341864 0)
(0.274986 -0.0380368 0)
(0.267207 -0.0425492 0)
(0.258977 -0.0479105 0)
(0.250224 -0.0543552 0)
(0.240855 -0.0621764 0)
(0.230752 -0.0717415 0)
(0.219759 -0.0835101 0)
(0.207682 -0.0980558 0)
(0.194273 -0.116093 0)
(0.179226 -0.138505 0)
(0.16217 -0.166387 0)
(0.142661 -0.201096 0)
(0.120186 -0.244357 0)
(0.0941559 -0.298499 0)
(0.063948 -0.366814 0)
(0.0293173 -0.452908 0)
(-0.00747335 -0.553985 0)
(-0.0371901 -0.639061 0)
(-0.044505 -0.611548 0)
(-0.0170943 -0.309498 0)
(0.347052 -0.0135065 0)
(0.342539 -0.0153857 0)
(0.337745 -0.0173706 0)
(0.332658 -0.0195055 0)
(0.327266 -0.0218466 0)
(0.321547 -0.0244636 0)
(0.315473 -0.0274436 0)
(0.309004 -0.0308956 0)
(0.302088 -0.0349556 0)
(0.294656 -0.0397938 0)
(0.286621 -0.0456231 0)
(0.277868 -0.0527101 0)
(0.268252 -0.0613886 0)
(0.257588 -0.0720768 0)
(0.245644 -0.085298 0)
(0.232129 -0.101706 0)
(0.216686 -0.122119 0)
(0.198885 -0.147556 0)
(0.178215 -0.179302 0)
(0.154086 -0.219005 0)
(0.12583 -0.268922 0)
(0.0926859 -0.332435 0)
(0.0539851 -0.41437 0)
(0.0107941 -0.516535 0)
(-0.0283438 -0.616513 0)
(-0.0469045 -0.621379 0)
(-0.0213534 -0.340112 0)
(0.382855 -0.00965174 0)
(0.379374 -0.0112498 0)
(0.375604 -0.0129444 0)
(0.37153 -0.0147748 0)
(0.367132 -0.0167908 0)
(0.362385 -0.0190541 0)
(0.357252 -0.021642 0)
(0.351684 -0.0246507 0)
(0.345619 -0.0282005 0)
(0.338975 -0.0324418 0)
(0.331647 -0.0375626 0)
(0.323502 -0.0437986 0)
(0.314367 -0.051445 0)
(0.304029 -0.060872 0)
(0.292216 -0.0725453 0)
(0.278592 -0.0870502 0)
(0.262742 -0.105126 0)
(0.244164 -0.127708 0)
(0.222265 -0.155995 0)
(0.196351 -0.191552 0)
(0.165653 -0.236546 0)
(0.129261 -0.294296 0)
(0.0861344 -0.370336 0)
(0.0361944 -0.47057 0)
(-0.0134733 -0.582616 0)
(-0.0463653 -0.622603 0)
(-0.0254026 -0.374194 0)
(0.430153 -0.00682012 0)
(0.427622 -0.00812688 0)
(0.424791 -0.00951756 0)
(0.421639 -0.0110258 0)
(0.418145 -0.0126941 0)
(0.414276 -0.0145752 0)
(0.409992 -0.0167348 0)
(0.405237 -0.019255 0)
(0.399938 -0.0222382 0)
(0.394003 -0.0258121 0)
(0.387312 -0.0301367 0)
(0.379715 -0.0354119 0)
(0.371017 -0.0418889 0)
(0.360974 -0.0498829 0)
(0.349281 -0.0597927 0)
(0.335551 -0.0721229 0)
(0.319313 -0.0875198 0)
(0.299981 -0.106814 0)
(0.276868 -0.131102 0)
(0.249145 -0.161845 0)
(0.215906 -0.201115 0)
(0.176047 -0.25209 0)
(0.128257 -0.320496 0)
(0.0714368 -0.41531 0)
(0.0103914 -0.535409 0)
(-0.0405775 -0.611828 0)
(-0.0278403 -0.410861 0)
(0.491996 -0.00487064 0)
(0.49021 -0.00587394 0)
(0.488114 -0.00694636 0)
(0.485687 -0.00811523 0)
(0.482903 -0.00941499 0)
(0.479729 -0.0108884 0)
(0.476118 -0.0125888 0)
(0.472009 -0.0145824 0)
(0.467324 -0.0169518 0)
(0.46196 -0.0197999 0)
(0.455789 -0.0232553 0)
(0.448644 -0.0274784 0)
(0.440315 -0.0326713 0)
(0.430533 -0.039087 0)
(0.418963 -0.047048 0)
(0.405176 -0.0569636 0)
(0.388647 -0.0693684 0)
(0.368705 -0.0849597 0)
(0.344562 -0.104694 0)
(0.315215 -0.129885 0)
(0.279593 -0.162496 0)
(0.236295 -0.205535 0)
(0.183876 -0.264568 0)
(0.120226 -0.350231 0)
(0.047539 -0.47294 0)
(-0.0260437 -0.585359 0)
(-0.0260282 -0.447974 0)
(0.5711 -0.00353095 0)
(0.569752 -0.00422617 0)
(0.568099 -0.0049745 0)
(0.56612 -0.00579643 0)
(0.563787 -0.00671782 0)
(0.561065 -0.00777075 0)
(0.557903 -0.00899508 0)
(0.554239 -0.0104402 0)
(0.54999 -0.0121676 0)
(0.545048 -0.0142535 0)
(0.539277 -0.0167932 0)
(0.532504 -0.019905 0)
(0.524508 -0.0237377 0)
(0.515006 -0.028477 0)
(0.503648 -0.0343615 0)
(0.489974 -0.041692 0)
(0.473429 -0.0508719 0)
(0.453262 -0.062428 0)
(0.428613 -0.0771245 0)
(0.398263 -0.0960363 0)
(0.360963 -0.120918 0)
(0.314797 -0.154535 0)
(0.258233 -0.202184 0)
(0.188004 -0.274713 0)
(0.10402 -0.39264 0)
(0.00313428 -0.537096 0)
(-0.0141226 -0.477627 0)
(0.669152 -0.00244339 0)
(0.667928 -0.00284572 0)
(0.666431 -0.00328455 0)
(0.66464 -0.00377327 0)
(0.662527 -0.0043288 0)
(0.660054 -0.00497213 0)
(0.657172 -0.00572929 0)
(0.653817 -0.00663233 0)
(0.649905 -0.00772112 0)
(0.645329 -0.00904469 0)
(0.639954 -0.0106644 0)
(0.633605 -0.0126554 0)
(0.626066 -0.015113 0)
(0.617053 -0.0181539 0)
(0.606227 -0.0219302 0)
(0.59312 -0.0266292 0)
(0.577198 -0.0325119 0)
(0.557667 -0.0399078 0)
(0.533686 -0.0493374 0)
(0.503816 -0.0615151 0)
(0.466747 -0.0777859 0)
(0.419712 -0.10031 0)
(0.36102 -0.133889 0)
(0.285027 -0.188158 0)
(0.190665 -0.290019 0)
(0.0594164 -0.452447 0)
(0.0208875 -0.477073 0)
(0.786302 -0.0013492 0)
(0.785077 -0.0015101 0)
(0.783648 -0.00169113 0)