/*--------------------------------*- C++ -*----------------------------------*\
  =========                 |
  \\      /  F ield         | OpenFOAM: The Open Source CFD Toolbox
   \\    /   O peration     | Website:  https://openfoam.org
    \\  /    A nd           | Version:  9
     \\/     M anipulation  |
\*---------------------------------------------------------------------------*/
FoamFile
{
    format      ascii;
    class       volScalarField;
    location    "2";
    object      p;
}
// * * * * * * * * * * * * * * * * * * * * * * * * * * * * * * * * * * * * * //

dimensions      [0 2 -2 0 0 0 0];

internalField   nonuniform List<scalar> 
1260
(
-0.102114
-0.10315
-0.104079
-0.104897
-0.105603
-0.106195
-0.106671
-0.107029
-0.10727
-0.107393
-0.107397
-0.107283
-0.107052
-0.106705
-0.106243
-0.105668
-0.104983
-0.10419
-0.103291
-0.102291
-0.101192
-0.0999975
-0.0987125
-0.0973412
-0.0958883
-0.0943592
-0.102219
-0.10326
-0.104192
-0.105014
-0.105723
-0.106318
-0.106796
-0.107156
-0.107398
-0.107521
-0.107526
-0.107411
-0.107179
-0.10683
-0.106366
-0.105788
-0.105099
-0.104302
-0.103399
-0.102393
-0.101288
-0.100088
-0.0987966
-0.0974189
-0.0959596
-0.0944241
-0.102206
-0.103251
-0.104187
-0.105012
-0.105724
-0.106321
-0.106802
-0.107164
-0.107407
-0.107531
-0.107535
-0.10742
-0.107186
-0.106835
-0.106368
-0.105787
-0.105094
-0.104292
-0.103384
-0.102372
-0.101261
-0.100055
-0.0987565
-0.0973717
-0.0959051
-0.0943623
-0.102075
-0.103123
-0.104063
-0.104892
-0.105607
-0.106207
-0.106689
-0.107053
-0.107297
-0.107422
-0.107426
-0.10731
-0.107075
-0.106721
-0.106251
-0.105667
-0.104969
-0.104162
-0.103248
-0.10223
-0.101112
-0.0998983
-0.0985925
-0.0971997
-0.0957249
-0.0941738
-0.101825
-0.102878
-0.103822
-0.104654
-0.105372
-0.105975
-0.106459
-0.106825
-0.10707
-0.107195
-0.107199
-0.107082
-0.106845
-0.106489
-0.106016
-0.105427
-0.104725
-0.103913
-0.102992
-0.101967
-0.100842
-0.0996198
-0.0983054
-0.0969035
-0.0954194
-0.0938588
-0.101458
-0.102516
-0.103463
-0.104299
-0.105021
-0.105626
-0.106113
-0.106481
-0.106727
-0.106852
-0.106856
-0.106738
-0.1065
-0.106141
-0.105664
-0.105071
-0.104364
-0.103545
-0.102618
-0.101585
-0.100452
-0.0992203
-0.0978962
-0.0964842
-0.0949896
-0.0934182
-0.100975
-0.102037
-0.10299
-0.10383
-0.104555
-0.105163
-0.105653
-0.106022
-0.10627
-0.106396
-0.106399
-0.10628
-0.10604
-0.105678
-0.105198
-0.1046
-0.103887
-0.103062
-0.102127
-0.101086
-0.0999429
-0.0987016
-0.0973667
-0.0959433
-0.0944368
-0.0928532
-0.100377
-0.101444
-0.102401
-0.103246
-0.103975
-0.104587
-0.10508
-0.105451
-0.105701
-0.105827
-0.10583
-0.10571
-0.105468
-0.105103
-0.104619
-0.104016
-0.103297
-0.102465
-0.101522
-0.100472
-0.0993181
-0.0980657
-0.0967189
-0.0952828
-0.093763
-0.0921657
-0.0996643
-0.100738
-0.101701
-0.102551
-0.103285
-0.1039
-0.104396
-0.10477
-0.105021
-0.105149
-0.105152
-0.105031
-0.104786
-0.104419
-0.10393
-0.103322
-0.102597
-0.101757
-0.100805
-0.0997444
-0.0985799
-0.0973152
-0.0959552
-0.094505
-0.0929704
-0.0913577
-0.0988395
-0.0999202
-0.10089
-0.101745
-0.102485
-0.103105
-0.103605
-0.103982
-0.104235
-0.104364
-0.104367
-0.104245
-0.103999
-0.103628
-0.103135
-0.102521
-0.101789
-0.10094
-0.0999789
-0.0989078
-0.0977311
-0.0964531
-0.0950786
-0.0936129
-0.0920619
-0.090432
-0.097904
-0.098993
-0.0999702
-0.100833
-0.101578
-0.102204
-0.102708
-0.103089
-0.103345
-0.103475
-0.103479
-0.103356
-0.103108
-0.102734
-0.102237
-0.101617
-0.100877
-0.10002
-0.099048
-0.0979651
-0.0967753
-0.0954827
-0.0940924
-0.0926097
-0.0910407
-0.0893919
-0.0968597
-0.0979583
-0.0989443
-0.099815
-0.100568
-0.1012
-0.101709
-0.102094
-0.102353
-0.102486
-0.102491
-0.102368
-0.102118
-0.101741
-0.101239
-0.100613
-0.099865
-0.0989983
-0.0980156
-0.0969202
-0.0957162
-0.094408
-0.0930005
-0.0914994
-0.0899107
-0.0882412
-0.0957084
-0.0968182
-0.0978146
-0.0986947
-0.0994557
-0.100095
-0.100611
-0.101001
-0.101265
-0.1014
-0.101406
-0.101283
-0.101031
-0.100652
-0.100145
-0.0995124
-0.0987568
-0.0978802
-0.0968859
-0.0957772
-0.094558
-0.093233
-0.0918072
-0.0902861
-0.0886761
-0.0869842
-0.0944524
-0.0955752
-0.0965835
-0.0974746
-0.0982455
-0.0988937
-0.0994171
-0.0998136
-0.100082
-0.10022
-0.100229
-0.100106
-0.0998534
-0.0994708
-0.0989593
-0.0983206
-0.0975566
-0.0966699
-0.0956634
-0.0945406
-0.0933055
-0.0919627
-0.0905172
-0.0889748
-0.087342
-0.0856258
-0.0930937
-0.0942315
-0.0952538
-0.0961575
-0.0969399
-0.0975984
-0.0981305
-0.0985345
-0.0988086
-0.0989516
-0.0989626
-0.0988414
-0.098588
-0.0982028
-0.0976869
-0.0970418
-0.0962694
-0.0953722
-0.0943531
-0.0932156
-0.0919637
-0.0906021
-0.0891358
-0.0875709
-0.0859137
-0.0841716
-0.091635
-0.0927899
-0.0938282
-0.0947466
-0.0955423
-0.0962126
-0.0967551
-0.0971679
-0.0974491
-0.0975976
-0.0976124
-0.097493
-0.0972395
-0.0968523
-0.0963323
-0.0956809
-0.0949001
-0.0939922
-0.0929602
-0.0918075
-0.0905382
-0.089157
-0.087669
-0.0860802
-0.0843974
-0.082628
-0.0807803
-0.0788635
-0.0768879
-0.0900786
-0.0912532
-0.0923097
-0.0932449
-0.0940559
-0.0947399
-0.0952945
-0.0957176
-0.0960075
-0.0961627
-0.0961822
-0.0960656
-0.0958128
-0.0954242
-0.0949005
-0.0942432
-0.093454
-0.0925355
-0.0914904
-0.0903222
-0.0890351
-0.0876336
-0.086123
-0.0845096
-0.0827999
-0.0810019
-0.0791238
-0.0771753
-0.0751668
-0.0884277
-0.0896245
-0.0907017
-0.0916561
-0.0924845
-0.0931843
-0.0937529
-0.0941881
-0.094488
-0.0946513
-0.0946769
-0.0945642
-0.094313
-0.0939237
-0.093397
-0.0927342
-0.0919371
-0.0910081
-0.08995
-0.0887662
-0.0874609
-0.0860387
-0.0845051
-0.0828662
-0.0811289
-0.0793011
-0.0773915
-0.0754099
-0.0733669
-0.0866857
-0.0879074
-0.0890079
-0.0899838
-0.0908321
-0.0915499
-0.0921344
-0.0925836
-0.0928954
-0.0930684
-0.0931015
-0.092994
-0.0927456
-0.0923565
-0.0918276
-0.0911601
-0.0903556
-0.0894165
-0.0883456
-0.0871464
-0.085823
-0.08438
-0.082823
-0.0811582
-0.0793927
-0.0775345
-0.0755924
-0.0735765
-0.0714978
-0.0848567
-0.0861059
-0.0872324
-0.0882326
-0.0891032
-0.0898412
-0.090444
-0.0909092
-0.0912348
-0.0914193
-0.0914615
-0.0913606
-0.0911163
-0.0907288
-0.0901987
-0.0895274
-0.0887163
-0.0877678
-0.0866847
-0.0854705
-0.0841292
-0.0826657
-0.0810853
-0.0793946
-0.0776007
-0.0757116
-0.0737365
-0.0716857
-0.0695702
-0.0829452
-0.0842248
-0.08538
-0.0864071
-0.0873026
-0.0880635
-0.0886868
-0.0891703
-0.0895118
-0.0897098
-0.0897628
-0.0896702
-0.0894316
-0.089047
-0.0885172
-0.0878432
-0.0870266
-0.0860697
-0.0849753
-0.0837468
-0.0823884
-0.0809048
-0.0793016
-0.0775852
-0.075763
-0.0738432
-0.071835
-0.0697488
-0.0675961
-0.080957
-0.0822698
-0.0834566
-0.0845133
-0.0854364
-0.0862226
-0.086869
-0.0873731
-0.0877327
-0.0879462
-0.0880122
-0.0879298
-0.0876986
-0.0873187
-0.0867905
-0.0861153
-0.0852946
-0.0843307
-0.0832262
-0.0819846
-0.08061
-0.0791073
-0.0774822
-0.075741
-0.0738912
-0.0719411
-0.0699002
-0.0677788
-0.0655887
-0.0788989
-0.0802476
-0.0814687
-0.0825577
-0.083511
-0.0843252
-0.0849972
-0.0855244
-0.0859046
-0.0861359
-0.0862169
-0.0861468
-0.0859251
-0.0855517
-0.0850272
-0.0843525
-0.0835294
-0.08256
-0.081447
-0.0801938
-0.0788046
-0.0772843
-0.0756385
-0.0738738
-0.0719975
-0.0700182
-0.0679454
-0.0657896
-0.0635626
-0.0767791
-0.0781663
-0.0794242
-0.0805483
-0.0815345
-0.0823793
-0.0830795
-0.0836323
-0.0840354
-0.084287
-0.0843855
-0.0843299
-0.0841198
-0.0837551
-0.0832363
-0.0825643
-0.0817408
-0.0807679
-0.0796484
-0.0783856
-0.0769837
-0.0754477
-0.0737831
-0.0719966
-0.0700956
-0.0680887
-0.0659855
-0.0637965
-0.0615335
-0.0746071
-0.0760352
-0.0773325
-0.0784941
-0.0795159
-0.0803939
-0.0811248
-0.0817058
-0.0821345
-0.0824087
-0.0825271
-0.0824886
-0.0822926
-0.081939
-0.0814282
-0.0807613
-0.0799397
-0.0789657
-0.077842
-0.076572
-0.0751598
-0.0736104
-0.0719294
-0.0701235
-0.0682001
-0.0661678
-0.0640361
-0.0618157
-0.0595183
-0.0723943
-0.0738654
-0.0752044
-0.076406
-0.0774656
-0.0783793
-0.0791436
-0.0797553
-0.0802121
-0.0805116
-0.0806525
-0.0806335
-0.0804542
-0.0801142
-0.0796142
-0.0789549
-0.0781381
-0.0771657
-0.0760406
-0.0747662
-0.0733465
-0.0717866
-0.0700921
-0.0682696
-0.0663266
-0.0642717
-0.0621142
-0.0598647
-0.057535
-0.0701538
-0.0716698
-0.0730525
-0.0742961
-0.0753959
-0.0763477
-0.0771476
-0.0777926
-0.0782799
-0.0786074
-0.0787734
-0.0787767
-0.0786167
-0.0782932
-0.0778067
-0.077158
-0.0763488
-0.0753812
-0.0742578
-0.0729822
-0.0715584
-0.0699913
-0.0682867
-0.0664511
-0.0644919
-0.0624175
-0.0602373
-0.0579617
-0.0556022
-0.0679004
-0.0694629
-0.0708909
-0.0721785
-0.0733204
-0.0743123
-0.0751503
-0.0758308
-0.0763512
-0.0767091
-0.0769028
-0.0769311
-0.0767933
-0.0764893
-0.0760195
-0.0753844
-0.074586
-0.0736264
-0.0725083
-0.071235
-0.0698107
-0.0682403
-0.0665294
-0.0646845
-0.0627129
-0.0606229
-0.0584237
-0.0561254
-0.053739
-0.0656509
-0.0672609
-0.0687356
-0.0700685
-0.0712544
-0.0722883
-0.0731662
-0.0738845
-0.0744402
-0.074831
-0.0750551
-0.0751111
-0.0749983
-0.0747165
-0.0742661
-0.0736485
-0.0728645
-0.0719165
-0.0708073
-0.0695403
-0.0681196
-0.06655
-0.064837
-0.062987
-0.0610073
-0.0589058
-0.0566915
-0.0543742
-0.0519644
-0.0634234
-0.0650816
-0.0666039
-0.0679834
-0.0692144
-0.070292
-0.0712116
-0.0719696
-0.0725628
-0.0729888
-0.0732456
-0.0733319
-0.073247
-0.0729907
-0.0725633
-0.0719659
-0.0711998
-0.0702672
-0.0691709
-0.0679142
-0.0665012
-0.0649367
-0.0632261
-0.0613756
-0.0593922
-0.0572837
-0.0550585
-0.052726
-0.0502961
-0.0612373
-0.062944
-0.0645144
-0.0659412
-0.0672184
-0.0683408
-0.0693036
-0.0701029
-0.0707354
-0.0711986
-0.0714906
-0.0716098
-0.0715555
-0.0713275
-0.0709261
-0.0703523
-0.0696077
-0.0686942
-0.0676147
-0.0663726
-0.0649717
-0.0634167
-0.0617129
-0.0598664
-0.0578839
-0.0557726
-0.0535407
-0.0511969
-0.0487504
-0.0591131
-0.0608681
-0.0624868
-0.0639612
-0.0652852
-0.0664531
-0.0674601
-0.068302
-0.0689755
-0.0694777
-0.0698067
-0.069961
-0.0699398
-0.0697429
-0.0693705
-0.0688237
-0.0681039
-0.0672132
-0.0661543
-0.0649306
-0.0635459
-0.0620047
-0.0603121
-0.058474
-0.0564965
-0.0543867
-0.052152
-0.0498005
-0.0473405
-0.0570717
-0.0588745
-0.060541
-0.062063
-0.0634338
-0.0646477
-0.0656995
-0.0665849
-0.0673004
-0.067843
-0.0682108
-0.0684021
-0.0684161
-0.0682526
-0.0679118
-0.0673947
-0.0667028
-0.0658383
-0.0648035
-0.0636018
-0.0622371
-0.0607135
-0.059036
-0.05721
-0.0552414
-0.0531366
-0.0509025
-0.0485463
-0.0460753
-0.055134
-0.0569836
-0.0586971
-0.060266
-0.0616833
-0.062943
-0.0640397
-0.064969
-0.0657271
-0.0663111
-0.0667187
-0.0669484
-0.0669993
-0.066871
-0.066564
-0.0660789
-0.0654175
-0.0645816
-0.0635737
-0.0623971
-0.0610552
-0.0595524
-0.057893
-0.0560822
-0.0541254
-0.0520285
-0.0497975
-0.0474387
-0.0449585
-0.05332
-0.0552149
-0.0569742
-0.0585888
-0.0600516
-0.0613564
-0.0624975
-0.0634704
-0.0642711
-0.0648966
-0.0653445
-0.0656133
-0.0657019
-0.0656101
-0.065338
-0.0648865
-0.0642571
-0.0634516
-0.0624725
-0.0613228
-0.060006
-0.0585258
-0.0568867
-0.0550931
-0.05315
-0.0510626
-0.0488362
-0.0464762
-0.0439875
-0.051648
-0.0535863
-0.0553893
-0.0570478
-0.0585545
-0.0599029
-0.0610872
-0.0621026
-0.062945
-0.0636114
-0.0640991
-0.0644067
-0.064533
-0.0644775
-0.0642406
-0.0638231
-0.0632261
-0.0624517
-0.0615021
-0.0603801
-0.059089
-0.0576324
-0.0560142
-0.0542386
-0.0523098
-0.0502325
-0.0480112
-0.04565
-0.0431529
-0.050133
-0.0521118
-0.0539559
-0.0556558
-0.0572038
-0.0585935
-0.0598187
-0.0608745
-0.0617567
-0.0624621
-0.0629881
-0.063333
-0.0634956
-0.0634754
-0.0632727
-0.0628881
-0.0623228
-0.0615787
-0.0606579
-0.059563
-0.0582971
-0.0568633
-0.0552656
-0.0535076
-0.0515928
-0.049525
-0.047308
-0.0449451
-0.0424387
-0.0487843
-0.0507999
-0.0526815
-0.0544191
-0.056005
-0.0574323
-0.0586951
-0.059788
-0.0607069
-0.0614484
-0.0620098
-0.0623893
-0.0625856
-0.0625983
-0.0624274
-0.0620736
-0.0615379
-0.0608221
-0.0599282
-0.0588587
-0.0576163
-0.0562039
-0.0546246
-0.0528827
-0.0509805
-0.048921
-0.0467071
-0.0443411
-0.0418242
-0.0476027
-0.0496505
-0.0515648
-0.0533354
-0.0549545
-0.0564151
-0.0577109
-0.0588367
-0.059788
-0.0605615
-0.0611543
-0.0615646
-0.061791
-0.061833
-0.0616906
-0.0613643
-0.0608551
-0.0601647
-0.059295
-0.0582481
-0.0570268
-0.0556336
-0.0540716
-0.0523426
-0.0504509
-0.0483981
-0.0461859
-0.0438156
-0.0412869
-0.0465779
-0.0486524
-0.0505939
-0.0523921
-0.054039
-0.0555274
-0.0568511
-0.0580046
-0.0589835
-0.0597842
-0.0604038
-0.0608405
-0.0610928
-0.0611601
-0.0610423
-0.06074
-0.0602539
-0.0595857
-0.0587371
-0.0577101
-0.0565071
-0.0551306
-0.0535829
-0.0518664
-0.0499831
-0.0479353
-0.0457237
-0.0433481
-0.0408071
-0.0456886
-0.0477841
-0.0497471
-0.0515672
-0.0532364
-0.0547473
-0.0560936
-0.0572699
-0.0582715
-0.0590947
-0.0597369
-0.0601958
-0.06047
-0.0605589
-0.0604623
-0.0601806
-0.0597147
-0.0590658
-0.0582358
-0.0572264
-0.0560398
-0.0546782
-0.0531435
-0.0514377
-0.049562
-0.0475185
-0.0453071
-0.0429263
-0.0403734
-0.0449096
-0.0470208
-0.0490004
-0.0508377
-0.0525245
-0.0540535
-0.0554182
-0.0566131
-0.0576336
-0.0584759
-0.0591372
-0.0596151
-0.0599084
-0.0600163
-0.0599384
-0.0596751
-0.0592271
-0.0585958
-0.0577826
-0.0567896
-0.0556185
-0.054271
-0.0527488
-0.0510543
-0.0491858
-0.0471469
-0.0449363
-0.0425515
-0.0399887
-0.0442257
-0.0463496
-0.0483427
-0.0501944
-0.0518961
-0.0534406
-0.0548213
-0.0560327
-0.0570699
-0.0579293
-0.0586078
-0.0591032
-0.059414
-0.0595393
-0.0594789
-0.0592329
-0.058802
-0.0581872
-0.0573897
-0.056412
-0.055256
-0.0539227
-0.0524117
-0.0507261
-0.0488697
-0.046838
-0.04463
-0.0422437
-0.0396745
-0.0436006
-0.0457402
-0.0477497
-0.0496185
-0.0513378
-0.0529004
-0.0542995
-0.0555296
-0.0565857
-0.0574642
-0.0581618
-0.0586764
-0.0590063
-0.0591506
-0.059109
-0.0588818
-0.0584694
-0.0578727
-0.057092
-0.0561293
-0.0549876
-0.0536682
-0.0521734
-0.0505028
-0.0486566
-0.0466335
-0.0444318
-0.0420491
-0.0394798
-0.0429294
-0.0450982
-0.0471371
-0.0490355
-0.0507844
-0.0523764
-0.0538047
-0.0550637
-0.0561484
-0.0570549
-0.0577801
-0.0583217
-0.0586779
-0.0588478
-0.0588311
-0.0586277
-0.0582386
-0.0576652
-0.0569097
-0.0559715
-0.0548494
-0.053548
-0.0520703
-0.050416
-0.0485847
-0.0465756
-0.044387
-0.0420157
-0.0394561
)
;

boundaryField
{
    movingWall
    {
        type            zeroGradient;
    }
    fixedWalls
    {
        type            zeroGradient;
    }
    frontAndBack
    {
        type            empty;
    }
    procBoundary5to2
    {
        type            processor;
        value           nonuniform List<scalar> 
29
(
-0.0887893
-0.0871149
-0.0853467
-0.0834887
-0.0815454
-0.0795226
-0.0774272
-0.0752676
-0.0730536
-0.0707968
-0.0685106
-0.0662103
-0.063913
-0.0616371
-0.0594026
-0.0572304
-0.0551418
-0.053158
-0.0512995
-0.0495851
-0.0480305
-0.0466457
-0.0454325
-0.0443817
-0.0434722
-0.0426781
-0.0419824
-0.0413423
-0.040642
)
;
    }
    procBoundary5to3
    {
        type            processor;
        value           nonuniform List<scalar> 
21
(
-0.10189
-0.102923
-0.103847
-0.104662
-0.105364
-0.100972
-0.101073
-0.101056
-0.10092
-0.100666
-0.100295
-0.0998065
-0.0992022
-0.0984831
-0.0976507
-0.0967063
-0.0956516
-0.0944883
-0.0932183
-0.0918437
-0.0903665
)
;
    }
    procBoundary5to4
    {
        type            processor;
        value           nonuniform List<scalar> 
48
(
-0.0927594
-0.0928181
-0.0927491
-0.0925523
-0.0922279
-0.0917765
-0.0911991
-0.0904975
-0.0896737
-0.0887304
-0.0876707
-0.0864984
-0.0852179
-0.0838341
-0.0823528
-0.0823528
-0.0804661
-0.0785216
-0.0748646
-0.0731098
-0.0712744
-0.0693682
-0.0674024
-0.0653893
-0.0633426
-0.0612772
-0.0592095
-0.0571568
-0.0551376
-0.0531711
-0.0512767
-0.0494736
-0.0477798
-0.0462112
-0.0447809
-0.0434972
-0.0423632
-0.0413753
-0.0405233
-0.0397907
-0.0391566
-0.0385985
-0.0380976
-0.0376438
-0.0372416
-0.0369149
-0.0367158
-0.0366997
)
;
    }
    procBoundary5to6
    {
        type            processor;
        value           nonuniform List<scalar> 
21
(
-0.105953
-0.106426
-0.106783
-0.107023
-0.107144
-0.107148
-0.107035
-0.106805
-0.106459
-0.105999
-0.105428
-0.104746
-0.103956
-0.103062
-0.102066
-0.100972
-0.0997835
-0.0985042
-0.0971386
-0.0956916
-0.0941682
)
;
    }
}


// ************************************************************************* //
