/*--------------------------------*- C++ -*----------------------------------*\
  =========                 |
  \\      /  F ield         | OpenFOAM: The Open Source CFD Toolbox
   \\    /   O peration     | Website:  https://openfoam.org
    \\  /    A nd           | Version:  9
     \\/     M anipulation  |
\*---------------------------------------------------------------------------*/
FoamFile
{
    format      ascii;
    class       surfaceScalarField;
    location    "2";
    object      phi;
}
// * * * * * * * * * * * * * * * * * * * * * * * * * * * * * * * * * * * * * //

dimensions      [0 3 -1 0 0 0 0];

internalField   nonuniform List<scalar> 
2446
(
-9.51461e-08
1.02464e-06
-1.03445e-07
9.17082e-07
-1.12111e-07
8.08771e-07
-1.21171e-07
6.99731e-07
-1.3065e-07
5.90002e-07
-1.40571e-07
4.79643e-07
-1.50951e-07
3.68727e-07
-1.61803e-07
2.57335e-07
-1.73136e-07
1.45549e-07
-1.84958e-07
3.34493e-08
-1.97274e-07
-7.88844e-08
-2.10085e-07
-1.91377e-07
-2.23388e-07
-3.0396e-07
-2.3718e-07
-4.1657e-07
-2.5145e-07
-5.29152e-07
-2.66186e-07
-6.41657e-07
-2.81371e-07
-7.54045e-07
-2.96982e-07
-8.66277e-07
-3.1299e-07
-9.78321e-07
-3.29362e-07
-1.09014e-06
-3.46055e-07
-1.2017e-06
-3.63021e-07
-1.31295e-06
-3.80203e-07
-1.42383e-06
-3.97537e-07
-1.53426e-06
-4.14952e-07
-1.64414e-06
-1.75333e-06
1.00925e-08
1.032e-06
2.33791e-09
9.24836e-07
-5.85186e-09
8.1696e-07
-1.45107e-08
7.0839e-07
-2.36679e-08
5.9916e-07
-3.33496e-08
4.89325e-07
-4.3576e-08
3.78953e-07
-5.43623e-08
2.68121e-07
-6.57201e-08
1.56907e-07
-7.7658e-08
4.53871e-08
-9.01811e-08
-6.63613e-08
-1.03291e-07
-1.78267e-07
-1.16987e-07
-2.90265e-07
-1.31263e-07
-4.02294e-07
-1.4611e-07
-5.14305e-07
-1.61515e-07
-6.26252e-07
-1.77461e-07
-7.38099e-07
-1.93926e-07
-8.49813e-07
-2.10881e-07
-9.61366e-07
-2.28294e-07
-1.07273e-06
-2.46124e-07
-1.18387e-06
-2.64325e-07
-1.29475e-06
-2.82842e-07
-1.40531e-06
-3.01613e-07
-1.51549e-06
-3.2057e-07
-1.62518e-06
-1.73426e-06
1.15742e-07
1.03872e-06
1.08556e-07
9.32023e-07
1.00865e-07
8.24651e-07
9.26306e-08
7.16624e-07
8.38188e-08
6.07972e-07
7.43999e-08
4.98744e-07
6.43503e-08
3.89003e-07
5.36521e-08
2.78819e-07
4.22913e-08
1.68267e-07
3.02582e-08
5.74203e-08
1.75466e-08
-5.36497e-08
4.15417e-09
-1.64875e-07
-9.91768e-09
-2.76193e-07
-2.46638e-08
-3.87548e-07
-4.0075e-08
-4.98894e-07
-5.61383e-08
-6.10189e-07
-7.28364e-08
-7.21401e-07
-9.01471e-08
-8.32502e-07
-1.08044e-07
-9.43469e-07
-1.26494e-07
-1.05428e-06
-1.45458e-07
-1.16491e-06
-1.64893e-07
-1.27531e-06
-1.84747e-07
-1.38546e-06
-2.04959e-07
-1.49528e-06
-2.25464e-07
-1.60467e-06
-1.71354e-06
2.21734e-07
1.0448e-06
2.15136e-07
9.38621e-07
2.07966e-07
8.31821e-07
2.0018e-07
7.2441e-07
1.91737e-07
6.16414e-07
1.82605e-07
5.07876e-07
1.72756e-07
3.98851e-07
1.6217e-07
2.89406e-07
1.5083e-07
1.79608e-07
1.38724e-07
6.95261e-08
1.25845e-07
-4.07712e-08
1.12191e-07
-1.51221e-07
9.7762e-08
-2.61764e-07
8.25632e-08
-3.7235e-07
6.66038e-08
-4.82934e-07
4.98967e-08
-5.93482e-07
3.24592e-08
-7.03963e-07
1.4313e-08
-8.14356e-07
-4.51579e-09
-9.2464e-07
-2.39961e-08
-1.0348e-06
-4.40907e-08
-1.14481e-06
-6.47571e-08
-1.25465e-06
-8.59462e-08
-1.36427e-06
-1.07602e-07
-1.47362e-06
-1.29662e-07
-1.58261e-06
-1.69114e-06
3.28013e-07
1.05021e-06
3.22022e-07
9.44611e-07
3.15394e-07
8.3845e-07
3.08076e-07
7.31728e-07
3.00026e-07
6.24465e-07
2.91204e-07
5.16697e-07
2.81581e-07
4.08475e-07
2.71131e-07
2.99856e-07
2.59836e-07
1.90903e-07
2.47682e-07
8.16801e-08
2.3466e-07
-2.77496e-08
2.20767e-07
-1.37327e-07
2.06003e-07
-2.46999e-07
1.90372e-07
-3.56719e-07
1.73884e-07
-4.66446e-07
1.5655e-07
-5.76148e-07
1.38389e-07
-6.85802e-07
1.1942e-07
-7.95387e-07
9.96703e-08
-9.0489e-07
7.91693e-08
-1.0143e-06
5.7952e-08
-1.12359e-06
3.60589e-08
-1.23276e-06
1.35362e-08
-1.34175e-06
-9.56403e-09
-1.45052e-06
-3.31833e-08
-1.55899e-06
-1.66707e-06
4.34534e-07
1.05494e-06
4.29167e-07
9.49978e-07
4.23098e-07
8.44519e-07
4.1627e-07
7.38556e-07
4.08634e-07
6.32101e-07
4.00146e-07
5.25185e-07
3.90772e-07
4.17848e-07
3.80484e-07
3.10144e-07
3.6926e-07
2.02127e-07
3.57084e-07
9.38563e-08
3.43945e-07
-1.46107e-08
3.29839e-07
-1.23221e-07
3.14764e-07
-2.31924e-07
2.98724e-07
-3.40679e-07
2.81728e-07
-4.4945e-07
2.63789e-07
-5.58209e-07
2.44922e-07
-6.66935e-07
2.25148e-07
-7.75613e-07
2.04492e-07
-8.84234e-07
1.82982e-07
-9.92788e-07
1.60651e-07
-1.10126e-06
1.37538e-07
-1.20964e-06
1.13685e-07
-1.31789e-06
8.91406e-08
-1.42598e-06
6.39595e-08
-1.53381e-06
-1.64131e-06
5.41266e-07
1.05897e-06
5.36537e-07
9.54708e-07
5.31043e-07
8.50012e-07
5.24723e-07
7.44876e-07
5.17521e-07
6.39303e-07
5.0939e-07
5.33316e-07
5.0029e-07
4.26948e-07
4.90189e-07
3.20244e-07
4.79063e-07
2.13254e-07
4.66892e-07
1.06027e-07
4.53663e-07
-1.38164e-09
4.3937e-07
-1.08928e-07
4.24011e-07
-2.16566e-07
4.07589e-07
-3.24257e-07
3.90111e-07
-4.31972e-07
3.71589e-07
-5.39687e-07
3.52039e-07
-6.47384e-07
3.31479e-07
-7.55054e-07
3.09934e-07
-8.62689e-07
2.8743e-07
-9.70284e-07
2.63998e-07
-1.07783e-06
2.39673e-07
-1.18532e-06
2.14495e-07
-1.29272e-06
1.88509e-07
-1.39999e-06
1.61763e-07
-1.50707e-06
-1.61386e-06
6.48192e-07
1.06231e-06
6.44111e-07
9.58788e-07
6.39207e-07
8.54916e-07
6.33411e-07
7.50672e-07
6.26663e-07
6.46052e-07
6.18909e-07
5.41069e-07
6.10107e-07
4.35751e-07
6.00218e-07
3.30133e-07
5.89216e-07
2.24256e-07
5.77077e-07
1.18166e-07
5.63788e-07
1.19075e-08
5.49338e-07
-9.44781e-08
5.33724e-07
-2.00952e-07
5.16948e-07
-3.07481e-07
4.99015e-07
-4.1404e-07
4.79937e-07
-5.20608e-07
4.59728e-07
-6.27175e-07
4.38405e-07
-7.33731e-07
4.15991e-07
-8.40275e-07
3.9251e-07
-9.46803e-07
3.67991e-07
-1.05331e-06
3.42466e-07
-1.15979e-06
3.1597e-07
-1.26622e-06
2.88544e-07
-1.37256e-06
2.60233e-07
-1.47876e-06
-1.58471e-06
7.55309e-07
1.06493e-06
7.51886e-07
9.62211e-07
7.47584e-07
8.59219e-07
7.42327e-07
7.55929e-07
7.36049e-07
6.52329e-07
7.28693e-07
5.48425e-07
7.2021e-07
4.44234e-07
7.10559e-07
3.39784e-07
6.99707e-07
2.35108e-07
6.87629e-07
1.30244e-07
6.74308e-07
2.52287e-08
6.59731e-07
-7.99011e-08
6.43893e-07
-1.85113e-07
6.26793e-07
-2.90381e-07
6.08436e-07
-3.95682e-07
5.8883e-07
-5.01003e-07
5.67989e-07
-6.06333e-07
5.45928e-07
-7.1167e-07
5.22667e-07
-8.17014e-07
4.98229e-07
-9.22365e-07
4.72639e-07
-1.02772e-06
4.45926e-07
-1.13308e-06
4.18121e-07
-1.23842e-06
3.8926e-07
-1.3437e-06
3.59381e-07
-1.44888e-06
-1.55386e-06
8.62633e-07
1.06684e-06
8.59876e-07
9.64968e-07
8.56185e-07
8.6291e-07
8.51479e-07
7.60634e-07
8.45688e-07
6.58121e-07
8.38748e-07
5.55365e-07
8.30606e-07
4.52377e-07
8.21215e-07
3.49174e-07
8.1054e-07
2.45783e-07
7.98552e-07
1.42232e-07
7.85228e-07
3.85522e-08
7.70555e-07
-6.5228e-08
7.54524e-07
-1.69082e-07
7.37132e-07
-2.72989e-07
7.18381e-07
-3.76932e-07
6.98279e-07
-4.809e-07
6.76834e-07
-5.84889e-07
6.54062e-07
-6.88898e-07
6.2998e-07
-7.92931e-07
6.04606e-07
-8.96991e-07
5.77963e-07
-1.00108e-06
5.50075e-07
-1.10519e-06
5.20969e-07
-1.20931e-06
4.90676e-07
-1.31341e-06
4.59229e-07
-1.41743e-06
-1.5213e-06
9.70194e-07
1.06803e-06
9.6811e-07
9.67052e-07
9.6504e-07
8.65981e-07
9.60897e-07
7.64777e-07
9.55606e-07
6.63412e-07
9.49099e-07
5.61872e-07
9.41317e-07
4.60159e-07
9.3221e-07
3.58281e-07
9.21737e-07
2.56256e-07
9.09865e-07
1.54104e-07
8.96569e-07
5.18483e-08
8.81831e-07
-5.04896e-08
8.65638e-07
-1.5289e-07
8.47986e-07
-2.55337e-07
8.28874e-07
-3.57819e-07
8.08306e-07
-4.60331e-07
7.86288e-07
-5.62872e-07
7.62833e-07
-6.65443e-07
7.37954e-07
-7.68052e-07
7.11666e-07
-8.70703e-07
6.83988e-07
-9.73401e-07
6.54939e-07
-1.07614e-06
6.24542e-07
-1.17891e-06
5.92821e-07
-1.28169e-06
5.59803e-07
-1.38441e-06
-1.48702e-06
1.07804e-06
1.06849e-06
1.07663e-06
9.68454e-07
1.07419e-06
8.68422e-07
1.07063e-06
7.68345e-07
1.06585e-06
6.68189e-07
1.05979e-06
5.67931e-07
1.05239e-06
4.67562e-07
1.04358e-06
3.67083e-07
1.03334e-06
2.66503e-07
1.02161e-06
1.65833e-07
1.00837e-06
6.50887e-08
9.93594e-07
-3.57159e-08
9.77272e-07
-1.36568e-07
9.59392e-07
-2.37457e-07
9.39951e-07
-3.38378e-07
9.18947e-07
-4.39328e-07
8.96387e-07
-5.40311e-07
8.72276e-07
-6.41333e-07
8.46625e-07
-7.42401e-07
8.19446e-07
-8.43523e-07
7.9075e-07
-9.44706e-07
7.60554e-07
-1.04595e-06
7.28874e-07
-1.14723e-06
6.95727e-07
-1.24854e-06
6.61135e-07
-1.34982e-06
-1.451e-06
1.18622e-06
1.0682e-06
1.18551e-06
9.69163e-07
1.18371e-06
8.70222e-07
1.18072e-06
7.71328e-07
1.17647e-06
6.72439e-07
1.17088e-06
5.73525e-07
1.16387e-06
4.74568e-07
1.1554e-06
3.7556e-07
1.1454e-06
2.76501e-07
1.13384e-06
1.77394e-07
1.12068e-06
7.82461e-08
1.1059e-06
-2.09359e-08
1.08948e-06
-1.20146e-07
1.0714e-06
-2.1938e-07
1.05166e-06
-3.18637e-07
1.03025e-06
-4.17921e-07
1.00718e-06
-5.17237e-07
9.82438e-07
-6.16594e-07
9.5604e-07
-7.16002e-07
9.27989e-07
-8.15472e-07
8.98293e-07
-9.1501e-07
8.66961e-07
-1.01461e-06
8.34004e-07
-1.11428e-06
7.99433e-07
-1.21397e-06
7.63261e-07
-1.31365e-06
-1.41325e-06
1.29479e-06
1.06715e-06
1.29479e-06
9.69162e-07
1.29365e-06
8.71366e-07
1.29126e-06
7.73711e-07
1.28756e-06
6.76148e-07
1.28244e-06
5.7864e-07
1.27585e-06
4.8116e-07
1.26772e-06
3.83693e-07
1.25799e-06
2.86229e-07
1.24662e-06
1.88764e-07
1.23357e-06
9.12952e-08
1.21881e-06
-6.17641e-09
1.20232e-06
-1.03653e-07
1.18407e-06
-2.01135e-07
1.16406e-06
-2.98627e-07
1.14228e-06
-3.96137e-07
1.11871e-06
-4.93675e-07
1.09337e-06
-5.91251e-07
1.06625e-06
-6.88879e-07
1.03734e-06
-7.86568e-07
1.00666e-06
-8.84328e-07
9.74203e-07
-9.82157e-07
9.39973e-07
-1.08005e-06
9.03975e-07
-1.17797e-06
8.66215e-07
-1.27589e-06
-1.37373e-06
1.40382e-06
1.06531e-06
1.40455e-06
9.68426e-07
1.40409e-06
8.71834e-07
1.40232e-06
7.75476e-07
1.39917e-06
6.79298e-07
1.39455e-06
5.83257e-07
1.38839e-06
4.87321e-07
1.38062e-06
3.91463e-07
1.37119e-06
2.95667e-07
1.36003e-06
1.9992e-07
1.34711e-06
1.04213e-07
1.3324e-06
8.53757e-09
1.31586e-06
-8.71132e-08
1.29747e-06
-1.82747e-07
1.27722e-06
-2.78373e-07
1.25508e-06
-3.74002e-07
1.23106e-06
-4.69649e-07
1.20513e-06
-5.65326e-07
1.1773e-06
-6.61048e-07
1.14756e-06
-7.56826e-07
1.1159e-06
-8.5267e-07
1.08232e-06
-9.48578e-07
1.04682e-06
-1.04454e-06
1.00939e-06
-1.14054e-06
9.70028e-07
-1.23653e-06
-1.33245e-06
1.51334e-06
1.06263e-06
1.51485e-06
9.66919e-07
1.51509e-06
8.71594e-07
1.51397e-06
7.76596e-07
1.5114e-06
6.81866e-07
1.5073e-06
5.87357e-07
1.50159e-06
4.93029e-07
1.49421e-06
3.9885e-07
1.48508e-06
3.04794e-07
1.47416e-06
2.10842e-07
1.46139e-06
1.16977e-07
1.44675e-06
2.31842e-08
1.43018e-06
-7.05498e-08
1.41168e-06
-1.64238e-07
1.3912e-06
-2.57896e-07
1.36873e-06
-3.51537e-07
1.34426e-06
-4.45178e-07
1.31777e-06
-5.38835e-07
1.28925e-06
-6.32524e-07
1.25868e-06
-7.26257e-07
1.22605e-06
-8.20042e-07
1.19135e-06
-9.13881e-07
1.15457e-06
-1.00776e-06
1.1157e-06
-1.10167e-06
1.07473e-06
-1.19555e-06
1.03164e-06
-1.28936e-06
9.86446e-07
-1.38301e-06
9.39143e-07
-1.4764e-06
-1.56939e-06
1.62339e-06
1.05905e-06
1.62572e-06
9.64592e-07
1.62671e-06
8.70607e-07
1.62627e-06
7.77037e-07
1.62431e-06
6.83823e-07
1.62075e-06
5.90913e-07
1.61552e-06
4.98261e-07
1.60854e-06
4.05831e-07
1.59974e-06
3.13589e-07
1.58908e-06
2.21509e-07
1.57648e-06
1.29568e-07
1.56193e-06
3.77439e-08
1.54536e-06
-5.39819e-08
1.52675e-06
-1.45628e-07
1.50607e-06
-2.37214e-07
1.48329e-06
-3.28757e-07
1.45838e-06
-4.20276e-07
1.43134e-06
-5.1179e-07
1.40213e-06
-6.03315e-07
1.37074e-06
-6.94864e-07
1.33714e-06
-7.86446e-07
1.30132e-06
-8.7806e-07
1.26326e-06
-9.69699e-07
1.22293e-06
-1.06134e-06
1.18032e-06
-1.15294e-06
1.13541e-06
-1.24446e-06
1.0882e-06
-1.3358e-06
1.03868e-06
-1.42688e-06
-1.51757e-06
1.73395e-06
1.05449e-06
1.73716e-06
9.61378e-07
1.73895e-06
8.68816e-07
1.73923e-06
7.76752e-07
1.73793e-06
6.85129e-07
1.73495e-06
5.93891e-07
1.73022e-06
5.0299e-07
1.72367e-06
4.12382e-07
1.71523e-06
3.2203e-07
1.70484e-06
2.31901e-07
1.69244e-06
1.41967e-07
1.67798e-06
5.21992e-08
1.66143e-06
-3.74255e-08
1.64273e-06
-1.26931e-07
1.62186e-06
-2.1634e-07
1.59877e-06
-3.05674e-07
1.57345e-06
-3.94953e-07
1.54586e-06
-4.84198e-07
1.51597e-06
-5.73425e-07
1.48375e-06
-6.62649e-07
1.44918e-06
-7.51876e-07
1.41223e-06
-8.41108e-07
1.37287e-06
-9.30336e-07
1.33107e-06
-1.01954e-06
1.2868e-06
-1.10868e-06
1.24004e-06
-1.1977e-06
1.19078e-06
-1.28654e-06
1.139e-06
-1.3751e-06
-1.46328e-06
1.84493e-06
1.04886e-06
1.84912e-06
9.5719e-07
1.85179e-06
8.66147e-07
1.85286e-06
7.75681e-07
1.85226e-06
6.85732e-07
1.8499e-06
5.96248e-07
1.84571e-06
5.07176e-07
1.83962e-06
4.18471e-07
1.83157e-06
3.3009e-07
1.82147e-06
2.41996e-07
1.80928e-06
1.54154e-07
1.79495e-06
6.65336e-08
1.77842e-06
-2.08944e-08
1.75965e-06
-1.08159e-07
1.73859e-06
-1.95283e-07
1.71521e-06
-2.82293e-07
1.68947e-06
-3.69211e-07
1.66133e-06
-4.56058e-07
1.63075e-06
-5.42851e-07
1.59771e-06
-6.29604e-07
1.56216e-06
-7.16324e-07
1.52406e-06
-8.03011e-07
1.48338e-06
-8.89657e-07
1.44008e-06
-9.7624e-07
1.39413e-06
-1.06273e-06
1.3455e-06
-1.14907e-06
1.29416e-06
-1.23519e-06
1.24009e-06
-1.32103e-06
-1.40648e-06
1.95621e-06
1.04202e-06
1.96148e-06
9.5192e-07
1.96512e-06
8.62508e-07
1.96706e-06
7.73742e-07
1.96723e-06
6.85566e-07
1.96555e-06
5.97927e-07
1.96195e-06
5.10774e-07
1.95636e-06
4.24059e-07
1.94872e-06
3.37736e-07
1.93895e-06
2.51766e-07
1.92699e-06
1.66109e-07
1.9128e-06
8.073e-08
1.8963e-06
-4.40111e-09
1.87746e-06
-8.93197e-08
1.85623e-06
-1.74049e-07
1.83256e-06
-2.58618e-07
1.80639e-06
-3.43051e-07
1.7777e-06
-4.27367e-07
1.74644e-06
-5.11585e-07
1.71255e-06
-5.95719e-07
1.676e-06
-6.79775e-07
1.63675e-06
-7.63752e-07
1.59473e-06
-8.47643e-07
1.54992e-06
-9.31425e-07
1.50226e-06
-1.01507e-06
1.45171e-06
-1.09852e-06
1.39826e-06
-1.18174e-06
1.34187e-06
-1.26463e-06
-1.34714e-06
2.06757e-06
1.03383e-06
2.07406e-06
9.45435e-07
2.07878e-06
8.57785e-07
2.08168e-06
7.70837e-07
2.0827e-06
6.84545e-07
2.08177e-06
5.98857e-07
2.07882e-06
5.13724e-07
2.07379e-06
4.29097e-07
2.06659e-06
3.4493e-07
2.05718e-06
2.6118e-07
2.04548e-06
1.77806e-07
2.03144e-06
9.47705e-08
2.015e-06
1.20395e-08
1.9961e-06
-7.04221e-08
1.97469e-06
-1.52642e-07
1.95072e-06
-2.34649e-07
1.92414e-06
-3.16467e-07
1.89489e-06
-3.98117e-07
1.86292e-06
-4.79618e-07
1.82818e-06
-5.60981e-07
1.79062e-06
-6.42212e-07
1.75018e-06
-7.23312e-07
1.70681e-06
-8.0427e-07
1.66045e-06
-8.85068e-07
1.61106e-06
-9.65675e-07
1.55859e-06
-1.04605e-06
1.50299e-06
-1.12614e-06
1.44425e-06
-1.20589e-06
-1.28524e-06
2.17868e-06
1.0241e-06
2.18653e-06
9.37582e-07
2.19248e-06
8.5184e-07
2.19647e-06
7.66849e-07
2.19844e-06
6.82568e-07
2.19835e-06
5.98952e-07
2.19612e-06
5.15953e-07
2.19169e-06
4.33525e-07
2.185e-06
3.51621e-07
2.17598e-06
2.70198e-07
2.16457e-06
1.89214e-07
2.15071e-06
1.08631e-07
2.13434e-06
2.84127e-08
2.11539e-06
-5.14762e-08
2.09382e-06
-1.31066e-07
2.06955e-06
-2.10384e-07
2.04254e-06
-2.89455e-07
2.01272e-06
-3.683e-07
1.98004e-06
-4.46936e-07
1.94444e-06
-5.25374e-07
1.90584e-06
-6.0362e-07
1.8642e-06
-6.81672e-07
1.81946e-06
-7.59521e-07
1.77154e-06
-8.37149e-07
1.72039e-06
-9.14529e-07
1.66597e-06
-9.91626e-07
1.60822e-06
-1.0684e-06
1.54712e-06
-1.14479e-06
-1.22077e-06
2.28912e-06
1.01265e-06
2.29852e-06
9.28182e-07
2.30584e-06
8.44516e-07
2.31105e-06
7.61638e-07
2.3141e-06
6.79515e-07
2.31495e-06
5.98107e-07
2.31353e-06
5.17373e-07
2.30979e-06
4.37267e-07
2.30366e-06
3.57748e-07
2.29509e-06
2.78771e-07
2.28401e-06
2.00295e-07
2.27035e-06
1.22283e-07
2.25407e-06
4.46972e-08
2.23509e-06
-3.24959e-08
2.21335e-06
-1.09328e-07
2.18879e-06
-1.85826e-07
2.16135e-06
-2.62013e-07
2.13096e-06
-3.37909e-07
2.09756e-06
-4.13531e-07
2.06107e-06
-4.88888e-07
2.02143e-06
-5.63985e-07
1.97858e-06
-6.38819e-07
1.93244e-06
-7.13383e-07
1.88295e-06
-7.87658e-07
1.83005e-06
-8.61623e-07
1.77367e-06
-9.35247e-07
1.71377e-06
-1.0085e-06
1.65032e-06
-1.08134e-06
-1.15375e-06
2.39833e-06
9.99259e-07
2.40947e-06
9.1704e-07
2.41835e-06
8.35637e-07
2.42494e-06
7.55047e-07
2.42921e-06
6.75245e-07
2.43112e-06
5.96201e-07
2.43062e-06
5.17877e-07
2.42765e-06
4.40236e-07
2.42216e-06
3.63235e-07
2.41409e-06
2.86836e-07
2.40339e-06
2.10999e-07
2.38999e-06
1.35686e-07
2.37382e-06
6.08632e-08
2.35483e-06
-1.3502e-08
2.33294e-06
-8.74431e-08
2.3081e-06
-1.60982e-07
2.28023e-06
-2.34143e-07
2.24926e-06
-3.06944e-07
2.21513e-06
-3.79399e-07
2.17776e-06
-4.51517e-07
2.13708e-06
-5.23302e-07
2.09301e-06
-5.94749e-07
2.04548e-06
-6.65853e-07
1.99442e-06
-7.36597e-07
1.93976e-06
-8.06963e-07
1.88144e-06
-8.76928e-07
1.81941e-06
-9.4647e-07
1.75364e-06
-1.01557e-06
-1.08422e-06
2.50566e-06
9.83693e-07
2.51876e-06
9.03942e-07
2.52939e-06
8.25009e-07
2.53753e-06
7.469e-07
2.54317e-06
6.69603e-07
2.54628e-06
5.93095e-07
2.54681e-06
5.17346e-07
2.54472e-06
4.42325e-07
2.53996e-06
3.67994e-07
2.53248e-06
2.94319e-07
2.52222e-06
2.21263e-07
2.50911e-06
1.48791e-07
2.4931e-06
7.68703e-08
2.47413e-06
5.47394e-09
2.45212e-06
-6.54347e-08
2.42701e-06
-1.35871e-07
2.39873e-06
-2.05859e-07
2.3672e-06
-2.75415e-07
2.33235e-06
-3.44549e-07
2.2941e-06
-4.1327e-07
2.25238e-06
-4.81579e-07
2.2071e-06
-5.49475e-07
2.1582e-06
-6.16948e-07
2.10559e-06
-6.83988e-07
2.04921e-06
-7.50581e-07
1.98899e-06
-8.16712e-07
1.92489e-06
-8.8237e-07
1.85688e-06
-9.47555e-07
-1.01228e-06
2.61033e-06
9.65716e-07
2.6256e-06
8.88667e-07
2.63818e-06
8.12426e-07
2.64807e-06
7.3701e-07
2.65526e-06
6.62418e-07
2.65972e-06
5.88636e-07
2.66142e-06
5.15644e-07
2.66033e-06
4.43416e-07
2.6564e-06
3.71921e-07
2.64959e-06
3.0113e-07
2.63984e-06
2.31011e-07
2.6271e-06
1.61532e-07
2.61131e-06
9.26651e-08
2.5924e-06
2.43839e-08
2.5703e-06
-4.33394e-08
2.54495e-06
-1.10525e-07
2.51628e-06
-1.77189e-07
2.48422e-06
-2.43346e-07
2.44867e-06
-3.09005e-07
2.40957e-06
-3.74172e-07
2.36684e-06
-4.38848e-07
2.3204e-06
-5.0303e-07
2.27016e-06
-5.66712e-07
2.21606e-06
-6.29886e-07
2.15802e-06
-6.92545e-07
2.09599e-06
-7.54682e-07
2.02993e-06
-8.16301e-07
1.95979e-06
-8.77419e-07
-9.38076e-07
2.71146e-06
9.45093e-07
2.72913e-06
8.70993e-07
2.74388e-06
7.9768e-07
2.75571e-06
7.25183e-07
2.76461e-06
6.53512e-07
2.77059e-06
5.82662e-07
2.77361e-06
5.12623e-07
2.77365e-06
4.43376e-07
2.77067e-06
3.74898e-07
2.76464e-06
3.07165e-07
2.7555e-06
2.4015e-07
2.7432e-06
1.73829e-07
2.72769e-06
1.08175e-07
2.7089e-06
4.31681e-08
2.68678e-06
-2.12123e-08
2.66125e-06
-8.4995e-08
2.63224e-06
-1.48181e-07
2.59968e-06
-2.10786e-07
2.56349e-06
-2.72816e-07
2.5236e-06
-3.34276e-07
2.47991e-06
-3.95167e-07
2.43237e-06
-4.55485e-07
2.38088e-06
-5.15227e-07
2.32539e-06
-5.74389e-07
2.26581e-06
-6.3297e-07
2.20211e-06
-6.90977e-07
2.13423e-06
-7.48427e-07
2.06217e-06
-8.05355e-07
-8.61829e-07
2.80809e-06
9.21598e-07
2.82838e-06
8.50701e-07
2.8455e-06
7.80562e-07
2.85946e-06
7.11223e-07
2.87027e-06
6.42701e-07
2.87793e-06
5.75003e-07
2.88243e-06
5.08126e-07
2.88374e-06
4.42061e-07
2.88185e-06
3.76794e-07
2.87671e-06
3.12305e-07
2.86828e-06
2.48575e-07
2.85653e-06
1.85584e-07
2.84139e-06
1.23312e-07
2.82282e-06
6.17401e-08
2.80074e-06
8.72663e-10
2.7751e-06
-5.93587e-08
2.74583e-06
-1.1891e-07
2.71285e-06
-1.77811e-07
2.6761e-06
-2.36065e-07
2.6355e-06
-2.93674e-07
2.59097e-06
-3.50637e-07
2.54244e-06
-4.06955e-07
2.48984e-06
-4.62626e-07
2.4331e-06
-5.17651e-07
2.37217e-06
-5.7204e-07
2.307e-06
-6.25809e-07
2.23757e-06
-6.78991e-07
2.16386e-06
-7.31646e-07
-7.83864e-07
2.89922e-06
8.95025e-07
2.92233e-06
8.27589e-07
2.94202e-06
7.60878e-07
2.9583e-06
6.9494e-07
2.97119e-06
6.29804e-07
2.98071e-06
5.65486e-07
2.98684e-06
5.01993e-07
2.98958e-06
4.39322e-07
2.98891e-06
3.77467e-07
2.9848e-06
3.16417e-07
2.97721e-06
2.5616e-07
2.96612e-06
1.9668e-07
2.95146e-06
1.37966e-07
2.9332e-06
8.00031e-08
2.91129e-06
2.27839e-08
2.88564e-06
-3.37136e-08
2.85622e-06
-8.94861e-08
2.82295e-06
-1.4454e-07
2.78576e-06
-1.98879e-07
2.74459e-06
-2.52505e-07
2.69937e-06
-3.05419e-07
2.65004e-06
-3.57621e-07
2.59653e-06
-4.09116e-07
2.53879e-06
-4.59911e-07
2.47677e-06
-5.10024e-07
2.41045e-06
-5.59486e-07
2.33981e-06
-6.08349e-07
2.26485e-06
-6.5669e-07
-7.04629e-07
2.98381e-06
8.65197e-07
3.00992e-06
8.0148e-07
3.03235e-06
7.38449e-07
3.05113e-06
6.76161e-07
3.06628e-06
6.14652e-07
3.07782e-06
5.53947e-07
3.08575e-06
4.94062e-07
3.09007e-06
4.35002e-07
3.09077e-06
3.76768e-07
3.08783e-06
3.19358e-07
3.08122e-06
2.62764e-07
3.07092e-06
2.06979e-07
3.05689e-06
1.51996e-07
3.03909e-06
9.7806e-08
3.01747e-06
4.44024e-08
2.99198e-06
-8.21928e-09
2.96256e-06
-6.00712e-08
2.92917e-06
-1.11146e-07
2.89174e-06
-1.6145e-07
2.85022e-06
-2.10984e-07
2.80455e-06
-2.59751e-07
2.75468e-06
-3.07754e-07
2.70057e-06
-3.55002e-07
2.64217e-06
-4.01513e-07
2.57946e-06
-4.47314e-07
2.51243e-06
-4.9245e-07
2.44107e-06
-5.3699e-07
2.36541e-06
-5.81034e-07
-6.24727e-07
3.06083e-06
8.31971e-07
3.09009e-06
7.72224e-07
3.11542e-06
7.13122e-07
3.13685e-06
6.54728e-07
3.15442e-06
5.97085e-07
3.16814e-06
5.40226e-07
3.17803e-06
4.84174e-07
3.18409e-06
4.28941e-07
3.18632e-06
3.74536e-07
3.18471e-06
3.20963e-07
3.17925e-06
2.68222e-07
3.16992e-06
2.16311e-07
3.15669e-06
1.65227e-07
3.13953e-06
1.14967e-07
3.1184e-06
6.55281e-08
3.09328e-06
1.69091e-08
3.0641e-06
-3.08956e-08
3.03084e-06
-7.7887e-08
2.99345e-06
-1.24063e-07
2.9519e-06
-1.69428e-07
2.90613e-06
-2.13986e-07
2.85613e-06
-2.57748e-07
2.80185e-06
-3.00727e-07
2.74329e-06
-3.4295e-07
2.68043e-06
-3.84457e-07
2.61329e-06
-4.25305e-07
2.54188e-06
-4.65581e-07
2.46625e-06
-5.05405e-07
-5.44945e-07
3.12935e-06
7.95247e-07
3.16186e-06
7.39708e-07
3.19021e-06
6.84772e-07
3.21444e-06
6.30507e-07
3.23456e-06
5.7696e-07
3.25062e-06
5.2417e-07
3.26262e-06
4.72167e-07
3.2706e-06
4.20969e-07
3.27454e-06
3.70591e-07
3.27446e-06
3.21043e-07
3.27035e-06
2.7233e-07
3.26221e-06
2.24456e-07
3.25001e-06
1.77422e-07
3.23375e-06
1.31229e-07
3.2134e-06
8.58772e-08
3.18894e-06
4.13654e-08
3.16035e-06
-2.29899e-09
3.1276e-06
-4.51384e-08
3.09067e-06
-8.7133e-08
3.04954e-06
-1.28297e-07
3.00419e-06
-1.68637e-07
2.95461e-06
-2.08169e-07
2.9008e-06
-2.46914e-07
2.84276e-06
-2.84908e-07
2.7805e-06
-3.22201e-07
2.71406e-06
-3.58865e-07
2.64348e-06
-3.95002e-07
2.56882e-06
-4.30748e-07
-4.66292e-07
3.18853e-06
7.54954e-07
3.22439e-06
7.03842e-07
3.25587e-06
6.53291e-07
3.28301e-06
6.0337e-07
3.30584e-06
5.5413e-07
3.3244e-06
5.05614e-07
3.33871e-06
4.57856e-07
3.3488e-06
4.1088e-07
3.35468e-06
3.64705e-07
3.35638e-06
3.19345e-07
3.3539e-06
2.74811e-07
3.34725e-06
2.31108e-07
3.33643e-06
1.88243e-07
3.32144e-06
1.46219e-07
3.30228e-06
1.05037e-07
3.27894e-06
6.4699e-08
3.25144e-06
2.52051e-08
3.21975e-06
-1.34508e-08
3.18389e-06
-5.12693e-08
3.14385e-06
-8.82585e-08
3.09965e-06
-1.24432e-07
3.05129e-06
-1.5981e-07
2.9988e-06
-1.94423e-07
2.9422e-06
-2.28313e-07
2.88154e-06
-2.61541e-07
2.81687e-06
-2.94191e-07
2.74824e-06
-3.26377e-07
2.67574e-06
-3.58248e-07
-3.90007e-07
3.23787e-06
7.11032e-07
3.27717e-06
6.64535e-07
3.31191e-06
6.18556e-07
3.34212e-06
5.73163e-07
3.36784e-06
5.28408e-07
3.38911e-06
4.84337e-07
3.40599e-06
4.40986e-07
3.41848e-06
3.98381e-07
3.42664e-06
3.56546e-07
3.43049e-06
3.15496e-07
3.43006e-06
2.75246e-07
3.42536e-06
2.35804e-07
3.41643e-06
1.97177e-07
3.40328e-06
1.5937e-07
3.38593e-06
1.22386e-07
3.3644e-06
8.62248e-08
3.33872e-06
5.08864e-08
3.3089e-06
1.6366e-08
3.27498e-06
-1.73432e-08
3.23697e-06
-5.0252e-08
3.19492e-06
-8.23783e-08
3.14886e-06
-1.13747e-07
3.09883e-06
-1.44396e-07
3.04489e-06
-1.74374e-07
2.9871e-06
-2.03749e-07
2.92552e-06
-2.32614e-07
2.86023e-06
-2.6109e-07
2.79132e-06
-2.89337e-07
-3.17562e-07
3.27763e-06
6.63358e-07
3.32054e-06
6.21621e-07
3.35875e-06
5.80354e-07
3.39229e-06
5.39624e-07
3.42121e-06
4.99482e-07
3.44557e-06
4.59975e-07
3.46542e-06
4.21136e-07
3.48081e-06
3.82997e-07
3.49178e-06
3.45579e-07
3.49837e-06
3.08902e-07
3.50064e-06
2.72979e-07
3.49862e-06
2.37821e-07
3.49236e-06
2.03435e-07
3.4819e-06
1.69827e-07
3.46729e-06
1.36999e-07
3.44856e-06
1.0495e-07
3.42577e-06
7.36796e-08
3.39896e-06
4.31805e-08
3.36817e-06
1.34433e-08
3.33346e-06
-1.55466e-08
3.2949e-06
-4.38097e-08
3.25252e-06
-7.13756e-08
3.20641e-06
-9.82854e-08
3.15663e-06
-1.24593e-07
3.10326e-06
-1.50372e-07
3.04636e-06
-1.75719e-07
2.98603e-06
-2.00759e-07
2.92235e-06
-2.25651e-07
-2.50607e-07
3.30998e-06
6.11623e-07
3.35688e-06
5.74724e-07
3.39899e-06
5.38245e-07
3.43637e-06
5.02245e-07
3.46907e-06
4.66774e-07
3.49717e-06
4.31876e-07
3.52072e-06
3.97586e-07
3.53979e-06
3.63931e-07
3.55443e-06
3.30935e-07
3.56472e-06
2.98617e-07
3.57071e-06
2.6699e-07
3.57246e-06
2.36066e-07
3.57005e-06
2.05851e-07
3.56352e-06
1.76351e-07
3.55295e-06
1.47566e-07
3.53841e-06
1.19498e-07
3.51994e-06
9.21418e-08
3.49763e-06
6.54902e-08
3.47155e-06
3.9532e-08
3.44175e-06
1.42497e-08
3.40832e-06
-1.03799e-08
3.37133e-06
-3.43863e-08
3.33086e-06
-5.78122e-08
3.28698e-06
-8.07147e-08
3.23977e-06
-1.03168e-07
3.18932e-06
-1.25268e-07
3.1357e-06
-1.47139e-07
3.07899e-06
-1.68935e-07
-1.90861e-07
3.34153e-06
5.55146e-07
3.39317e-06
5.23085e-07
3.44003e-06
4.91385e-07
3.48217e-06
4.60101e-07
3.51967e-06
4.29278e-07
3.55259e-06
3.98955e-07
3.58101e-06
3.69166e-07
3.605e-06
3.39938e-07
3.62464e-06
3.11292e-07
3.64001e-06
2.83246e-07
3.65119e-06
2.55815e-07
3.65825e-06
2.29007e-07
3.66127e-06
2.02831e-07
3.66033e-06
1.77291e-07
3.6555e-06
1.52389e-07
3.64688e-06
1.28124e-07
3.63453e-06
1.0449e-07
3.61854e-06
8.14822e-08
3.59898e-06
5.90869e-08
3.57594e-06
3.72875e-08
3.5495e-06
1.60599e-08
3.51975e-06
-4.63389e-09
3.48676e-06
-2.48202e-08
3.4506e-06
-4.45569e-08
3.41136e-06
-6.39254e-08
3.3691e-06
-8.3013e-08
3.3239e-06
-1.01936e-07
3.27581e-06
-1.2084e-07
-1.39917e-07
3.38809e-06
4.92724e-07
3.44575e-06
4.65421e-07
3.49872e-06
4.38417e-07
3.54707e-06
4.11758e-07
3.59086e-06
3.85487e-07
3.63017e-06
3.59639e-07
3.6651e-06
3.34243e-07
3.69571e-06
3.09325e-07
3.7221e-06
2.84905e-07
3.74434e-06
2.61e-07
3.76253e-06
2.37624e-07
3.77676e-06
2.14786e-07
3.78709e-06
1.92493e-07
3.79363e-06
1.70751e-07
3.79646e-06
1.49561e-07
3.79566e-06
1.28922e-07
3.79132e-06
1.08831e-07
3.78352e-06
8.92808e-08
3.77235e-06
7.02595e-08
3.75789e-06
5.17518e-08
3.74021e-06
3.37361e-08
3.71939e-06
1.61838e-08
3.69555e-06
-9.76204e-10
3.6687e-06
-1.77076e-08
3.63894e-06
-3.41607e-08
3.60631e-06
-5.03905e-08
3.57088e-06
-6.65033e-08
3.53267e-06
-8.26324e-08
-9.89515e-08
3.48202e-06
4.22757e-07
3.54735e-06
4.00083e-07
3.60812e-06
3.77646e-07
3.66439e-06
3.55488e-07
3.71624e-06
3.33644e-07
3.76373e-06
3.12145e-07
3.80695e-06
2.91019e-07
3.84599e-06
2.70288e-07
3.88092e-06
2.49972e-07
3.91184e-06
2.30086e-07
3.93882e-06
2.10642e-07
3.96195e-06
1.91652e-07
3.98133e-06
1.73121e-07
3.99702e-06
1.55056e-07
4.00912e-06
1.37458e-07
4.01772e-06
1.20327e-07
4.02289e-06
1.03661e-07
4.02472e-06
8.7453e-08
4.02328e-06
7.16941e-08
4.01867e-06
5.63702e-08
4.01094e-06
4.14619e-08
4.00018e-06
2.6943e-08
3.98643e-06
1.27754e-08
3.96981e-06
-1.08517e-09
3.95032e-06
-1.46712e-08
3.92803e-06
-2.80997e-08
3.90296e-06
-4.14401e-08
3.87514e-06
-5.48119e-08
-6.83689e-08
3.68031e-06
3.43976e-07
3.75458e-06
3.25812e-07
3.82439e-06
3.07833e-07
3.88981e-06
2.90073e-07
3.95089e-06
2.72563e-07
4.00771e-06
2.55329e-07
4.06033e-06
2.38395e-07
4.10883e-06
2.21782e-07
4.1533e-06
2.05506e-07
4.19381e-06
1.89581e-07
4.23043e-06
1.7402e-07
4.26325e-06
1.58831e-07
4.29235e-06
1.44022e-07
4.31781e-06
1.29598e-07
4.3397e-06
1.15561e-07
4.35812e-06
1.01911e-07
4.37313e-06
8.86473e-08
4.38482e-06
7.57642e-08
4.39326e-06
6.32537e-08
4.39853e-06
5.1104e-08
4.40069e-06
3.92987e-08
4.39981e-06
2.78184e-08
4.39596e-06
1.66296e-08
4.38918e-06
5.69498e-09
4.37954e-06
-5.03346e-09
4.36707e-06
-1.56256e-08
4.35178e-06
-2.61509e-08
4.33368e-06
-3.67107e-08
-4.74353e-08
4.06849e-06
2.57006e-07
4.15101e-06
2.43291e-07
4.22912e-06
2.2972e-07
4.30287e-06
2.16322e-07
4.37232e-06
2.03121e-07
4.43751e-06
1.90137e-07
4.49851e-06
1.77391e-07
4.55539e-06
1.64899e-07
4.60822e-06
1.52675e-07
4.65707e-06
1.40731e-07
4.70202e-06
1.29077e-07
4.74313e-06
1.17719e-07
4.78049e-06
1.06665e-07
4.81417e-06
9.59183e-08
4.84425e-06
8.54809e-08
4.8708e-06
7.53529e-08
4.89392e-06
6.55323e-08
4.91367e-06
5.6015e-08
4.93013e-06
4.67944e-08
4.94337e-06
3.78605e-08
4.95347e-06
2.92002e-08
4.96049e-06
2.07976e-08
4.96449e-06
1.26303e-08
4.96551e-06
4.67405e-09
4.96364e-06
-3.16249e-09
4.95889e-06
-1.08763e-08
4.95128e-06
-1.85355e-08
4.94079e-06
-2.623e-08
-3.4062e-08
4.75168e-06
1.66498e-07
4.83777e-06
1.57193e-07
4.91949e-06
1.48001e-07
4.99687e-06
1.38944e-07
5.06995e-06
1.30038e-07
5.13879e-06
1.21297e-07
5.20345e-06
1.12736e-07
5.26398e-06
1.04366e-07
5.32046e-06
9.61972e-08
5.37295e-06
8.82372e-08
5.42154e-06
8.0493e-08
5.46629e-06
7.29694e-08
5.50728e-06
6.56703e-08
5.5446e-06
5.8598e-08
5.57833e-06
5.17534e-08
5.60855e-06
4.5136e-08
5.63534e-06
3.87428e-08
5.65878e-06
3.2568e-08
5.67897e-06
2.66055e-08
5.69598e-06
2.08504e-08
5.70988e-06
1.52989e-08
5.72075e-06
9.93007e-09
5.72867e-06
4.70717e-09
5.73362e-06
-2.68332e-10
5.73579e-06
-5.33118e-09
5.73512e-06
-1.02096e-08
5.73166e-06
-1.50726e-08
5.7254e-06
-1.99713e-08
-2.49778e-08
5.82408e-06
8.28569e-08
5.90351e-06
7.77586e-08
5.97877e-06
7.27411e-08
6.0499e-06
6.7817e-08
6.11694e-06
6.29957e-08
6.17995e-06
5.82848e-08
6.239e-06
5.36913e-08
6.29414e-06
4.92213e-08
6.34546e-06
4.48797e-08
6.39303e-06
4.06703e-08
6.43692e-06
3.65961e-08
6.47724e-06
3.26589e-08
6.51405e-06
2.88599e-08
6.54744e-06
2.51994e-08
6.57752e-06
2.16771e-08
6.60436e-06
1.82928e-08
6.62806e-06
1.50451e-08
6.6487e-06
1.19268e-08
6.66639e-06
8.9168e-09
6.68122e-06
6.02147e-09
6.69325e-06
3.26476e-09
6.70253e-06
6.55366e-10
6.70917e-06
-1.93757e-09
6.71333e-06
-4.42096e-09
6.71488e-06
-6.88048e-09
6.71396e-06
-9.2908e-09
6.71058e-06
-1.16918e-08
6.70473e-06
-1.41256e-08
-1.66384e-08
7.31297e-06
2.18838e-08
7.37048e-06
2.02448e-08
7.42458e-06
1.86429e-08
7.47531e-06
1.70842e-08
7.52273e-06
1.55716e-08
7.56691e-06
1.41067e-08
7.60791e-06
1.26909e-08
7.64581e-06
1.13256e-08
7.68068e-06
1.00119e-08
7.7126e-06
8.75039e-09
7.74165e-06
7.5412e-09
7.76793e-06
6.3842e-09
7.79151e-06
5.27899e-09
7.81248e-06
4.22472e-09
7.83094e-06
3.22062e-09
7.84697e-06
2.2658e-09
7.86065e-06
1.36336e-09
7.87205e-06
5.26271e-10
7.88127e-06
-3.07066e-10
7.88843e-06
-1.13514e-09
7.89355e-06
-1.85411e-09
7.89674e-06
-2.54118e-09
7.89804e-06
-3.23179e-09
7.89751e-06
-3.8948e-09
7.89518e-06
-4.54601e-09