/*--------------------------------*- C++ -*----------------------------------*\
  =========                 |
  \\      /  F ield         | OpenFOAM: The Open Source CFD Toolbox
   \\    /   O peration     | Website:  https://openfoam.org
    \\  /    A nd           | Version:  9
     \\/     M anipulation  |
\*---------------------------------------------------------------------------*/
FoamFile
{
    format      ascii;
    class       volVectorField;
    location    "2";
    object      U;
}
// * * * * * * * * * * * * * * * * * * * * * * * * * * * * * * * * * * * * * //

dimensions      [0 1 -1 0 0 0 0];

internalField   nonuniform List<vector> 
1260
(
(-0.00911007 0.102081 0)
(-0.00992233 0.0913064 0)
(-0.0107697 0.0804553 0)
(-0.0116551 0.0695298 0)
(-0.0125814 0.0585341 0)
(-0.0135507 0.047474 0)
(-0.0145651 0.0363573 0)
(-0.0156261 0.0251924 0)
(-0.0167349 0.0139875 0)
(-0.0178923 0.00275084 0)
(-0.0190989 -0.00850946 0)
(-0.020355 -0.0197858 0)
(-0.0216605 -0.031071 0)
(-0.0230152 -0.0423587 0)
(-0.0244184 -0.0536431 0)
(-0.0258689 -0.0649193 0)
(-0.0273652 -0.0761827 0)
(-0.0289055 -0.0874296 0)
(-0.030487 -0.0986562 0)
(-0.0321067 -0.109859 0)
(-0.0337609 -0.121033 0)
(-0.0354449 -0.132174 0)
(-0.0371536 -0.143276 0)
(-0.0388809 -0.154329 0)
(-0.0406199 -0.165323 0)
(-0.0423634 -0.176246 0)
(0.00138486 0.102848 0)
(0.000630414 0.0921099 0)
(-0.00016578 0.0812989 0)
(-0.0010073 0.0704165 0)
(-0.00189724 0.0594666 0)
(-0.00283839 0.0484549 0)
(-0.00383311 0.0373884 0)
(-0.00488317 0.026275 0)
(-0.00598988 0.0151227 0)
(-0.00715423 0.0039395 0)
(-0.00837694 -0.0072669 0)
(-0.00965836 -0.0184892 0)
(-0.0109985 -0.0297205 0)
(-0.012397 -0.0409548 0)
(-0.0138532 -0.0521868 0)
(-0.015366 -0.0634117 0)
(-0.0169338 -0.0746258 0)
(-0.0185548 -0.0858254 0)
(-0.0202264 -0.0970077 0)
(-0.0219455 -0.108169 0)
(-0.0237085 -0.119307 0)
(-0.0255111 -0.130416 0)
(-0.0273482 -0.14149 0)
(-0.029214 -0.152523 0)
(-0.031102 -0.163504 0)
(-0.0330049 -0.174421 0)
(0.0119197 0.103552 0)
(0.0112254 0.0928576 0)
(0.0104827 0.0820936 0)
(0.00968747 0.0712619 0)
(0.00883615 0.0603658 0)
(0.0079255 0.0494107 0)
(0.00695284 0.038403 0)
(0.00591609 0.02735 0)
(0.00481369 0.0162594 0)
(0.00364445 0.00513882 0)
(0.00240758 -0.00600442 0)
(0.00110264 -0.0171633 0)
(-0.000270415 -0.0283314 0)
(-0.00171125 -0.0395031 0)
(-0.00321916 -0.0506732 0)
(-0.00479305 -0.0618377 0)
(-0.00643139 -0.072993 0)
(-0.00813224 -0.0841362 0)
(-0.00989314 -0.0952646 0)
(-0.0117111 -0.106376 0)
(-0.0135827 -0.117467 0)
(-0.0155037 -0.128534 0)
(-0.0174692 -0.139572 0)
(-0.0194738 -0.150574 0)
(-0.0215111 -0.161531 0)
(-0.0235744 -0.172432 0)
(0.0224878 0.104193 0)
(0.0218556 0.0935475 0)
(0.0211685 0.0828374 0)
(0.0204219 0.0720637 0)
(0.0196115 0.0612294 0)
(0.0187337 0.0503391 0)
(0.0177855 0.0393987 0)
(0.0167645 0.0284151 0)
(0.0156688 0.0173953 0)
(0.014497 0.00634661 0)
(0.0132481 -0.00472409 0)
(0.0119218 -0.0158102 0)
(0.0105178 -0.0269056 0)
(0.00903647 -0.0380051 0)
(0.00747852 -0.049104 0)
(0.00584505 -0.0601986 0)
(0.00413755 -0.0712856 0)
(0.00235797 -0.0823628 0)
(0.000508691 -0.0934278 0)
(-0.0014074 -0.104479 0)
(-0.00338689 -0.115513 0)
(-0.00542585 -0.126528 0)
(-0.00751968 -0.137519 0)
(-0.00966313 -0.14848 0)
(-0.0118503 -0.159403 0)
(-0.0140746 -0.170275 0)
(0.0330837 0.104768 0)
(0.0325154 0.0941776 0)
(0.0318859 0.083528 0)
(0.0311899 0.0728197 0)
(0.0304227 0.0620549 0)
(0.0295802 0.0512376 0)
(0.0286589 0.0403732 0)
(0.027656 0.0294678 0)
(0.0265694 0.018528 0)
(0.0253975 0.00756046 0)
(0.0241392 -0.00342823 0)
(0.0227937 -0.014432 0)
(0.0213611 -0.0254452 0)
(0.0198414 -0.0364628 0)
(0.0182354 -0.0474809 0)
(0.0165441 -0.0584958 0)
(0.0147691 -0.069505 0)
(0.0129123 -0.0805064 0)
(0.0109759 -0.0914983 0)
(0.00896277 -0.102479 0)
(0.00687614 -0.113447 0)
(0.00471978 -0.1244 0)
(0.00249799 -0.135333 0)
(0.000215726 -0.146242 0)
(-0.00212148 -0.157119 0)
(-0.00450747 -0.167952 0)
(0.0437031 0.105275 0)
(0.0432002 0.094746 0)
(0.04263 0.0841635 0)
(0.0419866 0.0735276 0)
(0.0412647 0.0628399 0)
(0.0404597 0.0521038 0)
(0.0395677 0.0413238 0)
(0.0385855 0.0305055 0)
(0.0375106 0.0196548 0)
(0.0363412 0.00877785 0)
(0.0350759 -0.00211933 0)
(0.033714 -0.0130311 0)
(0.0322551 -0.0239523 0)
(0.0306995 -0.0348785 0)
(0.0290477 -0.0458058 0)
(0.0273008 -0.0567314 0)
(0.0254603 -0.0676529 0)
(0.0235279 -0.0785686 0)
(0.021506 -0.0894774 0)
(0.0193971 -0.100378 0)
(0.0172044 -0.111269 0)
(0.0149315 -0.122149 0)
(0.0125823 -0.133014 0)
(0.0101614 -0.14386 0)
(0.00767402 -0.154678 0)
(0.00512581 -0.16546 0)
(0.0543429 0.105714 0)
(0.0539067 0.0952513 0)
(0.0533973 0.0847421 0)
(0.0528083 0.0741856 0)
(0.0521336 0.0635825 0)
(0.0513683 0.0529355 0)
(0.0505079 0.0422483 0)
(0.0495488 0.0315258 0)
(0.0484882 0.0207732 0)
(0.047324 0.0099961 0)
(0.0460545 -0.000800103 0)
(0.0446788 -0.0116102 0)
(0.0431965 -0.0224297 0)
(0.0416076 -0.0332545 0)
(0.0399126 -0.0440812 0)
(0.0381125 -0.0549074 0)
(0.0362087 -0.0657312 0)
(0.0342029 -0.0765512 0)
(0.0320972 -0.0873666 0)
(0.0298943 -0.0981767 0)
(0.0275969 -0.108981 0)
(0.0252084 -0.119777 0)
(0.0227325 -0.130562 0)
(0.0201734 -0.141333 0)
(0.0175358 -0.152082 0)
(0.014825 -0.1628 0)
(0.0650016 0.106082 0)
(0.064633 0.0956922 0)
(0.0641858 0.0852624 0)
(0.0636525 0.0747919 0)
(0.0630269 0.0642806 0)
(0.0623032 0.0537304 0)
(0.0614767 0.0431442 0)
(0.0605432 0.032526 0)
(0.0594995 0.0218805 0)
(0.0583432 0.0112125 0)
(0.0570724 0.00052673 0)
(0.0556858 -0.0101722 0)
(0.0541829 -0.0208801 0)
(0.0525636 -0.0315936 0)
(0.0508282 -0.0423098 0)
(0.0489776 -0.0530265 0)
(0.0470131 -0.0637423 0)
(0.0449362 -0.0744562 0)
(0.042749 -0.0851678 0)
(0.0404539 -0.0958767 0)
(0.0380534 -0.106582 0)
(0.0355506 -0.117284 0)
(0.0329489 -0.127978 0)
(0.0302521 -0.138662 0)
(0.0274644 -0.149329 0)
(0.0245905 -0.15997 0)
(0.0756791 0.106381 0)
(0.075379 0.0960677 0)
(0.0749948 0.0857232 0)
(0.0745187 0.075345 0)
(0.0739437 0.0649325 0)
(0.0732636 0.0544865 0)
(0.072473 0.0440092 0)
(0.0715675 0.0335038 0)
(0.0705433 0.0229741 0)
(0.0693976 0.0124242 0)
(0.0681283 0.00185825 0)
(0.0667339 -0.00871984 0)
(0.0652135 -0.0193065 0)
(0.0635668 -0.0298988 0)
(0.061794 -0.0404943 0)
(0.0598959 -0.0510914 0)
(0.0578734 -0.0616888 0)
(0.0557281 -0.0722862 0)
(0.0534618 -0.0828833 0)
(0.0510765 -0.09348 0)
(0.0485747 -0.104076 0)
(0.0459591 -0.114671 0)
(0.0432327 -0.125263 0)
(0.0403987 -0.135847 0)
(0.0374611 -0.146419 0)
(0.0344237 -0.15697 0)
(0.0863769 0.106608 0)
(0.086146 0.0963769 0)
(0.0858258 0.0861232 0)
(0.085408 0.0758436 0)
(0.084885 0.0655364 0)
(0.0842501 0.0552018 0)
(0.0834974 0.0448411 0)
(0.0826221 0.0344566 0)
(0.0816199 0.0240512 0)
(0.0804876 0.0136283 0)
(0.0792227 0.0031914 0)
(0.0778235 -0.00725639 0)
(0.0762887 -0.0177121 0)
(0.0746178 -0.0281732 0)
(0.0728108 -0.0386379 0)
(0.0708682 -0.049105 0)
(0.0687908 -0.0595736 0)
(0.0665799 -0.0700436 0)
(0.0642369 -0.0805152 0)
(0.0617639 -0.0909887 0)
(0.0591627 -0.101464 0)
(0.0564358 -0.11194 0)
(0.0535858 -0.122417 0)
(0.0506154 -0.132889 0)
(0.0475279 -0.143352 0)
(0.0443267 -0.153799 0)
(0.0970981 0.106763 0)
(0.096937 0.0966192 0)
(0.0966816 0.0864616 0)
(0.0963231 0.0762863 0)
(0.0958534 0.066091 0)
(0.0952653 0.0558747 0)
(0.0945524 0.0456379 0)
(0.0937093 0.0353821 0)
(0.0927315 0.0251093 0)
(0.0916153 0.0148222 0)
(0.0903577 0.00452325 0)
(0.0889566 -0.00578489 0)
(0.0874106 -0.0161 0)
(0.0857187 -0.0264201 0)
(0.0838807 -0.0367438 0)
(0.0818968 -0.0470704 0)
(0.0797676 -0.0573995 0)
(0.0774939 -0.0677313 0)
(0.0750771 -0.0780663 0)
(0.0725186 -0.0884048 0)
(0.0698201 -0.0987471 0)
(0.0669836 -0.109093 0)
(0.064011 -0.119441 0)
(0.0609049 -0.129788 0)
(0.0576676 -0.140129 0)
(0.0543021 -0.150456 0)
(0.107847 0.106845 0)
(0.107757 0.0967939 0)
(0.107567 0.0867375 0)
(0.107269 0.0766723 0)
(0.106853 0.0665948 0)
(0.106314 0.0565034 0)
(0.105642 0.0463977 0)
(0.104833 0.0362782 0)
(0.103882 0.0261461 0)
(0.102785 0.016003 0)
(0.101537 0.00585092 0)
(0.100137 -0.0043084 0)
(0.0985828 -0.0144733 0)
(0.0968731 -0.0246425 0)
(0.0950074 -0.0348152 0)
(0.0929854 -0.0449909 0)
(0.0908073 -0.0551697 0)
(0.0884739 -0.0653522 0)
(0.0859858 -0.0755389 0)
(0.0833442 -0.0857306 0)
(0.0805505 -0.0959278 0)
(0.0776058 -0.10613 0)
(0.074512 -0.116337 0)
(0.0712705 -0.126544 0)
(0.0678834 -0.136748 0)
(0.064353 -0.146941 0)
(0.118629 0.106855 0)
(0.11861 0.0968998 0)
(0.118487 0.08695 0)
(0.118251 0.0770002 0)
(0.117891 0.0670466 0)
(0.117401 0.0570865 0)
(0.116773 0.0471187 0)
(0.116 0.0371427 0)
(0.115078 0.027159 0)
(0.114001 0.0171682 0)
(0.112766 0.00717159 0)
(0.11137 -0.00282988 0)
(0.109811 -0.0128352 0)
(0.108086 -0.0228438 0)
(0.106196 -0.0328551 0)
(0.104139 -0.0428694 0)
(0.101915 -0.0528871 0)
(0.0995244 -0.0629088 0)
(0.0969676 -0.0729356 0)
(0.0942453 -0.0829683 0)
(0.0913581 -0.0930076 0)
(0.0883068 -0.103053 0)
(0.0850925 -0.113104 0)
(0.0817162 -0.123158 0)
(0.0781791 -0.13321 0)
(0.0744827 -0.143253 0)
(0.12945 0.106789 0)
(0.129505 0.0969358 0)
(0.12945 0.0870977 0)
(0.129276 0.077269 0)
(0.128974 0.0674451 0)
(0.128535 0.0576225 0)
(0.127951 0.0477992 0)
(0.127217 0.0379738 0)
(0.126325 0.0281459 0)
(0.125271 0.0183155 0)
(0.124052 0.00848266 0)
(0.122662 -0.00135215 0)
(0.1211 -0.0111887 0)
(0.119364 -0.0210268 0)
(0.117452 -0.0308667 0)
(0.115363 -0.040709 0)
(0.113096 -0.0505544 0)
(0.110651 -0.0604039 0)
(0.108028 -0.0702587 0)
(0.105227 -0.0801199 0)
(0.102248 -0.0899881 0)
(0.099091 -0.0998632 0)
(0.0957569 -0.109744 0)
(0.0922457 -0.119629 0)
(0.0885581 -0.129513 0)
(0.0846947 -0.139389 0)
(0.140314 0.106645 0)
(0.140445 0.0968998 0)
(0.140461 0.087179 0)
(0.140352 0.077477 0)
(0.140109 0.0677886 0)
(0.139723 0.0581097 0)
(0.139186 0.0484374 0)
(0.138491 0.0387696 0)
(0.137632 0.0291049 0)
(0.136604 0.0194424 0)
(0.135402 0.00978167 0)
(0.134021 0.000122239 0)
(0.132459 -0.00953626 0)
(0.130714 -0.0191943 0)
(0.128782 -0.0288527 0)
(0.126664 -0.0385123 0)
(0.124356 -0.0481742 0)
(0.121859 -0.0578398 0)
(0.119172 -0.0675103 0)
(0.116293 -0.077187 0)
(0.113224 -0.0868705 0)
(0.109963 -0.096561 0)
(0.106509 -0.106257 0)
(0.102863 -0.115957 0)
(0.0990239 -0.125657 0)
(0.0949919 -0.135349 0)
(0.151226 0.10642 0)
(0.151438 0.0967889 0)
(0.151528 0.0871914 0)
(0.151486 0.0776221 0)
(0.151304 0.0680753 0)
(0.150973 0.0585463 0)
(0.150485 0.0490315 0)
(0.149832 0.039528 0)
(0.149008 0.0300337 0)
(0.148007 0.020547 0)
(0.146824 0.0110664 0)
(0.145455 0.00159097 0)
(0.143895 -0.00788041 0)
(0.142143 -0.0173488 0)
(0.140194 -0.0268154 0)
(0.138048 -0.0362816 0)
(0.135702 -0.0457487 0)
(0.133154 -0.0552184 0)
(0.130404 -0.064692 0)
(0.12745 -0.0741709 0)
(0.124291 -0.0836558 0)
(0.120926 -0.0931468 0)
(0.117352 -0.102643 0)
(0.113571 -0.112142 0)
(0.109579 -0.12164 0)
(0.105377 -0.131131 0)
(0.100963 -0.140606 0)
(0.0963386 -0.150055 0)
(0.0915038 -0.159464 0)
(0.162188 0.106109 0)
(0.162486 0.0965989 0)
(0.162654 0.0871315 0)
(0.162684 0.0777014 0)
(0.162566 0.0683025 0)
(0.162293 0.0589299 0)
(0.161855 0.0495793 0)
(0.161247 0.0402472 0)
(0.160459 0.0309306 0)
(0.159488 0.0216271 0)
(0.158327 0.0123348 0)
(0.15697 0.00305196 0)
(0.155415 -0.00622321 0)
(0.153657 -0.0154923 0)
(0.151694 -0.0247569 0)
(0.149522 -0.0340187 0)
(0.147138 -0.0432796 0)
(0.144542 -0.0525411 0)
(0.14173 -0.0618049 0)
(0.138701 -0.0710724 0)
(0.135452 -0.0803443 0)
(0.131983 -0.0896207 0)
(0.128289 -0.0989007 0)
(0.124371 -0.108182 0)
(0.120225 -0.117461 0)
(0.11585 -0.126732 0)
(0.111245 -0.135986 0)
(0.106408 -0.145214 0)
(0.101341 -0.154404 0)
(0.173197 0.105705 0)
(0.173588 0.096324 0)
(0.17384 0.0869945 0)
(0.173946 0.0777108 0)
(0.173897 0.0684671 0)
(0.173685 0.0592578 0)
(0.173302 0.0500784 0)
(0.17274 0.0409247 0)
(0.171992 0.0317932 0)
(0.171052 0.0226809 0)
(0.169914 0.013585 0)
(0.168573 0.00450337 0)
(0.167024 -0.00456638 0)
(0.165263 -0.0136263 0)
(0.163285 -0.0226786 0)
(0.161088 -0.0317251 0)
(0.158669 -0.0407679 0)
(0.156025 -0.0498088 0)
(0.153151 -0.0588497 0)
(0.150047 -0.0678917 0)
(0.146709 -0.0769358 0)
(0.143134 -0.0859819 0)
(0.13932 -0.0950293 0)
(0.135263 -0.104076 0)
(0.13096 -0.113117 0)
(0.12641 -0.122149 0)
(0.12161 -0.131162 0)
(0.116559 -0.140149 0)
(0.111256 -0.149098 0)
(0.184244 0.105199 0)
(0.184737 0.0959567 0)
(0.185082 0.0867739 0)
(0.185271 0.0776451 0)
(0.185297 0.0685643 0)
(0.185151 0.0595261 0)
(0.184826 0.0505255 0)
(0.184314 0.0415578 0)
(0.183609 0.0326192 0)
(0.182703 0.0237061 0)
(0.18159 0.0148151 0)
(0.180266 0.00594355 0)
(0.178724 -0.0029114 0)
(0.17696 -0.0117523 0)
(0.17497 -0.0205815 0)
(0.17275 -0.0294014 0)
(0.170295 -0.0382142 0)
(0.167602 -0.0470219 0)
(0.164668 -0.0558262 0)
(0.161488 -0.0646285 0)
(0.15806 -0.0734295 0)
(0.154379 -0.0822294 0)
(0.150441 -0.0910272 0)
(0.146244 -0.0998207 0)
(0.141783 -0.108606 0)
(0.137055 -0.117379 0)
(0.132057 -0.126132 0)
(0.126788 -0.134857 0)
(0.121245 -0.143544 0)
(0.195315 0.104579 0)
(0.195923 0.0954873 0)
(0.19637 0.0864616 0)
(0.196651 0.0774972 0)
(0.196758 0.0685884 0)
(0.196684 0.0597299 0)
(0.196423 0.0509164 0)
(0.195965 0.0421431 0)
(0.195306 0.0334058 0)
(0.194437 0.0247003 0)
(0.193352 0.0160232 0)
(0.192046 0.00737089 0)
(0.190513 -0.0012596 0)
(0.188748 -0.00987115 0)
(0.186746 -0.0184665 0)
(0.184502 -0.0270483 0)
(0.182012 -0.0356188 0)
(0.179271 -0.0441801 0)
(0.176274 -0.052734 0)
(0.173018 -0.0612818 0)
(0.169498 -0.0698243 0)
(0.16571 -0.0783615 0)
(0.161647 -0.0868925 0)
(0.157308 -0.095415 0)
(0.152686 -0.103926 0)
(0.147777 -0.11242 0)
(0.142579 -0.120892 0)
(0.137087 -0.129334 0)
(0.131301 -0.137737 0)
(0.206387 0.103832 0)
(0.207122 0.0949037 0)
(0.207684 0.0860472 0)
(0.208067 0.0772583 0)
(0.208265 0.0685319 0)
(0.208272 0.0598628 0)
(0.20808 0.0512459 0)
(0.207682 0.0426763 0)
(0.207073 0.0341494 0)
(0.206244 0.0256609 0)
(0.20519 0.0172069 0)
(0.203905 0.00878368 0)
(0.202383 0.000387865 0)
(0.200618 -0.00798367 0)
(0.198604 -0.0163339 0)
(0.196337 -0.0246656 0)
(0.193811 -0.0329812 0)
(0.191021 -0.0412827 0)
(0.187962 -0.0495721 0)
(0.184628 -0.0578505 0)
(0.181015 -0.0661186 0)
(0.177117 -0.0743765 0)
(0.172928 -0.082623 0)
(0.168443 -0.0908563 0)
(0.163658 -0.0990733 0)
(0.158566 -0.10727 0)
(0.153164 -0.11544 0)
(0.147449 -0.123577 0)
(0.141417 -0.131675 0)
(0.217425 0.102942 0)
(0.218305 0.0941917 0)
(0.218997 0.0855181 0)
(0.219495 0.0769175 0)
(0.219795 0.0683855 0)
(0.219891 0.0599171 0)
(0.219776 0.0515075 0)
(0.219445 0.0431518 0)
(0.218891 0.0348455 0)
(0.218108 0.0265841 0)
(0.217088 0.0183636 0)
(0.215826 0.0101799 0)
(0.214316 0.00202962 0)
(0.212552 -0.00609069 0)
(0.210528 -0.0141841 0)
(0.208238 -0.0222533 0)
(0.205676 -0.030301 0)
(0.202836 -0.038329 0)
(0.199713 -0.0463393 0)
(0.196301 -0.054333 0)
(0.192593 -0.0623107 0)
(0.188583 -0.0702723 0)
(0.184266 -0.0782167 0)
(0.179635 -0.0861423 0)
(0.174683 -0.0940461 0)
(0.169407 -0.101924 0)
(0.1638 -0.109772 0)
(0.157859 -0.117584 0)
(0.151581 -0.125355 0)
(0.228387 0.101889 0)
(0.22943 0.0933347 0)
(0.230268 0.0848597 0)
(0.230896 0.0764621 0)
(0.23131 0.068138 0)
(0.231507 0.0598831 0)
(0.23148 0.051693 0)
(0.231223 0.043563 0)
(0.230732 0.0354887 0)
(0.229999 0.0274657 0)
(0.229018 0.0194897 0)
(0.227783 0.011557 0)
(0.226288 0.00366375 0)
(0.224527 -0.00419338 0)
(0.222493 -0.0120175 0)
(0.22018 -0.0198115 0)
(0.217582 -0.0275777 0)
(0.214692 -0.0353182 0)
(0.211504 -0.0430346 0)
(0.208012 -0.050728 0)
(0.204208 -0.0583989 0)
(0.200086 -0.0660472 0)
(0.195639 -0.0736719 0)
(0.190859 -0.0812713 0)
(0.185742 -0.0888429 0)
(0.180279 -0.0963833 0)
(0.174467 -0.103889 0)
(0.168301 -0.111355 0)
(0.161778 -0.118779 0)
(0.239216 0.100653 0)
(0.240443 0.0923136 0)
(0.241445 0.0840552 0)
(0.24222 0.0758771 0)
(0.242764 0.0677764 0)
(0.243074 0.0597496 0)
(0.243146 0.0517928 0)
(0.242974 0.0439018 0)
(0.242553 0.0360722 0)
(0.241877 0.0283 0)
(0.24094 0.0205811 0)
(0.239737 0.0129115 0)
(0.23826 0.0052878 0)
(0.236504 -0.00229345 0)
(0.234462 -0.0098353 0)
(0.232128 -0.0173405 0)
(0.229494 -0.0248113 0)
(0.226555 -0.0322496 0)
(0.223302 -0.0396571 0)
(0.219729 -0.0470345 0)
(0.215829 -0.0543824 0)
(0.211594 -0.0617004 0)
(0.207016 -0.0689877 0)
(0.202089 -0.0762427 0)
(0.196805 -0.0834634 0)
(0.191158 -0.0906471 0)
(0.185143 -0.0977909 0)
(0.178754 -0.104892 0)
(0.17199 -0.11195 0)
(0.249846 0.0992125 0)
(0.251279 0.0911081 0)
(0.252466 0.0830858 0)
(0.253406 0.0751457 0)
(0.254096 0.0672858 0)
(0.254535 0.0595036 0)
(0.254718 0.0517956 0)
(0.254641 0.0441583 0)
(0.254301 0.0365878 0)
(0.25369 0.0290803 0)
(0.252805 0.0216319 0)
(0.251638 0.0142391 0)
(0.250184 0.00689835 0)
(0.248437 -0.000393507 0)
(0.24639 -0.00763922 0)
(0.244036 -0.0148415 0)
(0.241369 -0.0220025 0)
(0.23838 -0.0291239 0)
(0.235063 -0.036207 0)
(0.231411 -0.0432526 0)
(0.227415 -0.050261 0)
(0.223067 -0.057232 0)
(0.218361 -0.0641646 0)
(0.213288 -0.0710577 0)
(0.20784 -0.0779095 0)
(0.202013 -0.0847182 0)
(0.195799 -0.091482 0)
(0.189194 -0.0982001 0)
(0.182197 -0.104873 0)
(0.260198 0.0975424 0)
(0.26186 0.0896962 0)
(0.263254 0.0819315 0)
(0.264378 0.0742497 0)
(0.265232 0.0666499 0)
(0.265815 0.0591303 0)
(0.266124 0.0516884 0)
(0.266156 0.0443214 0)
(0.265907 0.0370257 0)
(0.265371 0.0297982 0)
(0.264545 0.0226354 0)
(0.263423 0.0155339 0)
(0.261998 0.00849074 0)
(0.260264 0.00150285 0)
(0.258216 -0.00543217 0)
(0.255846 -0.0123169 0)
(0.253148 -0.0191532 0)
(0.250113 -0.0259424 0)
(0.246735 -0.0326857 0)
(0.243005 -0.0393838 0)
(0.238916 -0.0460367 0)
(0.23446 -0.0526442 0)
(0.229628 -0.0592056 0)
(0.224414 -0.0657199 0)
(0.218809 -0.0721859 0)
(0.212808 -0.0786028 0)
(0.206404 -0.08497 0)
(0.199595 -0.0912883 0)
(0.192379 -0.0975604 0)
(0.270185 0.0956194 0)
(0.272099 0.0880554 0)
(0.27372 0.0805714 0)
(0.275049 0.0731698 0)
(0.276086 0.0658509 0)
(0.276831 0.0586138 0)
(0.277282 0.051457 0)
(0.277436 0.0443783 0)
(0.277291 0.0373749 0)
(0.276841 0.0304441 0)
(0.276084 0.0235831 0)
(0.275014 0.0167888 0)
(0.273626 0.0100587 0)
(0.271913 0.0033902 0)
(0.269869 -0.00321886 0)
(0.267488 -0.00977089 0)
(0.264764 -0.0162672 0)
(0.261688 -0.0227089 0)
(0.258253 -0.029097 0)
(0.254451 -0.0354319 0)
(0.250274 -0.0417137 0)
(0.245716 -0.0479421 0)
(0.240766 -0.0541165 0)
(0.23542 -0.0602365 0)
(0.229668 -0.0663015 0)
(0.223506 -0.0723116 0)
(0.216928 -0.0782676 0)
(0.209932 -0.0841723 0)
(0.202517 -0.090031 0)
(0.279711 0.09342 0)
(0.281899 0.0861634 0)
(0.28377 0.0789843 0)
(0.285324 0.0718862 0)
(0.286563 0.0648705 0)
(0.287487 0.0579373 0)
(0.288095 0.051086 0)
(0.288387 0.0443151 0)
(0.288359 0.0376227 0)
(0.288008 0.0310068 0)
(0.287332 0.0244649 0)
(0.286324 0.0179948 0)
(0.284981 0.0115942 0)
(0.283298 0.00526105 0)
(0.281267 -0.00100676 0)
(0.278883 -0.00720999 0)
(0.276139 -0.0133505 0)
(0.273029 -0.0194294 0)
(0.269545 -0.0254471 0)
(0.26568 -0.0314038 0)
(0.261426 -0.0372997 0)
(0.256775 -0.0431345 0)
(0.251721 -0.0489079 0)
(0.246256 -0.0546199 0)
(0.240375 -0.0602708 0)
(0.234071 -0.0658616 0)
(0.227342 -0.071395 0)
(0.220185 -0.0768756 0)
(0.212601 -0.0823113 0)
(0.288676 0.0909224 0)
(0.291159 0.083999 0)
(0.293299 0.0771499 0)
(0.295097 0.0703796 0)
(0.296556 0.0636904 0)
(0.297677 0.0570836 0)
(0.29846 0.0505593 0)
(0.298905 0.044117 0)
(0.299009 0.0377555 0)
(0.298771 0.0314735 0)
(0.298187 0.0252693 0)
(0.297254 0.0191411 0)
(0.295968 0.0130873 0)
(0.294324 0.00710633 0)
(0.292317 0.00119652 0)
(0.289941 -0.00464246 0)
(0.28719 -0.0104122 0)
(0.284057 -0.0161133 0)
(0.280536 -0.0217462 0)
(0.276621 -0.0273109 0)
(0.272304 -0.0328075 0)
(0.267578 -0.0382359 0)
(0.262438 -0.0435963 0)
(0.256877 -0.0488892 0)
(0.250891 -0.0541157 0)
(0.244475 -0.0592784 0)
(0.237627 -0.0643813 0)
(0.230348 -0.0694314 0)
(0.222637 -0.0744392 0)
(0.296978 0.088107 0)
(0.299774 0.0815427 0)
(0.302201 0.075049 0)
(0.304261 0.0686313 0)
(0.305958 0.0622928 0)
(0.307292 0.0560356 0)
(0.308266 0.0498607 0)
(0.308879 0.0437685 0)
(0.309131 0.0377586 0)
(0.30902 0.0318304 0)
(0.308544 0.0259829 0)
(0.3077 0.0202151 0)
(0.306485 0.0145257 0)
(0.304894 0.00891383 0)
(0.302925 0.00337867 0)
(0.300571 -0.00208103 0)
(0.297827 -0.00746537 0)
(0.294689 -0.0127749 0)
(0.291149 -0.0180098 0)
(0.287204 -0.0231703 0)
(0.282846 -0.0282563 0)
(0.278071 -0.0332682 0)
(0.272874 -0.0382067 0)
(0.267249 -0.0430728 0)
(0.261195 -0.0478689 0)
(0.254708 -0.0525987 0)
(0.247789 -0.0572682 0)
(0.240437 -0.0618864 0)
(0.232658 -0.0664666 0)
(0.304517 0.0849578 0)
(0.30764 0.0787782 0)
(0.310369 0.0726652 0)
(0.312707 0.0666247 0)
(0.314657 0.060661 0)
(0.316221 0.0547768 0)
(0.317402 0.0489741 0)
(0.318199 0.0432538 0)
(0.318615 0.0376166 0)
(0.318647 0.0320623 0)
(0.318294 0.0265907 0)
(0.317556 0.0212014 0)
(0.316429 0.0158938 0)
(0.31491 0.0106673 0)
(0.312997 0.00552163 0)
(0.310686 0.000456008 0)
(0.307972 -0.00452942 0)
(0.304852 -0.00943511 0)
(0.301321 -0.0142611 0)
(0.297375 -0.0190077 0)
(0.29301 -0.0236751 0)
(0.288223 -0.0282639 0)
(0.28301 -0.0327754 0)
(0.277369 -0.0372117 0)
(0.271298 -0.0415761 0)
(0.264798 -0.0458738 0)
(0.25787 -0.0501126 0)
(0.250517 -0.0543035 0)
(0.242745 -0.0584623 0)
(0.311199 0.0814625 0)
(0.31466 0.0756922 0)
(0.317703 0.0699843 0)
(0.320332 0.0643453 0)
(0.322549 0.05878 0)
(0.324357 0.0532919 0)
(0.325761 0.0478835 0)
(0.32676 0.0425567 0)
(0.327356 0.0373125 0)
(0.32755 0.0321517 0)
(0.327341 0.0270746 0)
(0.326729 0.0220812 0)
(0.325713 0.0171716 0)
(0.32429 0.0123455 0)
(0.322461 0.00760303 0)
(0.320221 0.00294389 0)
(0.31757 -0.00163208 0)
(0.314504 -0.0061246 0)
(0.31102 -0.0105341 0)
(0.307118 -0.014861 0)
(0.302795 -0.0191058 0)
(0.298049 -0.0232698 0)
(0.29288 -0.0273547 0)
(0.287288 -0.0313637 0)
(0.281272 -0.0353012 0)
(0.274837 -0.0391739 0)
(0.267985 -0.042991 0)
(0.260722 -0.0467656 0)
(0.253054 -0.0505155 0)
(0.316944 0.0776128 0)
(0.32075 0.0722748 0)
(0.324118 0.0669951 0)
(0.327049 0.0617803 0)
(0.329546 0.0566357 0)
(0.331615 0.0515653 0)
(0.333259 0.0465723 0)
(0.334479 0.0416589 0)
(0.335277 0.0368269 0)
(0.335657 0.0320775 0)
(0.335618 0.0274114 0)
(0.335161 0.0228293 0)
(0.334288 0.0183315 0)
(0.332998 0.0139182 0)
(0.331291 0.00958962 0)
(0.329167 0.00534574 0)
(0.326625 0.00118643 0)
(0.323666 -0.0028881 0)
(0.320289 -0.00687835 0)
(0.316494 -0.010785 0)
(0.312282 -0.0146091 0)
(0.307654 -0.0183524 0)
(0.302611 -0.0220175 0)
(0.297156 -0.0256083 0)
(0.291292 -0.0291304 0)
(0.285024 -0.0325916 0)
(0.278358 -0.0360028 0)
(0.2713 -0.0393785 0)
(0.263858 -0.0427383 0)
(0.321701 0.0734031 0)
(0.325861 0.0685181 0)
(0.329563 0.063687 0)
(0.33281 0.0589168 0)
(0.335606 0.0542127 0)
(0.337955 0.0495793 0)
(0.339862 0.0450198 0)
(0.34133 0.0405372 0)
(0.342363 0.0361334 0)
(0.342963 0.0318101 0)
(0.343133 0.0275683 0)
(0.342877 0.0234091 0)
(0.342195 0.0193329 0)
(0.341091 0.0153404 0)
(0.339566 0.0114316 0)
(0.337622 0.00760674 0)
(0.335261 0.0038658 0)
(0.332486 0.000208314 0)
(0.329299 -0.00336613 0)
(0.325702 -0.00685851 0)
(0.321698 -0.0102704 0)
(0.317291 -0.013604 0)
(0.312486 -0.0168627 0)
(0.307287 -0.0200513 0)
(0.301699 -0.0231762 0)
(0.295728 -0.0262463 0)
(0.289383 -0.0292735 0)
(0.282671 -0.0322733 0)
(0.275601 -0.0352665 0)
(0.325493 0.0688261 0)
(0.330021 0.0644111 0)
(0.334077 0.0600456 0)
(0.337663 0.0557363 0)
(0.340786 0.0514886 0)
(0.34345 0.047307 0)
(0.34566 0.0431951 0)
(0.347421 0.0391558 0)
(0.348737 0.0351915 0)
(0.349615 0.0313038 0)
(0.350057 0.0274943 0)
(0.350069 0.0237639 0)
(0.349654 0.0201135 0)
(0.348818 0.0165434 0)
(0.347564 0.0130539 0)
(0.345896 0.00964527 0)
(0.343819 0.00631717 0)
(0.341338 0.00306909 0)
(0.338457 -9.97705e-05 0)
(0.335181 -0.00319071 0)
(0.331516 -0.00620571 0)
(0.327468 -0.00914752 0)
(0.323043 -0.01202 0)
(0.318246 -0.0148285 0)
(0.313087 -0.0175801 0)
(0.307571 -0.0202845 0)
(0.301708 -0.0229539 0)
(0.295505 -0.0256047 0)
(0.288971 -0.0282577 0)
(0.328527 0.0638641 0)
(0.333456 0.0599307 0)
(0.337907 0.056042 0)
(0.341881 0.0522042 0)
(0.345384 0.0484226 0)
(0.348423 0.0447015 0)
(0.351005 0.0410445 0)
(0.353135 0.0374546 0)
(0.354819 0.0339342 0)
(0.356064 0.030485 0)
(0.356877 0.0271085 0)
(0.357263 0.0238058 0)
(0.357229 0.0205776 0)
(0.356781 0.0174245 0)
(0.355925 0.0143467 0)
(0.354668 0.0113441 0)
(0.353016 0.00841645 0)
(0.350976 0.00556305 0)
(0.348554 0.00278284 0)
(0.345759 7.42469e-05 0)
(0.342596 -0.00256506 0)
(0.339073 -0.00513828 0)
(0.335198 -0.00764946 0)
(0.330979 -0.010104 0)
(0.326423 -0.0125096 0)
(0.321538 -0.0148759 0)
(0.316332 -0.0172156 0)
(0.310813 -0.0195445 0)
(0.304989 -0.0218835 0)
(0.331444 0.0584721 0)
(0.336848 0.0550246 0)
(0.341773 0.0516162 0)
(0.346222 0.0482528 0)
(0.350203 0.044939 0)
(0.353723 0.0416792 0)
(0.356788 0.0384766 0)
(0.359408 0.0353341 0)
(0.361588 0.032254 0)
(0.363337 0.029238 0)
(0.364663 0.0262876 0)
(0.365573 0.0234038 0)
(0.366076 0.0205874 0)
(0.366178 0.0178388 0)
(0.365888 0.0151582 0)
(0.365214 0.0125456 0)
(0.364164 0.0100003 0)
(0.362745 0.00752187 0)
(0.360966 0.00510893 0)
(0.358834 0.00275983 0)
(0.356359 0.000472179 0)
(0.353547 -0.0017573 0)
(0.350408 -0.00393338 0)
(0.346949 -0.00606072 0)
(0.343177 -0.00814688 0)
(0.3391 -0.0102015 0)
(0.334725 -0.0122367 0)
(0.330058 -0.0142678 0)
(0.325105 -0.0163145 0)
(0.335801 0.0525581 0)
(0.341803 0.0495922 0)
(0.347335 0.0466592 0)
(0.3524 0.0437645 0)
(0.357005 0.0409123 0)
(0.361159 0.0381063 0)
(0.364869 0.0353497 0)
(0.368145 0.0326451 0)
(0.370993 0.0299947 0)
(0.373423 0.0274001 0)
(0.375443 0.0248628 0)
(0.377062 0.0223837 0)
(0.378288 0.0199636 0)
(0.379131 0.0176029 0)
(0.379597 0.0153018 0)
(0.379697 0.0130601 0)
(0.379438 0.0108775 0)
(0.378829 0.00875323 0)
(0.377879 0.00668608 0)
(0.376595 0.0046744 0)
(0.374986 0.00271597 0)
(0.37306 0.000807758 0)
(0.370825 -0.00105432 0)
(0.368288 -0.00287683 0)
(0.365456 -0.00466538 0)
(0.362335 -0.00642875 0)
(0.358931 -0.0081783 0)
(0.355247 -0.0099282 0)
(0.351288 -0.0116968 0)
(0.344813 0.0459741 0)
(0.351576 0.0434783 0)
(0.357882 0.0410092 0)
(0.363733 0.0385712 0)
(0.369137 0.0361683 0)
(0.374103 0.0338036 0)
(0.378637 0.0314801 0)
(0.382748 0.0292002 0)
(0.386445 0.0269658 0)
(0.389736 0.0247786 0)
(0.392629 0.0226398 0)
(0.395133 0.0205506 0)
(0.397257 0.0185116 0)
(0.399008 0.0165232 0)
(0.400397 0.0145858 0)
(0.40143 0.0126993 0)
(0.402116 0.0108632 0)
(0.402464 0.00907703 0)
(0.402482 0.00733968 0)
(0.402178 0.00564965 0)
(0.401559 0.00400491 0)
(0.400633 0.00240269 0)
(0.399406 0.000839758 0)
(0.397885 -0.000689893 0)
(0.396078 -0.00219258 0)
(0.393988 -0.00367536 0)
(0.391619 -0.00514809 0)
(0.388973 -0.00662347 0)
(0.386053 -0.00811802 0)
(0.364198 0.0385507 0)
(0.371849 0.0365113 0)
(0.379054 0.0344928 0)
(0.385815 0.0324989 0)
(0.392138 0.0305329 0)
(0.398032 0.0285978 0)
(0.403502 0.0266961 0)
(0.408558 0.02483 0)
(0.413205 0.0230013 0)
(0.417452 0.0212114 0)
(0.421307 0.0194617 0)
(0.424777 0.0177532 0)
(0.427872 0.0160864 0)
(0.430598 0.0144621 0)
(0.432964 0.0128803 0)
(0.434978 0.0113412 0)
(0.436648 0.00984455 0)
(0.437981 0.00838974 0)
(0.438986 0.00697595 0)
(0.439669 0.00560195 0)
(0.440039 0.00426589 0)
(0.440102 0.00296549 0)
(0.439864 0.00169713 0)
(0.439331 0.000457901 0)
(0.438508 -0.000759786 0)
(0.437401 -0.00196185 0)
(0.436012 -0.00315638 0)
(0.434342 -0.00435427 0)
(0.43239 -0.00556978 0)
(0.402605 0.030213 0)
(0.411078 0.0286205 0)
(0.419111 0.027044 0)
(0.426704 0.025487 0)
(0.433862 0.023952 0)
(0.440593 0.0224415 0)
(0.446902 0.0209576 0)
(0.452795 0.0195023 0)
(0.458279 0.018077 0)
(0.463362 0.0166832 0)
(0.46805 0.0153219 0)
(0.472352 0.013994 0)
(0.476273 0.0127002 0)
(0.479824 0.011441 0)
(0.48301 0.0102166 0)
(0.48584 0.00902706 0)
(0.488322 0.00787216 0)
(0.490464 0.00675146 0)
(0.492272 0.00566422 0)
(0.493756 0.0046095 0)
(0.494921 0.0035859 0)
(0.495775 0.00259155 0)
(0.496325 0.00162307 0)
(0.496575 0.000678347 0)
(0.49653 -0.000249292 0)
(0.496198 -0.00116427 0)
(0.495579 -0.00207361 0)
(0.494673 -0.00298631 0)
(0.49348 -0.00391398 0)
(0.470746 0.0211694 0)
(0.479575 0.0200213 0)
(0.487967 0.018886 0)
(0.495921 0.0177659 0)
(0.503444 0.0166631 0)
(0.510539 0.0155793 0)
(0.517213 0.0145163 0)
(0.523471 0.0134754 0)
(0.529321 0.012458 0)
(0.534768 0.011465 0)
(0.53982 0.0104973 0)
(0.544485 0.00955555 0)
(0.548771 0.00864023 0)
(0.552685 0.00775168 0)
(0.556236 0.0068901 0)
(0.559431 0.00605549 0)
(0.56228 0.00524764 0)
(0.56479 0.00446601 0)
(0.566969 0.00370971 0)
(0.568827 0.00297788 0)
(0.570371 0.00227001 0)
(0.571608 0.00158469 0)
(0.572546 0.000918586 0)
(0.573187 0.000267832 0)
(0.573541 -0.000366273 0)
(0.573614 -0.000990163 0)
(0.573407 -0.00161087 0)
(0.572919 -0.00223521 0)
(0.572152 -0.00287174 0)
(0.578325 0.0120851 0)
(0.586477 0.0113797 0)
(0.594212 0.0106839 0)
(0.601532 0.00999952 0)
(0.608439 0.00932777 0)
(0.614941 0.0086698 0)
(0.621043 0.00802662 0)
(0.626751 0.00739911 0)
(0.632073 0.00678804 0)
(0.637016 0.00619399 0)
(0.641587 0.00561744 0)
(0.645796 0.00505873 0)
(0.64965 0.00451811 0)
(0.653159 0.0039957 0)
(0.65633 0.00349154 0)
(0.659174 0.00300553 0)
(0.6617 0.00253752 0)
(0.663915 0.00208716 0)
(0.665829 0.00165338 0)
(0.667452 0.00123467 0)
(0.668793 0.00083115 0)
(0.669857 0.00044107 0)
(0.670652 6.50338e-05 0)
(0.671188 -0.000300771 0)
(0.671472 -0.000655799 0)
(0.671503 -0.001005 0)
(0.671286 -0.00135321 0)
(0.670823 -0.00170499 0)
(0.670114 -0.00206611 0)
(0.728328 0.00435991 0)
(0.734251 0.00405826 0)
(0.739832 0.00376256 0)
(0.745073 0.00347368 0)
(0.74998 0.00319224 0)
(0.754559 0.00291862 0)
(0.758817 0.00265318 0)
(0.76276 0.00239621 0)
(0.766397 0.00214798 0)
(0.769735 0.00190863 0)
(0.772782 0.00167829 0)
(0.775547 0.00145697 0)
(0.778038 0.00124466 0)
(0.780263 0.00104127 0)
(0.782233 0.00084667 0)
(0.783955 0.000660612 0)
(0.785439 0.000482993 0)
(0.786691 0.000313693 0)
(0.787721 0.000153602 0)
(0.788538 2.59355e-06 0)
(0.78915 -0.00014275 0)
(0.789563 -0.00028433 0)
(0.789786 -0.000420413 0)
(0.789822 -0.000550411 0)
(0.789678 -0.000678825 0)
(0.789355 -0.000806315 0)
(0.788858 -0.000934359 0)
(0.788184 -0.00106534 0)
(0.787334 -0.00120247 0)
(0.909492 0.000531712 0)
(0.911598 0.000472573 0)
(0.913542 0.000415391 0)
(0.915328 0.000360393 0)
(0.91696 0.000307707 0)