/*--------------------------------*- C++ -*----------------------------------*\
  =========                 |
  \\      /  F ield         | OpenFOAM: The Open Source CFD Toolbox
   \\    /   O peration     | Website:  https://openfoam.org
    \\  /    A nd           | Version:  9
     \\/     M anipulation  |
\*---------------------------------------------------------------------------*/
FoamFile
{
    format      ascii;
    class       volScalarField;
    location    "0.25";
    object      p;
}
// * * * * * * * * * * * * * * * * * * * * * * * * * * * * * * * * * * * * * //

dimensions      [0 2 -2 0 0 0 0];

internalField   nonuniform List<scalar> 
1250
(
-0.00609713
-0.0061413
-0.00618952
-0.00624197
-0.00629881
-0.00636021
-0.00642634
-0.0064974
-0.00657358
-0.00665512
-0.00674228
-0.00683533
-0.00693459
-0.00704041
-0.00715319
-0.00727337
-0.00740166
-0.00753875
-0.00584222
-0.00589617
-0.0059323
-0.00595915
-0.00598008
-0.00599517
-0.0060051
-0.00601092
-0.0060137
-0.00601446
-0.00601414
-0.00601358
-0.0060135
-0.00601449
-0.00601707
-0.00602164
-0.00602855
-0.00603808
-0.00605048
-0.00606596
-0.0060847
-0.00610688
-0.00613265
-0.00616219
-0.00619564
-0.00623316
-0.00627489
-0.00632091
-0.0063714
-0.00642656
-0.00648658
-0.00655162
-0.00662189
-0.00669762
-0.00677902
-0.00686638
-0.00695999
-0.00706016
-0.00716728
-0.00728174
-0.00740399
-0.00753456
-0.00767426
-0.00782395
-0.006043
-0.00610074
-0.00613895
-0.0061668
-0.00618788
-0.00620232
-0.00621088
-0.00621475
-0.00621515
-0.00621323
-0.00621006
-0.00620657
-0.00620359
-0.00620179
-0.00620172
-0.00620384
-0.00620854
-0.00621613
-0.00622687
-0.00624099
-0.0062587
-0.00628018
-0.00630562
-0.00633516
-0.00636899
-0.00640727
-0.00645011
-0.00649765
-0.0065501
-0.00660767
-0.00667053
-0.00673889
-0.00681297
-0.00689301
-0.00697929
-0.0070721
-0.00717177
-0.00727867
-0.00739321
-0.00751586
-0.00764712
-0.00778757
-0.00793812
-0.00809981
-0.00625115
-0.00631321
-0.00635374
-0.00638261
-0.00640372
-0.00641722
-0.006424
-0.00642543
-0.00642287
-0.00641766
-0.00641099
-0.00640394
-0.00639742
-0.00639219
-0.00638888
-0.00638798
-0.00638991
-0.00639503
-0.00640361
-0.00641591
-0.00643214
-0.00645249
-0.00647716
-0.00650632
-0.00654013
-0.00657876
-0.00662236
-0.0066711
-0.00672518
-0.00678479
-0.00685014
-0.00692145
-0.00699897
-0.00708295
-0.0071737
-0.00727155
-0.00737685
-0.00749002
-0.0076115
-0.00774182
-0.00788153
-0.00803127
-0.00819206
-0.00836505
-0.0064676
-0.00653459
-0.0065777
-0.00660761
-0.00662857
-0.00664079
-0.00664531
-0.00664368
-0.0066375
-0.00662826
-0.00661735
-0.00660599
-0.00659521
-0.00658584
-0.0065786
-0.00657403
-0.00657259
-0.00657466
-0.00658054
-0.00659049
-0.00660475
-0.00662352
-0.00664698
-0.00667532
-0.0067087
-0.00674731
-0.0067913
-0.00684085
-0.00689616
-0.00695744
-0.00702489
-0.00709876
-0.00717931
-0.00726682
-0.00736161
-0.00746403
-0.00757448
-0.0076934
-0.00782129
-0.0079587
-0.00810623
-0.00826459
-0.00843489
-0.00861839
-0.00669346
-0.00676611
-0.0068121
-0.00684306
-0.00686365
-0.00687415
-0.00687579
-0.00687038
-0.00685974
-0.00684563
-0.00682961
-0.00681308
-0.00679719
-0.00678288
-0.00677095
-0.00676199
-0.0067565
-0.00675488
-0.00675747
-0.00676452
-0.00677628
-0.00679296
-0.00681475
-0.00684183
-0.00687436
-0.00691253
-0.0069565
-0.00700646
-0.0070626
-0.00712513
-0.00719427
-0.00727028
-0.00735343
-0.00744401
-0.00754237
-0.00764888
-0.00776396
-0.00788808
-0.00802177
-0.00816563
-0.0083203
-0.00848653
-0.00866553
-0.00885865
-0.00693004
-0.00700922
-0.00705844
-0.00709043
-0.00711034
-0.00711857
-0.00711659
-0.0071065
-0.00709045
-0.00707044
-0.00704829
-0.00702558
-0.00700361
-0.00698346
-0.00696597
-0.00695182
-0.00694154
-0.00693555
-0.00693419
-0.00693775
-0.00694646
-0.00696053
-0.00698015
-0.00700549
-0.00703672
-0.00707402
-0.00711755
-0.00716748
-0.00722403
-0.00728739
-0.0073578
-0.00743551
-0.00752079
-0.00761398
-0.00771541
-0.00782548
-0.00794462
-0.00807334
-0.00821219
-0.00836181
-0.00852287
-0.00869617
-0.00888298
-0.00908476
-0.00717895
-0.0072657
-0.00731853
-0.0073515
-0.00737034
-0.00737559
-0.00736905
-0.0073532
-0.00733054
-0.00730342
-0.00727394
-0.00724389
-0.00721475
-0.00718771
-0.00716371
-0.00714348
-0.00712759
-0.00711647
-0.00711048
-0.0071099
-0.00711497
-0.00712588
-0.00714281
-0.00716593
-0.0071954
-0.00723137
-0.00727402
-0.0073235
-0.00738002
-0.00744378
-0.007515
-0.00759395
-0.00768091
-0.0077762
-0.00788017
-0.00799325
-0.00811587
-0.00824856
-0.0083919
-0.00854654
-0.00871321
-0.00889271
-0.00908639
-0.00929579
-0.00744211
-0.00753769
-0.00759459
-0.00762842
-0.00764563
-0.00764702
-0.00763474
-0.00761178
-0.00758109
-0.00754542
-0.00750718
-0.00746844
-0.00743086
-0.00739577
-0.00736419
-0.0073369
-0.0073145
-0.00729744
-0.00728608
-0.00728069
-0.00728149
-0.00728867
-0.00730238
-0.00732278
-0.00735
-0.0073842
-0.00742551
-0.0074741
-0.00753015
-0.00759386
-0.00766545
-0.00774517
-0.00783331
-0.00793019
-0.00803617
-0.00815168
-0.00827717
-0.00841318
-0.0085603
-0.00871922
-0.00889065
-0.00907546
-0.00927504
-0.00949099
-0.00772188
-0.0078278
-0.00788928
-0.00792378
-0.00793864
-0.00793498
-0.00791549
-0.00788376
-0.0078433
-0.00779733
-0.00774867
-0.00769967
-0.0076522
-0.00760773
-0.00756736
-0.00753194
-0.00750206
-0.0074782
-0.00746069
-0.00744978
-0.00744567
-0.00744853
-0.00745848
-0.00747564
-0.00750014
-0.00753209
-0.00757162
-0.00761887
-0.00767401
-0.00773722
-0.00780872
-0.00788874
-0.00797756
-0.00807552
-0.00818297
-0.00830032
-0.00842806
-0.00856672
-0.0087169
-0.00887931
-0.00905468
-0.00924387
-0.00944834
-0.00966974
-0.00802113
-0.00813927
-0.0082059
-0.00824073
-0.00825224
-0.00824201
-0.00821343
-0.00817085
-0.00811848
-0.00806014
-0.00799909
-0.00793801
-0.00787899
-0.00782365
-0.00777317
-0.00772842
-0.00769003
-0.00765844
-0.00763395
-0.00761679
-0.00760711
-0.00760504
-0.00761068
-0.0076241
-0.00764539
-0.00767463
-0.00771193
-0.00775741
-0.0078112
-0.00787347
-0.00794441
-0.00802426
-0.00811328
-0.0082118
-0.00832016
-0.00843878
-0.00856813
-0.00870877
-0.00886129
-0.0090264
-0.00920485
-0.00939751
-0.00960587
-0.00983162
-0.00834344
-0.00847612
-0.00854853
-0.00858317
-0.00858995
-0.00857114
-0.00853104
-0.00847501
-0.00840813
-0.0083349
-0.00825912
-0.00818384
-0.00811138
-0.0080435
-0.00798144
-0.0079261
-0.00787807
-0.00783777
-0.00780544
-0.00778127
-0.00776536
-0.00775777
-0.00775854
-0.00776771
-0.00778531
-0.0078114
-0.00784604
-0.0078893
-0.00794131
-0.0080022
-0.00807214
-0.00815136
-0.00824009
-0.00833865
-0.00844738
-0.00856668
-0.00869704
-0.00883898
-0.00899312
-0.00916016
-0.00934086
-0.00953608
-0.00974733
-0.00997635
-0.00869325
-0.00884339
-0.00892228
-0.00895587
-0.00895602
-0.00892594
-0.00887121
-0.00879844
-0.00871382
-0.00862268
-0.00852942
-0.00843747
-0.00834943
-0.00826714
-0.0081919
-0.00812458
-0.00806573
-0.0080157
-0.00797466
-0.00794272
-0.00791989
-0.00790617
-0.00790154
-0.00790596
-0.00791943
-0.00794192
-0.00797347
-0.00801411
-0.00806391
-0.008123
-0.00819151
-0.00826964
-0.00835761
-0.00845571
-0.00856428
-0.00868371
-0.00881446
-0.00895707
-0.00911213
-0.00928035
-0.00946248
-0.00965938
-0.00987257
-0.0101038
-0.00907623
-0.00924752
-0.0093336
-0.00936482
-0.00935564
-0.00931069
-0.00923724
-0.00914359
-0.00903724
-0.00892453
-0.00881054
-0.00869911
-0.00859304
-0.00849428
-0.00840411
-0.00832334
-0.00825243
-0.00819161
-0.00814097
-0.00810049
-0.00807008
-0.00804965
-0.00803909
-0.0080383
-0.00804717
-0.00806565
-0.0080937
-0.00813132
-0.00817853
-0.00823541
-0.00830207
-0.00837868
-0.00846544
-0.00856261
-0.00867051
-0.00878953
-0.0089201
-0.00906274
-0.00921807
-0.00938676
-0.00956956
-0.00976732
-0.00998155
-0.010214
-0.00949963
-0.00969681
-0.00979075
-0.00981752
-0.00979518
-0.00973045
-0.00963295
-0.00951311
-0.00938011
-0.00924143
-0.00910288
-0.00896871
-0.00884189
-0.00872439
-0.00861741
-0.00852163
-0.00843737
-0.00836471
-0.00830357
-0.00825378
-0.00821515
-0.00818745
-0.00817047
-0.008164
-0.00816787
-0.00818194
-0.00820612
-0.00824034
-0.00828458
-0.00833887
-0.00840329
-0.00847797
-0.00856309
-0.00865888
-0.00876564
-0.00888374
-0.00901359
-0.00915571
-0.00931069
-0.00947919
-0.00966196
-0.00985983
-0.0100743
-0.0103072
-0.00997294
-0.0102022
-0.0103045
-0.0103235
-0.0102824
-0.0101912
-0.0100626
-0.00990984
-0.00974409
-0.00957414
-0.00940655
-0.00924593
-0.00909533
-0.00895661
-0.00883083
-0.00871843
-0.00861952
-0.00853394
-0.00846141
-0.0084016
-0.00835413
-0.00831862
-0.00829474
-0.00828217
-0.00828065
-0.00828995
-0.00830989
-0.00834036
-0.00838128
-0.00843263
-0.00849445
-0.00856683
-0.00864991
-0.00874391
-0.0088491
-0.00896582
-0.00909448
-0.00923556
-0.00938964
-0.00955739
-0.00973951
-0.00993683
-0.0101508
-0.0103833
-0.0105088
-0.0107783
-0.0108889
-0.0108949
-0.0108271
-0.0107
-0.010531
-0.0103366
-0.0101306
-0.00992304
-0.00972122
-0.00952996
-0.00935223
-0.00918967
-0.00904299
-0.00891232
-0.00879744
-0.00869789
-0.00861314
-0.0085426
-0.00848569
-0.00844188
-0.00841066
-0.00839161
-0.00838433
-0.00838851
-0.0084039
-0.0084303
-0.00846757
-0.00851566
-0.00857454
-0.00864427
-0.00872497
-0.00881682
-0.00892005
-0.009035
-0.00916204
-0.00930165
-0.00945438
-0.00962089
-0.00980186
-0.00999813
-0.0102111
-0.0104426
-0.0111246
-0.0114452
-0.0115628
-0.0115473
-0.0114408
-0.011265
-0.011043
-0.0107961
-0.0105405
-0.0102878
-0.0100458
-0.00981928
-0.00961082
-0.00942162
-0.00925191
-0.00910131
-0.00896917
-0.00885464
-0.00875685
-0.00867492
-0.00860803
-0.00855545
-0.00851649
-0.00849058
-0.00847721
-0.00847597
-0.00848649
-0.00850853
-0.00854188
-0.00858641
-0.00864207
-0.00870886
-0.00878688
-0.00887626
-0.00897723
-0.00909008
-0.00921518
-0.00935297
-0.009504
-0.0096689
-0.00984837
-0.0100432
-0.0102547
-0.0104848
-0.0118449
-0.0122311
-0.012352
-0.0123011
-0.0121381
-0.0118952
-0.0116038
-0.0112903
-0.0109739
-0.0106673
-0.0103783
-0.0101113
-0.00986832
-0.00964962
-0.00945471
-0.00928256
-0.00913191
-0.00900144
-0.00888983
-0.0087959
-0.00871852
-0.00865673
-0.00860966
-0.00857656
-0.0085568
-0.00854984
-0.00855525
-0.00857266
-0.00860183
-0.00864257
-0.00869477
-0.0087584
-0.00883351
-0.0089202
-0.00901868
-0.00912921
-0.00925213
-0.00938789
-0.009537
-0.00970009
-0.00987783
-0.010071
-0.0102809
-0.0105093
-0.0127056
-0.0131765
-0.0132919
-0.0131824
-0.012936
-0.0126005
-0.0122176
-0.0118199
-0.0114291
-0.0110583
-0.0107149
-0.0104021
-0.0101205
-0.00986938
-0.00964715
-0.00945186
-0.00928151
-0.00913417
-0.00900805
-0.00890153
-0.00881319
-0.0087418
-0.00868627
-0.00864569
-0.00861928
-0.00860637
-0.00860644
-0.00861905
-0.00864387
-0.00868065
-0.00872924
-0.00878957
-0.00886164
-0.00894553
-0.00904141
-0.00914953
-0.00927021
-0.00940387
-0.00955101
-0.00971225
-0.00988826
-0.0100798
-0.0102882
-0.0105149
-0.0137621
-0.0143418
-0.014432
-0.0142249
-0.0138542
-0.0133902
-0.012887
-0.0123831
-0.0119018
-0.0114553
-0.0110493
-0.0106848
-0.0103607
-0.0100743
-0.00982264
-0.0096027
-0.00941153
-0.00924648
-0.00910517
-0.00898555
-0.00888584
-0.00880451
-0.00874026
-0.00869198
-0.00865874
-0.00863975
-0.00863439
-0.00864212
-0.00866254
-0.00869535
-0.00874034
-0.00879739
-0.00886647
-0.00894764
-0.00904102
-0.00914683
-0.0092654
-0.00939711
-0.00954245
-0.00970203
-0.00987654
-0.0100667
-0.0102738
-0.0104991
-0.0151048
-0.0158197
-0.015842
-0.0154707
-0.0149138
-0.0142712
-0.0136103
-0.0129735
-0.012383
-0.0118482
-0.0113709
-0.0109488
-0.010578
-0.0102535
-0.00997051
-0.00972451
-0.0095115
-0.00932798
-0.00917096
-0.00903786
-0.00892652
-0.0088351
-0.00876204
-0.00870606
-0.00866604
-0.00864108
-0.00863042
-0.00863347
-0.00864972
-0.00867882
-0.0087205
-0.0087746
-0.00884104
-0.00891984
-0.00901112
-0.00911505
-0.00923194
-0.00936216
-0.0095062
-0.00966464
-0.00983818
-0.0100276
-0.0102339
-0.0104586
-0.0168911
-0.0177566
-0.0176192
-0.0169699
-0.0161332
-0.0152439
-0.014378
-0.0135765
-0.0128558
-0.0122187
-0.011661
-0.0111755
-0.010754
-0.0103888
-0.0100726
-0.00979938
-0.00956379
-0.00936141
-0.0091885
-0.00904195
-0.00891917
-0.00881798
-0.00873655
-0.00867337
-0.00862716
-0.00859687
-0.00858163
-0.00858072
-0.00859358
-0.00861978
-0.00865898
-0.00871096
-0.00877563
-0.00885295
-0.008943
-0.00904595
-0.00916208
-0.00929175
-0.00943541
-0.00959366
-0.00976719
-0.00995679
-0.0101635
-0.0103885
-0.0194148
-0.0203915
-0.0198962
-0.018774
-0.0175199
-0.0162932
-0.015164
-0.0141607
-0.0132866
-0.0125327
-0.0118854
-0.0113306
-0.0108549
-0.0104468
-0.0100965
-0.00979572
-0.00953783
-0.00931726
-0.00912947
-0.00897072
-0.00883792
-0.00872851
-0.00864037
-0.00857172
-0.0085211
-0.00848729
-0.00846928
-0.00846625
-0.00847753
-0.00850262
-0.00854111
-0.00859275
-0.00865736
-0.0087349
-0.00882541
-0.00892903
-0.00904602
-0.00917672
-0.00932158
-0.00948119
-0.00965624
-0.00984754
-0.010056
-0.0102829
-0.023272
-0.0241232
-0.022831
-0.0209104
-0.0190448
-0.0173652
-0.015903
-0.0146562
-0.0136037
-0.0127182
-0.0119734
-0.0113453
-0.0108143
-0.0103641
-0.00998175
-0.00965652
-0.00937998
-0.00914528
-0.00894692
-0.00878041
-0.00864209
-0.00852895
-0.00843852
-0.00836875
-0.00831794
-0.0082847
-0.00826788
-0.00826652
-0.00827988
-0.00830737
-0.00834853
-0.00840303
-0.00847069
-0.0085514
-0.0086452
-0.00875221
-0.00887267
-0.00900691
-0.00915539
-0.00931868
-0.00949749
-0.00969263
-0.00990509
-0.0101359
-0.0298289
-0.0296185
-0.02655
-0.0233224
-0.0205921
-0.0183189
-0.0164433
-0.0149075
-0.0136538
-0.012628
-0.0117867
-0.0110908
-0.0105135
-0.0100324
-0.00963007
-0.00929285
-0.00901013
-0.00877352
-0.00857637
-0.00841333
-0.00828014
-0.00817331
-0.00809001
-0.00802794
-0.00798519
-0.00796022
-0.00795175
-0.00795877
-0.00798046
-0.00801617
-0.00806543
-0.00812788
-0.00820333
-0.00829166
-0.00839291
-0.00850721
-0.00863479
-0.00877602
-0.00893136
-0.0091014
-0.00928686
-0.00948856
-0.00970755
-0.00994481
-0.0425295
-0.0378759
-0.0310992
-0.0258302
-0.0218788
-0.0188292
-0.0164586
-0.0146061
-0.0131573
-0.0120161
-0.0111095
-0.0103827
-0.00979597
-0.00931928
-0.00893012
-0.00861154
-0.00835066
-0.0081376
-0.00796468
-0.00782593
-0.00771661
-0.00763299
-0.00757206
-0.00753142
-0.00750913
-0.00750364
-0.00751368
-0.00753827
-0.00757663
-0.00762816
-0.00769242
-0.00776912
-0.00785811
-0.00795932
-0.00807285
-0.00819886
-0.00833764
-0.0084896
-0.00865524
-0.00883519
-0.00903023
-0.00924119
-0.00946919
-0.00971521
-0.069383
-0.0487505
-0.0349851
-0.0266397
-0.0211441
-0.0173449
-0.0146617
-0.0127326
-0.0113149
-0.0102518
-0.00944365
-0.00882291
-0.00834178
-0.00796605
-0.00767131
-0.00743995
-0.00725908
-0.00711912
-0.00701286
-0.00693484
-0.00688087
-0.00684772
-0.00683289
-0.00683441
-0.00685076
-0.00688073
-0.00692339
-0.00697805
-0.00704418
-0.00712141
-0.00720952
-0.00730838
-0.007418
-0.00753848
-0.00767002
-0.00781292
-0.00796757
-0.00813446
-0.00831421
-0.0085075
-0.00871518
-0.00893816
-0.00917761
-0.00943461
-0.156417
-0.0546426
-0.0236721
-0.0158761
-0.0118616
-0.00907559
-0.00745309
-0.00659398
-0.00610327
-0.00579073
-0.0055871
-0.00545924
-0.00538387
-0.00534466
-0.00533129
-0.00533731
-0.00535847
-0.00539183
-0.00543537
-0.00548768
-0.00554781
-0.00561513
-0.00568923
-0.00576986
-0.00585688
-0.00595027
-0.00605007
-0.00615638
-0.00626938
-0.00638927
-0.00651632
-0.00665085
-0.00679321
-0.00694382
-0.00710316
-0.00727177
-0.00745024
-0.00763926
-0.00783958
-0.00805205
-0.00827763
-0.00851735
-0.00877244
-0.00904412
)
;

boundaryField
{
    movingWall
    {
        type            zeroGradient;
    }
    fixedWalls
    {
        type            zeroGradient;
    }
    frontAndBack
    {
        type            empty;
    }
    procBoundary2to3
    {
        type            processor;
        value           nonuniform List<scalar> 
45
(
-0.00591735
-0.00595934
-0.006005
-0.00605444
-0.00610782
-0.00616529
-0.00622698
-0.00629306
-0.00636371
-0.00643912
-0.0065195
-0.00660509
-0.00669614
-0.00679296
-0.00689586
-0.00700521
-0.00712161
-0.00724564
-0.00564804
-0.00569865
-0.0057329
-0.00575879
-0.00577947
-0.005795
-0.00580596
-0.00581331
-0.005818
-0.00582091
-0.0058229
-0.0058247
-0.00582696
-0.00583021
-0.00583491
-0.00584141
-0.00585004
-0.00586104
-0.00587465
-0.00589104
-0.0059104
-0.00593288
-0.00595862
-0.00598776
-0.00602046
-0.00605688
-0.00605688
)
;
    }
    procBoundary2to5
    {
        type            processor;
        value           nonuniform List<scalar> 
29
(
-0.00768501
-0.00798404
-0.00827311
-0.00855079
-0.00881571
-0.00906655
-0.00930217
-0.00952158
-0.00972398
-0.00990874
-0.0100754
-0.0102238
-0.0103537
-0.0104654
-0.010559
-0.0106348
-0.0106931
-0.0107339
-0.0107569
-0.0107609
-0.0107439
-0.0107028
-0.0106331
-0.0105296
-0.0103865
-0.0102017
-0.00998055
-0.0097104
-0.00933372
)
;
    }
}


// ************************************************************************* //
