/*--------------------------------*- C++ -*----------------------------------*\
  =========                 |
  \\      /  F ield         | OpenFOAM: The Open Source CFD Toolbox
   \\    /   O peration     | Website:  https://openfoam.org
    \\  /    A nd           | Version:  9
     \\/     M anipulation  |
\*---------------------------------------------------------------------------*/
FoamFile
{
    format      ascii;
    class       surfaceScalarField;
    location    "0.25";
    object      phi;
}
// * * * * * * * * * * * * * * * * * * * * * * * * * * * * * * * * * * * * * //

dimensions      [0 3 -1 0 0 0 0];

internalField   nonuniform List<scalar> 
2427
(
-3.16958e-07
5.28586e-07
-3.24724e-07
5.23133e-07
-3.32226e-07
5.18024e-07
-3.39492e-07
5.13287e-07
-3.46546e-07
5.08946e-07
-3.53415e-07
5.05028e-07
-3.60126e-07
5.01561e-07
-3.66705e-07
4.98572e-07
-3.73179e-07
4.96094e-07
-3.79578e-07
4.94159e-07
-3.85932e-07
4.92804e-07
-3.92272e-07
4.92067e-07
-3.98634e-07
4.91993e-07
-4.05054e-07
4.92629e-07
-4.11573e-07
4.94027e-07
-4.18235e-07
4.96246e-07
-4.2509e-07
4.99352e-07
5.03419e-07
-2.42393e-09
7.1952e-08
-8.97701e-09
1.95923e-07
-1.88704e-08
3.00463e-07
-3.13299e-08
3.86693e-07
-4.56466e-08
4.5614e-07
-6.12026e-08
5.10586e-07
-7.74825e-08
5.51948e-07
-9.40733e-08
5.82172e-07
-1.10657e-07
6.03146e-07
-1.27001e-07
6.16625e-07
-1.4294e-07
6.24183e-07
-1.58365e-07
6.27182e-07
-1.73212e-07
6.26763e-07
-1.87447e-07
6.23851e-07
-2.01057e-07
6.19174e-07
-2.14048e-07
6.13293e-07
-2.26432e-07
6.06627e-07
-2.3823e-07
5.99483e-07
-2.49465e-07
5.92085e-07
-2.60165e-07
5.84593e-07
-2.70357e-07
5.77123e-07
-2.80069e-07
5.69759e-07
-2.8933e-07
5.62563e-07
-2.98167e-07
5.55585e-07
-3.06608e-07
5.48863e-07
-3.14681e-07
5.4243e-07
-3.22413e-07
5.36317e-07
-3.29829e-07
5.30549e-07
-3.36959e-07
5.25154e-07
-3.43827e-07
5.20154e-07
-3.50457e-07
5.15576e-07
-3.56875e-07
5.11446e-07
-3.63106e-07
5.07791e-07
-3.69173e-07
5.0464e-07
-3.75104e-07
5.02025e-07
-3.80923e-07
4.99979e-07
-3.86658e-07
4.98539e-07
-3.92337e-07
4.97746e-07
-3.9799e-07
4.97646e-07
-4.03649e-07
4.98288e-07
-4.09349e-07
4.99727e-07
-4.15129e-07
5.02026e-07
-4.21032e-07
5.05255e-07
5.09493e-07
-2.6068e-09
7.45588e-08
-9.62542e-09
2.02942e-07
-2.01792e-08
3.11017e-07
-3.34137e-08
3.99927e-07
-4.85529e-08
4.71279e-07
-6.4927e-08
5.2696e-07
-8.19826e-08
5.69004e-07
-9.92821e-08
5.99472e-07
-1.16493e-07
6.20357e-07
-1.33374e-07
6.33506e-07
-1.49761e-07
6.4057e-07
-1.65547e-07
6.42968e-07
-1.80672e-07
6.41888e-07
-1.95108e-07
6.38287e-07
-2.0885e-07
6.32916e-07
-2.21909e-07
6.26352e-07
-2.34303e-07
6.19021e-07
-2.46058e-07
6.11239e-07
-2.57205e-07
6.03232e-07
-2.67773e-07
5.95161e-07
-2.77794e-07
5.87144e-07
-2.873e-07
5.79264e-07
-2.96322e-07
5.71585e-07
-3.0489e-07
5.64153e-07
-3.13034e-07
5.57007e-07
-3.20782e-07
5.50179e-07
-3.28165e-07
5.437e-07
-3.35209e-07
5.37594e-07
-3.41941e-07
5.31885e-07
-3.48385e-07
5.26598e-07
-3.54566e-07
5.21757e-07
-3.60507e-07
5.17387e-07
-3.66231e-07
5.13516e-07
-3.71762e-07
5.10171e-07
-3.77122e-07
5.07385e-07
-3.82334e-07
5.0519e-07
-3.87421e-07
5.03626e-07
-3.92407e-07
5.02732e-07
-3.97318e-07
5.02556e-07
-4.0218e-07
5.0315e-07
-4.07022e-07
5.04569e-07
-4.11877e-07
5.06881e-07
-4.16779e-07
5.10157e-07
5.14481e-07
-2.81665e-09
7.73754e-08
-1.03661e-08
2.10491e-07
-2.16682e-08
3.22319e-07
-3.57745e-08
4.14034e-07
-5.18319e-08
4.87337e-07
-6.91113e-08
5.4424e-07
-8.70176e-08
5.8691e-07
-1.05086e-07
6.1754e-07
-1.22968e-07
6.38239e-07
-1.40419e-07
6.50956e-07
-1.57271e-07
6.57422e-07
-1.73425e-07
6.59122e-07
-1.88826e-07
6.57289e-07
-2.03453e-07
6.52914e-07
-2.17311e-07
6.46774e-07
-2.30416e-07
6.39456e-07
-2.42795e-07
6.314e-07
-2.54481e-07
6.22925e-07
-2.65509e-07
6.1426e-07
-2.75915e-07
6.05567e-07
-2.85734e-07
5.96964e-07
-2.95003e-07
5.88533e-07
-3.03756e-07
5.80337e-07
-3.12026e-07
5.72423e-07
-3.19845e-07
5.64826e-07
-3.27244e-07
5.57579e-07
-3.34253e-07
5.50708e-07
-3.40898e-07
5.44239e-07
-3.47206e-07
5.38193e-07
-3.53201e-07
5.32594e-07
-3.58908e-07
5.27464e-07
-3.64348e-07
5.22828e-07
-3.69544e-07
5.18711e-07
-3.74514e-07
5.15141e-07
-3.79279e-07
5.1215e-07
-3.83859e-07
5.0977e-07
-3.88272e-07
5.08039e-07
-3.9254e-07
5.06999e-07
-3.9668e-07
5.06697e-07
-4.00715e-07
5.07185e-07
-4.04667e-07
5.08521e-07
-4.0856e-07
5.10773e-07
-4.12419e-07
5.14017e-07
5.18337e-07
-3.05852e-09
8.04339e-08
-1.12159e-08
2.18648e-07
-2.33689e-08
3.34472e-07
-3.84594e-08
4.29124e-07
-5.55445e-08
5.04422e-07
-7.38279e-08
5.62523e-07
-9.26678e-08
6.0575e-07
-1.1157e-07
6.36442e-07
-1.30172e-07
6.56841e-07
-1.48223e-07
6.69007e-07
-1.65558e-07
6.74757e-07
-1.82083e-07
6.75647e-07
-1.97752e-07
6.72959e-07
-2.12556e-07
6.67718e-07
-2.26507e-07
6.60725e-07
-2.39632e-07
6.52581e-07
-2.51967e-07
6.43735e-07
-2.63552e-07
6.3451e-07
-2.74428e-07
6.25136e-07
-2.84637e-07
6.15776e-07
-2.94221e-07
6.06548e-07
-3.03219e-07
5.97532e-07
-3.1167e-07
5.88788e-07
-3.1961e-07
5.80363e-07
-3.27073e-07
5.72289e-07
-3.34092e-07
5.64598e-07
-3.40697e-07
5.57313e-07
-3.46916e-07
5.50457e-07
-3.52774e-07
5.44051e-07
-3.58297e-07
5.38116e-07
-3.63506e-07
5.32673e-07
-3.68422e-07
5.27744e-07
-3.73066e-07
5.23354e-07
-3.77453e-07
5.19529e-07
-3.81603e-07
5.16299e-07
-3.85529e-07
5.13696e-07
-3.89247e-07
5.11758e-07
-3.92773e-07
5.10525e-07
-3.9612e-07
5.10044e-07
-3.99303e-07
5.10368e-07
-4.02338e-07
5.11556e-07
-4.05239e-07
5.13675e-07
-4.08025e-07
5.16802e-07
5.21024e-07
-3.33847e-09
8.37724e-08
-1.21946e-08
2.27505e-07
-2.53189e-08
3.47597e-07
-4.15236e-08
4.45329e-07
-5.97617e-08
5.2266e-07
-7.916e-08
5.81921e-07
-9.90249e-08
6.25615e-07
-1.18831e-07
6.56249e-07
-1.38202e-07
6.76212e-07
-1.56882e-07
6.87686e-07
-1.74712e-07
6.92587e-07
-1.91607e-07
6.92542e-07
-2.07533e-07
6.88885e-07
-2.22492e-07
6.82677e-07
-2.36508e-07
6.74741e-07
-2.4962e-07
6.65694e-07
-2.61874e-07
6.55989e-07
-2.73319e-07
6.45954e-07
-2.84004e-07
6.3582e-07
-2.93977e-07
6.2575e-07
-3.03287e-07
6.15857e-07
-3.11977e-07
6.06222e-07
-3.20089e-07
5.96901e-07
-3.27664e-07
5.87937e-07
-3.34738e-07
5.79363e-07
-3.41345e-07
5.71205e-07
-3.47516e-07
5.63484e-07
-3.5328e-07
5.56221e-07
-3.58662e-07
5.49434e-07
-3.63687e-07
5.43141e-07
-3.68375e-07
5.37361e-07
-3.72745e-07
5.32115e-07
-3.76815e-07
5.27424e-07
-3.806e-07
5.23314e-07
-3.84114e-07
5.19813e-07
-3.87368e-07
5.1695e-07
-3.90372e-07
5.14763e-07
-3.93138e-07
5.13291e-07
-3.95673e-07
5.12579e-07
-3.97985e-07
5.1268e-07
-4.00082e-07
5.13653e-07
-4.01971e-07
5.15564e-07
-4.03658e-07
5.1849e-07
5.22517e-07
-3.66403e-09
8.74364e-08
-1.33271e-08
2.37168e-07
-2.75645e-08
3.61834e-07
-4.50345e-08
4.62799e-07
-6.4569e-08
5.42195e-07
-8.52069e-08
6.02559e-07
-1.06197e-07
6.46605e-07
-1.26982e-07
6.77033e-07
-1.4717e-07
6.964e-07
-1.66505e-07
7.07022e-07
-1.84838e-07
7.1092e-07
-2.02094e-07
7.09798e-07
-2.18256e-07
7.05046e-07
-2.33339e-07
6.97761e-07
-2.47384e-07
6.88786e-07
-2.60442e-07
6.78752e-07
-2.72571e-07
6.68118e-07
-2.83831e-07
6.57213e-07
-2.94278e-07
6.46268e-07
-3.03971e-07
6.35443e-07
-3.12962e-07
6.24848e-07
-3.21301e-07
6.14561e-07
-3.29035e-07
6.04635e-07
-3.36206e-07
5.95109e-07
-3.42854e-07
5.86011e-07
-3.49015e-07
5.77365e-07
-3.5472e-07
5.69189e-07
-3.59999e-07
5.615e-07
-3.64877e-07
5.54312e-07
-3.69377e-07
5.47641e-07
-3.7352e-07
5.41503e-07
-3.77322e-07
5.35917e-07
-3.80798e-07
5.309e-07
-3.83961e-07
5.26477e-07
-3.86821e-07
5.22672e-07
-3.89385e-07
5.19515e-07
-3.9166e-07
5.17038e-07
-3.9365e-07
5.15281e-07
-3.95358e-07
5.14287e-07
-3.96784e-07
5.14107e-07
-3.97929e-07
5.14797e-07
-3.98791e-07
5.16425e-07
-3.99366e-07
5.19065e-07
5.22802e-07
-4.04467e-09
9.14811e-08
-1.46442e-08
2.47767e-07
-3.01624e-08
3.77352e-07
-4.90744e-08
4.81711e-07
-7.00698e-08
5.6319e-07
-9.20871e-08
6.24577e-07
-1.14312e-07
6.6883e-07
-1.36152e-07
6.98874e-07
-1.57205e-07
7.17453e-07
-1.77217e-07
7.27034e-07
-1.96052e-07
7.29754e-07
-2.13651e-07
7.27398e-07
-2.30017e-07
7.21412e-07
-2.45185e-07
7.12929e-07
-2.59211e-07
7.02813e-07
-2.72164e-07
6.91705e-07
-2.84114e-07
6.80069e-07
-2.95134e-07
6.68233e-07
-3.05291e-07
6.56425e-07
-3.1465e-07
6.44802e-07
-3.23271e-07
6.3347e-07
-3.31211e-07
6.22501e-07
-3.3852e-07
6.11944e-07
-3.45245e-07
6.01833e-07
-3.51427e-07
5.92193e-07
-3.57103e-07
5.83042e-07
-3.62307e-07
5.74394e-07
-3.67069e-07
5.66261e-07
-3.71412e-07
5.58656e-07
-3.75361e-07
5.51589e-07
-3.78932e-07
5.45075e-07
-3.82142e-07
5.39126e-07
-3.85002e-07
5.33761e-07
-3.87523e-07
5.28998e-07
-3.8971e-07
5.24859e-07
-3.91567e-07
5.21372e-07
-3.93097e-07
5.18568e-07
-3.94297e-07
5.16481e-07
-3.95165e-07
5.15155e-07
-3.95695e-07
5.14636e-07
-3.95878e-07
5.1498e-07
-3.95703e-07
5.16251e-07
-3.9516e-07
5.18521e-07
5.21874e-07
-4.4924e-09
9.59735e-08
-1.61846e-08
2.59459e-07
-3.31836e-08
3.94351e-07
-5.37447e-08
5.02272e-07
-7.63901e-08
5.85835e-07
-9.99436e-08
6.4813e-07
-1.23521e-07
6.92407e-07
-1.46496e-07
7.21848e-07
-1.68457e-07
7.39414e-07
-1.89159e-07
7.47737e-07
-2.08483e-07
7.49078e-07
-2.26396e-07
7.45311e-07
-2.42922e-07
7.37937e-07
-2.58119e-07
7.28126e-07
-2.72066e-07
7.1676e-07
-2.8485e-07
7.04488e-07
-2.96556e-07
6.91775e-07
-3.07271e-07
6.78947e-07
-3.17074e-07
6.66227e-07
-3.26038e-07
6.53766e-07
-3.34232e-07
6.41664e-07
-3.41717e-07
6.29986e-07
-3.48549e-07
6.18776e-07
-3.54778e-07
6.08062e-07
-3.60447e-07
5.97863e-07
-3.65597e-07
5.88191e-07
-3.7026e-07
5.79057e-07
-3.74466e-07
5.70467e-07
-3.78241e-07
5.62431e-07
-3.81605e-07
5.54953e-07
-3.84576e-07
5.48045e-07
-3.87166e-07
5.41716e-07
-3.89385e-07
5.3598e-07
-3.9124e-07
5.30852e-07
-3.92733e-07
5.26352e-07
-3.93865e-07
5.22504e-07
-3.94631e-07
5.19334e-07
-3.95027e-07
5.16877e-07
-3.95042e-07
5.1517e-07
-3.94664e-07
5.14258e-07
-3.93876e-07
5.14193e-07
-3.92661e-07
5.15036e-07
-3.90996e-07
5.16856e-07
5.19732e-07
-5.02267e-09
1.00996e-07
-1.79976e-08
2.72434e-07
-3.67173e-08
4.13071e-07
-5.91713e-08
5.24726e-07
-8.36845e-08
6.10349e-07
-1.08949e-07
6.73395e-07
-1.34004e-07
7.17462e-07
-1.58192e-07
7.46036e-07
-1.81097e-07
7.62319e-07
-2.0249e-07
7.6913e-07
-2.22278e-07
7.68866e-07
-2.40456e-07
7.63489e-07
-2.57079e-07
7.54561e-07
-2.72235e-07
7.43282e-07
-2.86027e-07
7.30552e-07
-2.98562e-07
7.17023e-07
-3.09946e-07
7.03159e-07
-3.20278e-07
6.8928e-07
-3.29652e-07
6.75601e-07
-3.38149e-07
6.62264e-07
-3.45847e-07
6.49362e-07
-3.52813e-07
6.36952e-07
-3.59107e-07
6.2507e-07
-3.64782e-07
6.13737e-07
-3.69885e-07
6.02966e-07
-3.74457e-07
5.92763e-07
-3.78532e-07
5.83131e-07
-3.82139e-07
5.74075e-07
-3.85303e-07
5.65595e-07
-3.88043e-07
5.57694e-07
-3.90376e-07
5.50378e-07
-3.92311e-07
5.43652e-07
-3.93856e-07
5.37525e-07
-3.95015e-07
5.32011e-07
-3.95786e-07
5.27124e-07
-3.96166e-07
5.22884e-07
-3.96147e-07
5.19315e-07
-3.95717e-07
5.16447e-07
-3.94862e-07
5.14314e-07
-3.93561e-07
5.12957e-07
-3.91793e-07
5.12425e-07
-3.89531e-07
5.12773e-07
-3.86742e-07
5.14067e-07
5.16381e-07
-5.65561e-09
1.06652e-07
-2.01469e-08
2.86926e-07
-4.0877e-08
4.33801e-07
-6.55126e-08
5.49362e-07
-9.2144e-08
6.3698e-07
-1.19313e-07
7.00564e-07
-1.45979e-07
7.44128e-07
-1.71453e-07
7.7151e-07
-1.95325e-07
7.86191e-07
-2.17392e-07
7.91197e-07
-2.37594e-07
7.89068e-07
-2.55968e-07
7.81863e-07
-2.72605e-07
7.71198e-07
-2.87627e-07
7.58304e-07
-3.01167e-07
7.44091e-07
-3.13356e-07
7.29212e-07
-3.24321e-07
7.14124e-07
-3.34178e-07
6.99137e-07
-3.43032e-07
6.84454e-07
-3.50977e-07
6.70209e-07
-3.58097e-07
6.56482e-07
-3.64466e-07
6.43321e-07
-3.70149e-07
6.30753e-07
-3.75202e-07
6.1879e-07
-3.79673e-07
6.07437e-07
-3.83604e-07
5.96694e-07
-3.87031e-07
5.86558e-07
-3.89982e-07
5.77026e-07
-3.92481e-07
5.68093e-07
-3.94546e-07
5.59759e-07
-3.96191e-07
5.52022e-07
-3.97424e-07
5.44885e-07
-3.9825e-07
5.38352e-07
-3.98669e-07
5.3243e-07
-3.98678e-07
5.27132e-07
-3.98268e-07
5.22474e-07
-3.97427e-07
5.18474e-07
-3.9614e-07
5.15159e-07
-3.94385e-07
5.12559e-07
-3.92138e-07
5.1071e-07
-3.8937e-07
5.09657e-07
-3.86045e-07
5.09449e-07
-3.82125e-07
5.10146e-07
5.11819e-07
-6.41783e-09
1.1307e-07
-2.27154e-08
3.03223e-07
-4.5809e-08
4.56895e-07
-7.29689e-08
5.76522e-07
-1.02006e-07
6.66018e-07
-1.31293e-07
7.2985e-07
-1.59703e-07
7.72538e-07
-1.86526e-07
7.98333e-07
-2.11369e-07
8.11033e-07
-2.34066e-07
8.13894e-07
-2.54607e-07
8.09609e-07
-2.73078e-07
8.00334e-07
-2.89618e-07
7.87737e-07
-3.04387e-07
7.73073e-07
-3.17552e-07
7.57257e-07
-3.29275e-07
7.40935e-07
-3.39703e-07
7.24552e-07
-3.4897e-07
7.08404e-07
-3.57196e-07
6.9268e-07
-3.64484e-07
6.77498e-07
-3.70928e-07
6.62925e-07
-3.76605e-07
6.48999e-07
-3.81586e-07
6.35733e-07
-3.8593e-07
6.23133e-07
-3.89686e-07
6.11193e-07
-3.92896e-07
5.99905e-07
-3.95597e-07
5.89259e-07
-3.97816e-07
5.79245e-07
-3.99575e-07
5.69853e-07
-4.00892e-07
5.61076e-07
-4.01779e-07
5.52908e-07
-4.02241e-07
5.45347e-07
-4.0228e-07
5.38391e-07
-4.01895e-07
5.32045e-07
-4.01079e-07
5.26316e-07
-3.99818e-07
5.21214e-07
-3.98099e-07
5.16755e-07
-3.95901e-07
5.12961e-07
-3.93198e-07
5.09856e-07
-3.89961e-07
5.07473e-07
-3.86154e-07
5.0585e-07
-3.81737e-07
5.05032e-07
-3.76663e-07
5.05072e-07
5.06035e-07
-7.34509e-09
1.20415e-07
-2.58129e-08
3.21691e-07
-5.17036e-08
4.82785e-07
-8.17965e-08
6.06615e-07
-1.1357e-07
6.97791e-07
-1.45204e-07
7.61484e-07
-1.75489e-07
8.02823e-07
-2.03704e-07
8.26548e-07
-2.29489e-07
8.36818e-07
-2.52738e-07
8.37143e-07
-2.73504e-07
8.30376e-07
-2.91937e-07
8.18766e-07
-3.08229e-07
8.0403e-07
-3.22592e-07
7.87436e-07
-3.3523e-07
7.69895e-07
-3.46336e-07
7.52041e-07
-3.56081e-07
7.34297e-07
-3.64618e-07
7.16941e-07
-3.7208e-07
7.00142e-07
-3.78583e-07
6.84e-07
-3.84225e-07
6.68567e-07
-3.89091e-07
6.53865e-07
-3.93254e-07
6.39896e-07
-3.96775e-07
6.26653e-07
-3.99704e-07
6.14122e-07
-4.02085e-07
6.02285e-07
-4.03952e-07
5.91126e-07
-4.05332e-07
5.80625e-07
-4.06247e-07
5.70768e-07
-4.06712e-07
5.61541e-07
-4.06736e-07
5.52933e-07
-4.06325e-07
5.44935e-07
-4.05477e-07
5.37543e-07
-4.04188e-07
5.30756e-07
-4.02448e-07
5.24575e-07
-4.00242e-07
5.19008e-07
-3.97553e-07
5.14066e-07
-3.94355e-07
5.09764e-07
-3.90622e-07
5.06122e-07
-3.86317e-07
5.03169e-07
-3.81403e-07
5.00935e-07
-3.75832e-07
4.99461e-07
-3.69553e-07
4.98793e-07
4.98987e-07
-8.48641e-09
1.28901e-07
-2.95874e-08
3.42792e-07
-5.8812e-08
5.1201e-07
-9.23267e-08
6.40129e-07
-1.27212e-07
7.32677e-07
-1.61436e-07
7.95707e-07
-1.9371e-07
8.35098e-07
-2.23325e-07
8.56163e-07
-2.49982e-07
8.63475e-07
-2.73654e-07
8.60815e-07
-2.9448e-07
8.51202e-07
-3.12687e-07
8.36974e-07
-3.28538e-07
8.1988e-07
-3.42297e-07
8.01194e-07
-3.54213e-07
7.81811e-07
-3.64511e-07
7.62339e-07
-3.7339e-07
7.43176e-07
-3.81021e-07
7.24572e-07
-3.87549e-07
7.06671e-07
-3.931e-07
6.89552e-07
-3.9778e-07
6.73247e-07
-4.01676e-07
6.57762e-07
-4.04865e-07
6.43085e-07
-4.07409e-07
6.29197e-07
-4.09359e-07
6.16072e-07
-4.10757e-07
6.03684e-07
-4.11638e-07
5.92006e-07
-4.12026e-07
5.81014e-07
-4.11943e-07
5.70685e-07
-4.11402e-07
5.61e-07
-4.1041e-07
5.51941e-07
-4.08971e-07
5.43496e-07
-4.07082e-07
5.35654e-07
-4.04736e-07
5.2841e-07
-4.01922e-07
5.21761e-07
-3.98623e-07
5.15709e-07
-3.94818e-07
5.10261e-07
-3.90481e-07
5.05427e-07
-3.85581e-07
5.01222e-07
-3.80081e-07
4.97669e-07
-3.73939e-07
4.94793e-07
-3.67105e-07
4.92627e-07
-3.59523e-07
4.91211e-07
4.90593e-07
-9.91044e-09
1.38812e-07
-3.42415e-08
3.67123e-07
-6.74708e-08
5.45239e-07
-1.04992e-07
6.77651e-07
-1.43412e-07
7.71097e-07
-1.80469e-07
8.32764e-07
-2.14815e-07
8.69444e-07
-2.45786e-07
8.87133e-07
-2.73176e-07
8.90865e-07
-2.97073e-07
8.84712e-07
-3.17725e-07
8.71855e-07
-3.35456e-07
8.54705e-07
-3.50607e-07
8.35032e-07
-3.63507e-07
8.14094e-07
-3.7445e-07
7.92755e-07
-3.83699e-07
7.71588e-07
-3.91477e-07
7.50954e-07
-3.97971e-07
7.31066e-07
-4.03342e-07
7.12042e-07
-4.07722e-07
6.93931e-07
-4.11221e-07
6.76746e-07
-4.13933e-07
6.60473e-07
-4.15932e-07
6.45085e-07
-4.17283e-07
6.30548e-07
-4.18036e-07
6.16825e-07
-4.18232e-07
6.0388e-07
-4.17904e-07
5.91678e-07
-4.17077e-07
5.80187e-07
-4.1577e-07
5.69378e-07
-4.13995e-07
5.59224e-07
-4.11757e-07
5.49704e-07
-4.0906e-07
5.40798e-07
-4.05898e-07
5.32493e-07
-4.02265e-07
5.24777e-07
-3.98147e-07
5.17643e-07
-3.93528e-07
5.1109e-07
-3.88384e-07
5.05117e-07
-3.82689e-07
4.99732e-07
-3.76411e-07
4.94945e-07
-3.69512e-07
4.9077e-07
-3.61949e-07
4.87229e-07
-3.53669e-07
4.84348e-07
-3.44616e-07
4.82158e-07
4.807e-07
-1.17156e-08
1.50527e-07
-4.00582e-08
3.95466e-07
-7.81373e-08
5.83318e-07
-1.20364e-07
7.19877e-07
-1.62784e-07
8.13517e-07
-2.02899e-07
8.72879e-07
-2.3934e-07
9.05886e-07
-2.71536e-07
9.19329e-07
-2.99428e-07
9.18757e-07
-3.23255e-07
9.08539e-07
-3.43406e-07
8.92006e-07
-3.6032e-07
8.71619e-07
-3.74432e-07
8.49143e-07
-3.86136e-07
8.25798e-07
-3.95781e-07
8.024e-07
-4.03662e-07
7.79469e-07
-4.10026e-07
7.57318e-07
-4.15078e-07
7.36118e-07
-4.18988e-07
7.15951e-07
-4.21894e-07
6.96838e-07
-4.23911e-07
6.78763e-07
-4.25133e-07
6.61695e-07
-4.25636e-07
6.45587e-07
-4.25482e-07
6.30394e-07
-4.24721e-07
6.16064e-07
-4.23395e-07
6.02553e-07
-4.21534e-07
5.89817e-07
-4.19162e-07
5.77816e-07
-4.16297e-07
5.66513e-07
-4.1295e-07
5.55877e-07
-4.09128e-07
5.45881e-07
-4.0483e-07
5.36501e-07
-4.00054e-07
5.27717e-07
-3.94792e-07
5.19514e-07
-3.8903e-07
5.11882e-07
-3.82752e-07
5.04812e-07
-3.75937e-07
4.98302e-07
-3.68557e-07
4.92352e-07
-3.60581e-07
4.86969e-07
-3.51973e-07
4.82162e-07
-3.4269e-07
4.77946e-07
-3.3268e-07
4.74339e-07
-3.21888e-07
4.71366e-07
4.6906e-07
-1.40474e-08
1.64575e-07
-4.74418e-08
4.2886e-07
-9.14427e-08
6.27319e-07
-1.39203e-07
7.67638e-07
-1.86114e-07
8.60429e-07
-2.2946e-07
9.16224e-07
-2.67915e-07
9.44341e-07
-3.01077e-07
9.52492e-07
-3.29101e-07
9.4678e-07
-3.52428e-07
9.31866e-07
-3.71621e-07
9.11199e-07
-3.87257e-07
8.87255e-07
-3.99871e-07
8.61757e-07
-4.09932e-07
8.3586e-07
-4.17839e-07
8.10307e-07
-4.23919e-07
7.85549e-07
-4.28443e-07
7.61841e-07
-4.31627e-07
7.39303e-07
-4.3365e-07
7.17974e-07
-4.34653e-07
6.97841e-07
-4.34753e-07
6.78864e-07
-4.34044e-07
6.60985e-07
-4.32601e-07
6.44145e-07
-4.30486e-07
6.28279e-07
-4.27749e-07
6.13327e-07
-4.24429e-07
5.99233e-07
-4.20557e-07
5.85945e-07
-4.16156e-07
5.73415e-07
-4.11244e-07
5.61601e-07
-4.05833e-07
5.50466e-07
-3.99929e-07
5.39977e-07
-3.93535e-07
5.30106e-07
-3.86647e-07
5.20829e-07
-3.79259e-07
5.12126e-07
-3.7136e-07
5.03983e-07
-3.62936e-07
4.96387e-07
-3.53965e-07
4.89331e-07
-3.44426e-07
4.82813e-07
-3.34288e-07
4.76831e-07
-3.23518e-07
4.71392e-07
-3.12075e-07
4.66503e-07
-2.99914e-07
4.62178e-07
-2.8698e-07
4.58432e-07
4.55291e-07
-1.71277e-08
1.81702e-07
-5.69826e-08
4.68715e-07
-1.08273e-07
6.78609e-07
-1.62532e-07
8.21897e-07
-2.14415e-07
9.12311e-07
-2.61047e-07
9.62857e-07
-3.0126e-07
9.84553e-07
-3.34933e-07
9.86165e-07
-3.62518e-07
9.74365e-07
-3.84723e-07
9.54071e-07
-4.02318e-07
9.28794e-07
-4.16037e-07
9.00974e-07
-4.26525e-07
8.72244e-07
-4.34325e-07
8.43659e-07
-4.39882e-07
8.15864e-07
-4.43555e-07
7.89222e-07
-4.45629e-07
7.63915e-07
-4.46333e-07
7.40007e-07
-4.45848e-07
7.17489e-07
-4.44318e-07
6.96311e-07
-4.4186e-07
6.76406e-07
-4.38568e-07
6.57693e-07
-4.34517e-07
6.40093e-07
-4.29768e-07
6.2353e-07
-4.2437e-07
6.0793e-07
-4.18365e-07
5.93228e-07
-4.11783e-07
5.79363e-07
-4.04648e-07
5.66281e-07
-3.96981e-07
5.53934e-07
-3.88795e-07
5.4228e-07
-3.80099e-07
5.31281e-07
-3.70897e-07
5.20904e-07
-3.6119e-07
5.11122e-07
-3.50974e-07
5.01911e-07
-3.40242e-07
4.93251e-07
-3.28982e-07
4.85128e-07
-3.1718e-07
4.77529e-07
-3.04815e-07
4.70448e-07
-2.91864e-07
4.6388e-07
-2.78296e-07
4.57824e-07
-2.64078e-07
4.52285e-07
-2.49168e-07
4.47268e-07
-2.33518e-07
4.42782e-07
4.38845e-07
-2.13076e-08
2.0301e-07
-6.95656e-08
5.16973e-07
-1.29888e-07
7.38932e-07
-1.91735e-07
8.83744e-07
-2.48976e-07
9.69553e-07
-2.98728e-07
1.01261e-06
-3.40157e-07
1.02598e-06
-3.73582e-07
1.01959e-06
-3.99863e-07
1.00065e-06
-4.20038e-07
9.74245e-07
-4.35123e-07
9.43879e-07
-4.46021e-07
9.11872e-07
-4.53488e-07
8.79712e-07
-4.58139e-07
8.4831e-07
-4.60459e-07
8.18184e-07
-4.60832e-07
7.89595e-07
-4.59556e-07
7.62639e-07
-4.56865e-07
7.37316e-07
-4.52943e-07
7.13567e-07
-4.47937e-07
6.91305e-07
-4.41962e-07
6.70431e-07
-4.35114e-07
6.50845e-07
-4.2747e-07
6.32449e-07
-4.19092e-07
6.15152e-07
-4.10032e-07
5.9887e-07
-4.00333e-07
5.83529e-07
-3.90029e-07
5.69059e-07
-3.7915e-07
5.55402e-07
-3.67718e-07
5.42502e-07
-3.55751e-07
5.30313e-07
-3.43263e-07
5.18793e-07
-3.30263e-07
5.07904e-07
-3.16757e-07
4.97615e-07
-3.02746e-07
4.879e-07
-2.88228e-07
4.78733e-07
-2.73197e-07
4.70097e-07
-2.57644e-07
4.61976e-07
-2.41555e-07
4.54358e-07
-2.24912e-07
4.47236e-07
-2.07691e-07
4.40604e-07
-1.89867e-07
4.3446e-07
-1.71404e-07
4.28806e-07
-1.52264e-07
4.23641e-07
4.18978e-07
-2.71658e-08
2.30176e-07
-8.65515e-08
5.76359e-07
-1.58109e-07
8.10489e-07
-2.28677e-07
9.54311e-07
-2.91415e-07
1.03229e-06
-3.43708e-07
1.0649e-06
-3.85346e-07
1.06762e-06
-4.17293e-07
1.05154e-06
-4.40947e-07
1.0243e-06
-4.57744e-07
9.91042e-07
-4.68974e-07
9.55109e-07
-4.75715e-07
9.18612e-07
-4.78831e-07
8.82828e-07
-4.78998e-07
8.48477e-07
-4.76738e-07
8.15924e-07
-4.72451e-07
7.85308e-07
-4.66445e-07
7.56634e-07
-4.58961e-07
7.29832e-07
-4.50186e-07
7.04792e-07
-4.40271e-07
6.81389e-07
-4.29335e-07
6.59496e-07
-4.17479e-07
6.38989e-07
-4.04785e-07
6.19754e-07
-3.9132e-07
6.01687e-07
-3.77144e-07
5.84694e-07
-3.62304e-07
5.68689e-07
-3.46844e-07
5.53599e-07
-3.30798e-07
5.39356e-07
-3.14195e-07
5.259e-07
-2.97063e-07
5.1318e-07
-2.79419e-07
5.01149e-07
-2.61282e-07
4.89767e-07
-2.42662e-07
4.78996e-07
-2.2357e-07
4.68807e-07
-2.04009e-07
4.59172e-07
-1.8398e-07
4.50068e-07
-1.63481e-07
4.41477e-07
-1.42505e-07
4.33382e-07
-1.21041e-07
4.25772e-07
-9.9074e-08
4.18637e-07
-7.65839e-08
4.1197e-07
-5.35461e-08
4.05768e-07
-2.99294e-08
4.00025e-07
3.94743e-07
-3.56964e-08
2.65872e-07
-1.10085e-07
6.50747e-07
-1.95585e-07
8.9599e-07
-2.75849e-07
1.03457e-06
-3.43655e-07
1.1001e-06
-3.97174e-07
1.11842e-06
-4.37235e-07
1.10768e-06
-4.65709e-07
1.08001e-06
-4.84671e-07
1.04326e-06
-4.96014e-07
1.00239e-06
-5.01317e-07
9.60412e-07
-5.01828e-07
9.19124e-07
-4.98512e-07
8.79511e-07
-4.92097e-07
8.42063e-07
-4.83138e-07
8.06965e-07
-4.72053e-07
7.74223e-07
-4.59163e-07
7.43744e-07
-4.44719e-07
7.15388e-07
-4.2892e-07
6.88993e-07
-4.11926e-07
6.64395e-07
-3.93869e-07
6.41439e-07
-3.74861e-07
6.19981e-07
-3.54995e-07
5.99888e-07
-3.3435e-07
5.81043e-07
-3.12997e-07
5.63341e-07
-2.90995e-07
5.46688e-07
-2.68397e-07
5.31001e-07
-2.45248e-07
5.16206e-07
-2.21588e-07
5.0224e-07
-1.97449e-07
4.89042e-07
-1.72862e-07
4.76562e-07
-1.47851e-07
4.64755e-07
-1.22435e-07
4.53581e-07
-9.66312e-08
4.43003e-07
-7.04506e-08
4.32992e-07
-4.39013e-08
4.23519e-07
-1.69871e-08
4.14563e-07
1.02922e-08
4.06103e-07
3.79408e-08
3.98123e-07
6.59671e-08
3.9061e-07
9.43835e-08
3.83554e-07
1.23207e-07
3.76944e-07
1.5246e-07
3.70772e-07
3.6503e-07
-4.86771e-08
3.14549e-07
-1.43619e-07
7.45689e-07
-2.46159e-07
9.9853e-07
-3.36435e-07
1.12485e-06
-4.07702e-07
1.17136e-06
-4.5979e-07
1.17051e-06
-4.95136e-07
1.14303e-06
-5.16822e-07
1.1017e-06
-5.27729e-07
1.05417e-06
-5.30246e-07
1.0049e-06
-5.26244e-07
9.5641e-07
-5.17141e-07
9.1002e-07
-5.03993e-07
8.66364e-07
-4.8759e-07
8.2566e-07
-4.68522e-07
7.87897e-07
-4.4724e-07
7.5294e-07
-4.2409e-07
7.20594e-07
-3.99348e-07
6.90646e-07
-3.73237e-07
6.62881e-07
-3.45938e-07
6.37097e-07
-3.17607e-07
6.13108e-07
-2.88373e-07
5.90746e-07
-2.58347e-07
5.69863e-07
-2.27628e-07
5.50324e-07
-1.963e-07
5.32012e-07
-1.64435e-07
5.14823e-07
-1.32098e-07
4.98664e-07
-9.93459e-08
4.83454e-07
-6.62265e-08
4.6912e-07
-3.27823e-08
4.55598e-07
9.50306e-10
4.4283e-07
3.49407e-08
4.30765e-07
6.9163e-08
4.19358e-07
1.03596e-07
4.0857e-07
1.38224e-07
3.98364e-07
1.73035e-07
3.88709e-07
2.0802e-07
3.79578e-07
2.43177e-07
3.70946e-07
2.78505e-07
3.62795e-07
3.1401e-07
3.55106e-07
3.497e-07
3.47864e-07
3.85586e-07
3.41057e-07
4.21687e-07
3.34671e-07
3.28694e-07
-6.93977e-08
3.83947e-07
-1.92784e-07
8.69076e-07
-3.15255e-07
1.121e-06
-4.14023e-07
1.22362e-06
-4.84709e-07
1.24205e-06
-5.30165e-07
1.21597e-06
-5.55151e-07
1.16801e-06
-5.64267e-07
1.11081e-06
-5.61312e-07
1.05121e-06
-5.49209e-07
9.928e-07
-5.30135e-07
9.37336e-07
-5.05689e-07
8.85574e-07
-4.77046e-07
8.37721e-07
-4.4508e-07
7.93694e-07
-4.10447e-07
7.53265e-07
-3.73653e-07
7.16146e-07
-3.35093e-07
6.82034e-07
-2.95084e-07
6.50637e-07
-2.53885e-07
6.21683e-07
-2.11712e-07
5.94923e-07
-1.68744e-07
5.7014e-07
-1.25133e-07
5.47136e-07
-8.10101e-08
5.2574e-07
-3.64864e-08
5.058e-07
8.34256e-09
4.87183e-07
5.33947e-08
4.69771e-07
9.85999e-08
4.53459e-07
1.43898e-07
4.38156e-07
1.89237e-07
4.23781e-07
2.34576e-07
4.1026e-07
2.79876e-07
3.97529e-07
3.2511e-07
3.85532e-07
3.70252e-07
3.74216e-07
4.15285e-07
3.63537e-07
4.60194e-07
3.53454e-07
5.0497e-07
3.43932e-07
5.4961e-07
3.34938e-07
5.94111e-07
3.26445e-07
6.38478e-07
3.18428e-07
6.82718e-07
3.10866e-07
7.26842e-07
3.03741e-07
7.70863e-07
2.97036e-07
8.14799e-07
2.90736e-07
2.84822e-07
-1.0411e-07
4.88056e-07
-2.66699e-07
1.03166e-06
-4.0976e-07
1.26406e-06
-5.10863e-07
1.32472e-06
-5.71717e-07
1.3029e-06
-6.00154e-07
1.2444e-06
-6.04081e-07
1.17194e-06
-5.89939e-07
1.09667e-06
-5.62585e-07
1.02386e-06
-5.25556e-07
9.55771e-07
-4.81408e-07
8.93188e-07
-4.31978e-07
8.36144e-07
-3.78612e-07
7.84355e-07
-3.22305e-07
7.37387e-07
-2.6381e-07
6.94769e-07
-2.03702e-07
6.56037e-07
-1.42429e-07
6.20761e-07
-8.03476e-08
5.88556e-07
-1.77431e-08
5.59078e-07
4.5154e-08
5.32026e-07
1.08155e-07
5.07138e-07
1.71107e-07
4.84184e-07
2.33884e-07
4.62963e-07
2.96382e-07
4.43302e-07
3.58518e-07
4.25047e-07
4.20223e-07
4.08065e-07
4.81443e-07
3.92239e-07
5.42135e-07
3.77464e-07
6.02266e-07
3.6365e-07
6.61809e-07
3.50716e-07
7.20749e-07
3.38589e-07
7.79073e-07
3.27208e-07
8.36775e-07
3.16514e-07
8.93855e-07
3.06458e-07
9.50315e-07
2.96994e-07
1.00616e-06
2.88084e-07
1.06141e-06
2.79692e-07
1.11607e-06
2.71786e-07
1.17016e-06
2.64339e-07
1.22369e-06
2.57327e-07
1.27671e-06
2.50728e-07
1.32922e-06
2.44524e-07
1.38126e-06
2.38698e-07
2.3323e-07
-1.64988e-07
6.53044e-07
-3.79332e-07
1.24601e-06
-5.34875e-07
1.4196e-06
-6.20284e-07
1.41013e-06
-6.50109e-07
1.33273e-06
-6.39789e-07
1.23408e-06
-6.01403e-07
1.13355e-06
-5.43687e-07
1.03896e-06
-4.72807e-07
9.52978e-07
-3.93053e-07
8.76017e-07
-3.07437e-07
8.07572e-07
-2.18033e-07
7.4674e-07
-1.26337e-07
6.92659e-07
-3.34208e-08
6.44471e-07
5.99411e-08
6.01407e-07
1.53181e-07
5.62797e-07
2.45882e-07
5.28061e-07
3.37734e-07
4.96703e-07
4.28512e-07
4.683e-07
5.18049e-07
4.42489e-07
6.06226e-07
4.18962e-07
6.92958e-07
3.97452e-07
7.78189e-07
3.77732e-07
8.61886e-07
3.59605e-07
9.44032e-07
3.42902e-07
1.02462e-06
3.27475e-07
1.10367e-06
3.13196e-07
1.18118e-06
2.99953e-07
1.25718e-06
2.87649e-07
1.3317e-06
2.76196e-07
1.40477e-06
2.6552e-07
1.47642e-06
2.55553e-07
1.5467e-06
2.46236e-07
1.61564e-06
2.37517e-07
1.68328e-06
2.2935e-07
1.74968e-06
2.21693e-07
1.81486e-06
2.14511e-07
1.87887e-06
2.07769e-07
1.94177e-06
2.01441e-07
2.0036e-06
1.95501e-07
2.0644e-06
1.89926e-07
2.12423e-06
1.84697e-07
2.18313e-06
1.79798e-07
1.7521e-07
-2.76364e-07
9.29409e-07
-5.45643e-07
1.51529e-06
-6.74827e-07
1.54879e-06
-6.94468e-07
1.42977e-06
-6.43599e-07
1.28186e-06
-5.48797e-07
1.13928e-06
-4.27383e-07
1.01214e-06
-2.90527e-07
9.021e-07
-1.45534e-07
8.07985e-07
2.93225e-09
7.27551e-07
1.51978e-07
6.58525e-07
2.99681e-07
5.99038e-07
4.44868e-07
5.47472e-07
5.86812e-07
5.02527e-07
7.25079e-07
4.6314e-07
8.59435e-07
4.28442e-07
9.89775e-07
3.9772e-07
1.11609e-06
3.70392e-07
1.23841e-06
3.45974e-07
1.35684e-06
3.24066e-07
1.47147e-06
3.04332e-07
1.58242e-06
2.86492e-07
1.68985e-06
2.70309e-07
1.79387e-06
2.55581e-07
1.89463e-06
2.42138e-07
1.99228e-06
2.29833e-07
2.08693e-06
2.1854e-07
2.17873e-06
2.08151e-07
2.26781e-06
1.98571e-07
2.35429e-06
1.8972e-07
2.43828e-06
1.81525e-07
2.51991e-06
1.73926e-07
2.59928e-06
1.66866e-07
2.6765e-06
1.60299e-07
2.75167e-06
1.54182e-07
2.82488e-06
1.48478e-07
2.89624e-06
1.43154e-07
2.96583e-06
1.38182e-07
3.03373e-06
1.33535e-07
3.10004e-06
1.29192e-07
3.16483e-06
1.25133e-07
3.22819e-06
1.2134e-07
3.29019e-06
1.17798e-07
1.14494e-07
-4.84572e-07
1.41398e-06
-7.26475e-07
1.75719e-06
-6.858e-07
1.50811e-06
-5.09571e-07
1.25354e-06
-2.75209e-07
1.0475e-06
-1.80204e-08
8.82091e-07
2.44717e-07
7.49403e-07
5.03306e-07
6.43511e-07
7.52795e-07
5.58497e-07
9.90952e-07
4.89394e-07
1.21699e-06
4.32489e-07
1.43092e-06
3.85111e-07
1.63311e-06
3.45275e-07
1.82416e-06
3.11477e-07
2.00474e-06
2.82564e-07
2.17554e-06
2.57642e-07
2.33725e-06
2.36011e-07
2.49052e-06
2.1712e-07
2.63597e-06
2.00524e-07
2.77417e-06
1.85867e-07
2.90564e-06
1.72858e-07
3.03088e-06
1.61258e-07
3.15032e-06
1.50869e-07
3.26437e-06
1.41529e-07
3.37341e-06
1.331e-07
3.47777e-06
1.25467e-07
3.57778e-06
1.18533e-07
3.67372e-06
1.12214e-07
3.76585e-06
1.0644e-07
3.85442e-06
1.0115e-07
3.93965e-06
9.62922e-08
4.02176e-06
9.18215e-08
4.10092e-06
8.76988e-08
4.17733e-06
8.38901e-08
4.25115e-06
8.03659e-08
4.32253e-06
7.71004e-08
4.39161e-06
7.40709e-08
4.45853e-06
7.12578e-08
4.52342e-06
6.86437e-08
4.5864e-06
6.62134e-08
4.64758e-06
6.39538e-08
4.70707e-06
6.18531e-08
4.76496e-06
5.99009e-08
5.80894e-08
-6.77083e-07
2.09106e-06
-3.74852e-07
1.45496e-06
2.09899e-07
9.23363e-07
7.73835e-07
6.89607e-07
1.28365e-06
5.3768e-07
1.74276e-06
4.22981e-07
2.15435e-06
3.37819e-07
2.52245e-06
2.75401e-07
2.85218e-06
2.28773e-07
3.14861e-06
1.92962e-07
3.41625e-06
1.64854e-07
3.65892e-06
1.4244e-07
3.87987e-06
1.24322e-07
4.08186e-06
1.09485e-07
4.26723e-06
9.71945e-08
4.43797e-06
8.6906e-08
4.59577e-06
7.82132e-08
4.74208e-06
7.08064e-08
4.87816e-06
6.44468e-08
5.00508e-06
5.89474e-08
5.12377e-06
5.41609e-08
5.23506e-06
4.99697e-08
5.33965e-06
4.62793e-08
5.43817e-06
4.30128e-08
5.53116e-06
4.01078e-08
5.61911e-06
3.75127e-08
5.70246e-06
3.51847e-08
5.78159e-06
3.30885e-08
5.85683e-06
3.11942e-08
5.92851e-06
2.94769e-08
5.99688e-06
2.79152e-08
6.06221e-06
2.64912e-08
6.12472e-06
2.51895e-08
6.18462e-06
2.3997e-08
6.24208e-06
2.29023e-08
6.29728e-06
2.18957e-08
6.35039e-06
2.09688e-08
6.40153e-06
2.01143e-08
6.45085e-06
1.9326e-08
6.49846e-06
1.85984e-08
6.54449e-06
1.79266e-08
6.58904e-06
1.73068e-08
6.6322e-06
1.67351e-08
1.62086e-08