/*--------------------------------*- C++ -*----------------------------------*\
  =========                 |
  \\      /  F ield         | OpenFOAM: The Open Source CFD Toolbox
   \\    /   O peration     | Website:  https://openfoam.org
    \\  /    A nd           | Version:  9
     \\/     M anipulation  |
\*---------------------------------------------------------------------------*/
FoamFile
{
    format      ascii;
    class       volVectorField;
    location    "0.25";
    object      U;
}
// * * * * * * * * * * * * * * * * * * * * * * * * * * * * * * * * * * * * * //

dimensions      [0 1 -1 0 0 0 0];

internalField   nonuniform List<vector> 
1250
(
(-0.0313006 0.0524632 0)
(-0.0320909 0.051933 0)
(-0.0328536 0.0514359 0)
(-0.0335914 0.0509746 0)
(-0.0343067 0.0505517 0)
(-0.0350023 0.0501699 0)
(-0.0356806 0.0498318 0)
(-0.0363443 0.0495403 0)
(-0.0369963 0.0492984 0)
(-0.0376392 0.0491096 0)
(-0.0382761 0.0489772 0)
(-0.0389099 0.0489052 0)
(-0.0395441 0.0488978 0)
(-0.0401823 0.0489597 0)
(-0.0408281 0.049096 0)
(-0.0414857 0.0493122 0)
(-0.0421605 0.0496147 0)
(-0.0428572 0.0500109 0)
(-6.75537e-05 0.00707009 0)
(-0.000470456 0.0192542 0)
(-0.00131453 0.0295367 0)
(-0.00245534 0.0380286 0)
(-0.00381054 0.0448792 0)
(-0.00531793 0.0502619 0)
(-0.00692127 0.0543627 0)
(-0.00857389 0.057371 0)
(-0.0102395 0.0594706 0)
(-0.0118908 0.0608325 0)
(-0.0135083 0.0616106 0)
(-0.0150787 0.0619382 0)
(-0.0165936 0.0619271 0)
(-0.0180482 0.0616682 0)
(-0.0194406 0.0612334 0)
(-0.0207705 0.0606779 0)
(-0.0220388 0.0600429 0)
(-0.0232473 0.0593591 0)
(-0.0243984 0.0586485 0)
(-0.0254945 0.0579271 0)
(-0.0265384 0.0572064 0)
(-0.0275329 0.0564948 0)
(-0.0284808 0.0557987 0)
(-0.029385 0.0551228 0)
(-0.0302482 0.054471 0)
(-0.0310733 0.0538469 0)
(-0.0318629 0.0532532 0)
(-0.0326194 0.0526928 0)
(-0.0333462 0.0521682 0)
(-0.0340454 0.051682 0)
(-0.0347197 0.0512367 0)
(-0.0353715 0.050835 0)
(-0.0360033 0.0504795 0)
(-0.0366176 0.0501733 0)
(-0.0372168 0.0499195 0)
(-0.0378037 0.0497213 0)
(-0.0383807 0.0495825 0)
(-0.0389506 0.0495071 0)
(-0.0395164 0.0494995 0)
(-0.0400811 0.0495647 0)
(-0.0406481 0.049708 0)
(-0.0412208 0.0499355 0)
(-0.041804 0.050254 0)
(-0.042402 0.0506712 0)
(-7.30202e-05 0.00732108 0)
(-0.000505631 0.0199314 0)
(-0.00140829 0.0305571 0)
(-0.00262304 0.0393111 0)
(-0.00405956 0.0463499 0)
(-0.00565005 0.0518564 0)
(-0.00733384 0.0560278 0)
(-0.00906117 0.0590642 0)
(-0.0107938 0.0611593 0)
(-0.0125034 0.062493 0)
(-0.0141702 0.0632264 0)
(-0.0157809 0.0634986 0)
(-0.0173276 0.0634257 0)
(-0.0188061 0.063102 0)
(-0.020215 0.0626015 0)
(-0.0215546 0.0619808 0)
(-0.0228267 0.0612824 0)
(-0.0240335 0.0605374 0)
(-0.0251779 0.0597683 0)
(-0.0262628 0.0589912 0)
(-0.0272915 0.0582178 0)
(-0.0282671 0.0574565 0)
(-0.0291927 0.0567135 0)
(-0.0300714 0.0559938 0)
(-0.0309063 0.055301 0)
(-0.0317003 0.0546387 0)
(-0.032456 0.0540096 0)
(-0.0331767 0.0534165 0)
(-0.0338649 0.0528619 0)
(-0.034523 0.0523482 0)
(-0.0351537 0.0518779 0)
(-0.0357592 0.0514536 0)
(-0.0363419 0.0510779 0)
(-0.0369041 0.0507539 0)
(-0.037448 0.0504847 0)
(-0.037976 0.0502735 0)
(-0.0384904 0.0501243 0)
(-0.0389934 0.0500411 0)
(-0.0394875 0.0500285 0)
(-0.0399755 0.0500916 0)
(-0.0404598 0.0502361 0)
(-0.0409435 0.0504683 0)
(-0.0414307 0.0507954 0)
(-0.0419246 0.0512257 0)
(-7.93392e-05 0.0075916 0)
(-0.000545955 0.0206582 0)
(-0.00151524 0.0316476 0)
(-0.00281352 0.0406757 0)
(-0.0043412 0.0479073 0)
(-0.00602407 0.0535368 0)
(-0.00779649 0.057774 0)
(-0.0096053 0.0608311 0)
(-0.0114102 0.0629128 0)
(-0.013182 0.0642089 0)
(-0.0149004 0.064888 0)
(-0.0165527 0.0650955 0)
(-0.0181314 0.0649522 0)
(-0.019633 0.0645555 0)
(-0.021057 0.0639819 0)
(-0.0224046 0.0632895 0)
(-0.0236781 0.0625217 0)
(-0.0248805 0.0617102 0)
(-0.0260154 0.0608778 0)
(-0.0270862 0.0600407 0)
(-0.0280965 0.0592107 0)
(-0.0290501 0.058396 0)
(-0.0299503 0.057603 0)
(-0.0308006 0.0568364 0)
(-0.0316043 0.0560999 0)
(-0.0323645 0.0553968 0)
(-0.0330841 0.0547298 0)
(-0.0337661 0.0541016 0)
(-0.0344132 0.0535145 0)
(-0.0350277 0.0529708 0)
(-0.0356123 0.0524729 0)
(-0.0361691 0.0520232 0)
(-0.0367003 0.0516245 0)
(-0.0372081 0.0512796 0)
(-0.0376943 0.0509915 0)
(-0.0381611 0.0507637 0)
(-0.0386102 0.0505999 0)
(-0.0390437 0.0505044 0)
(-0.0394636 0.0504817 0)
(-0.0398718 0.0505372 0)
(-0.0402705 0.0506766 0)
(-0.0406617 0.0509065 0)
(-0.0410489 0.0512345 0)
(-0.0414344 0.0516689 0)
(-8.66757e-05 0.00788459 0)
(-0.000592381 0.0214416 0)
(-0.00163776 0.0328178 0)
(-0.00303071 0.0421326 0)
(-0.00466089 0.0495616 0)
(-0.0064467 0.0553125 0)
(-0.00831692 0.0596092 0)
(-0.0102147 0.062678 0)
(-0.0120975 0.0647359 0)
(-0.0139353 0.0659832 0)
(-0.0157077 0.066597 0)
(-0.0174025 0.0667294 0)
(-0.019013 0.0665059 0)
(-0.0205366 0.0660275 0)
(-0.0219739 0.0653729 0)
(-0.023327 0.0646017 0)
(-0.0245991 0.0637583 0)
(-0.025794 0.0628746 0)
(-0.026916 0.0619739 0)
(-0.0279692 0.0610724 0)
(-0.0289579 0.0601817 0)
(-0.029886 0.0593103 0)
(-0.0307576 0.0584641 0)
(-0.0315762 0.0576477 0)
(-0.0323455 0.0568648 0)
(-0.0330689 0.0561185 0)
(-0.0337494 0.0554112 0)
(-0.0343898 0.0547455 0)
(-0.0349931 0.0541235 0)
(-0.0355615 0.0535473 0)
(-0.0360975 0.0530193 0)
(-0.0366033 0.0525416 0)
(-0.0370808 0.052117 0)
(-0.0375319 0.051748 0)
(-0.0379583 0.0514377 0)
(-0.0383617 0.0511895 0)
(-0.0387435 0.0510071 0)
(-0.0391053 0.0508946 0)
(-0.0394486 0.0508567 0)
(-0.0397747 0.0508987 0)
(-0.0400851 0.0510265 0)
(-0.0403811 0.0512469 0)
(-0.0406652 0.0515675 0)
(-0.040939 0.0519969 0)
(-9.52296e-05 0.00820353 0)
(-0.00064606 0.0222899 0)
(-0.00177867 0.0340786 0)
(-0.00327931 0.0436941 0)
(-0.00502503 0.0513246 0)
(-0.00692576 0.0571938 0)
(-0.00890398 0.0615422 0)
(-0.0108987 0.0646117 0)
(-0.0128654 0.0666334 0)
(-0.014773 0.067819 0)
(-0.0166016 0.0683551 0)
(-0.0183393 0.0684005 0)
(-0.0199808 0.0680861 0)
(-0.0215248 0.0675163 0)
(-0.0229728 0.0667721 0)
(-0.0243282 0.0659145 0)
(-0.0255954 0.0649887 0)
(-0.0267791 0.0640271 0)
(-0.0278843 0.063053 0)
(-0.0289161 0.0620826 0)
(-0.0298791 0.0611274 0)
(-0.030778 0.0601957 0)
(-0.0316171 0.0592932 0)
(-0.0324005 0.0584244 0)
(-0.0331321 0.0575926 0)
(-0.0338153 0.0568006 0)
(-0.0344535 0.0560508 0)
(-0.0350495 0.0553454 0)
(-0.0356062 0.0546862 0)
(-0.036126 0.0540753 0)
(-0.0366111 0.0535147 0)
(-0.0370635 0.0530066 0)
(-0.0374851 0.0525532 0)
(-0.0378775 0.0521571 0)
(-0.0382421 0.0518214 0)
(-0.0385801 0.051549 0)
(-0.0388928 0.0513437 0)
(-0.0391811 0.0512096 0)
(-0.0394458 0.0511512 0)
(-0.039688 0.0511739 0)
(-0.0399082 0.0512836 0)
(-0.0401068 0.0514869 0)
(-0.0402857 0.0517917 0)
(-0.0404452 0.0522065 0)
(-0.000105252 0.00855255 0)
(-0.000708419 0.0232132 0)
(-0.00194146 0.035443 0)
(-0.00356503 0.0453739 0)
(-0.00544136 0.0532095 0)
(-0.0074706 0.0591924 0)
(-0.00956813 0.0635825 0)
(-0.0116686 0.0666395 0)
(-0.0137252 0.0686102 0)
(-0.0157064 0.0697192 0)
(-0.0175926 0.0701631 0)
(-0.0193733 0.0701084 0)
(-0.0210442 0.0696911 0)
(-0.0226058 0.0690193 0)
(-0.0240612 0.0681762 0)
(-0.025415 0.0672242 0)
(-0.026673 0.066209 0)
(-0.0278409 0.0651635 0)
(-0.0289248 0.0641108 0)
(-0.0299305 0.0630671 0)
(-0.0308634 0.0620436 0)
(-0.0317287 0.0610483 0)
(-0.0325313 0.0600866 0)
(-0.0332755 0.0591627 0)
(-0.0339655 0.0582796 0)
(-0.0346051 0.0574399 0)
(-0.0351976 0.0566455 0)
(-0.0357461 0.0558983 0)
(-0.0362534 0.0552 0)
(-0.0367217 0.0545522 0)
(-0.0371534 0.0539569 0)
(-0.0375502 0.0534158 0)
(-0.0379138 0.052931 0)
(-0.0382454 0.0525051 0)
(-0.0385463 0.0521405 0)
(-0.0388173 0.0518404 0)
(-0.0390591 0.0516081 0)
(-0.0392722 0.0514478 0)
(-0.039457 0.0513637 0)
(-0.0396137 0.0513612 0)
(-0.0397422 0.051446 0)
(-0.0398421 0.0516248 0)
(-0.0399143 0.0519052 0)
(-0.0399581 0.0522958 0)
(-0.000117064 0.00893667 0)
(-0.000781247 0.024223 0)
(-0.00213045 0.0369265 0)
(-0.00389488 0.0471885 0)
(-0.00591928 0.0552319 0)
(-0.00809246 0.0613217 0)
(-0.0103219 0.0657405 0)
(-0.0125374 0.0687688 0)
(-0.0146901 0.0706711 0)
(-0.0167482 0.0716862 0)
(-0.018693 0.0720216 0)
(-0.0205155 0.0718518 0)
(-0.0222134 0.0713184 0)
(-0.0237889 0.070533 0)
(-0.0252471 0.0695811 0)
(-0.0265944 0.0685261 0)
(-0.0278378 0.0674144 0)
(-0.0289846 0.0662789 0)
(-0.0300418 0.0651425 0)
(-0.031016 0.0640211 0)
(-0.0319137 0.0629256 0)
(-0.0327404 0.0618635 0)
(-0.0335017 0.0608399 0)
(-0.0342022 0.0598586 0)
(-0.0348466 0.0589222 0)
(-0.0354386 0.0580327 0)
(-0.0359818 0.0571919 0)
(-0.0364794 0.0564011 0)
(-0.0369341 0.0556619 0)
(-0.0373481 0.0549754 0)
(-0.0377237 0.0543433 0)
(-0.0380624 0.053767 0)
(-0.0383656 0.0532485 0)
(-0.0386344 0.0527898 0)
(-0.0388696 0.0523933 0)
(-0.0390718 0.0520619 0)
(-0.0392411 0.0517988 0)
(-0.0393776 0.0516077 0)
(-0.0394811 0.0514929 0)
(-0.0395511 0.0514593 0)
(-0.0395868 0.0515127 0)
(-0.039587 0.0516594 0)
(-0.0395518 0.0519069 0)
(-0.0394794 0.0522637 0)
(-0.000131073 0.00936191 0)
(-0.000866813 0.0253337 0)
(-0.00235108 0.0385473 0)
(-0.00427759 0.0491569 0)
(-0.00647033 0.0574091 0)
(-0.00880497 0.0635963 0)
(-0.01118 0.0680277 0)
(-0.0135204 0.0710077 0)
(-0.0157753 0.0728209 0)
(-0.017913 0.0737218 0)
(-0.0199163 0.07393 0)
(-0.0217783 0.0736284 0)
(-0.0234993 0.0729643 0)
(-0.0250838 0.0720528 0)
(-0.026539 0.0709814 0)
(-0.0278735 0.0698147 0)
(-0.0290959 0.068599 0)
(-0.030215 0.0673673 0)
(-0.0312389 0.0661421 0)
(-0.0321755 0.0649389 0)
(-0.0330319 0.0637679 0)
(-0.0338144 0.0626362 0)
(-0.0345289 0.0615484 0)
(-0.0351808 0.0605076 0)
(-0.0357746 0.059516 0)
(-0.0363147 0.0585751 0)
(-0.0368045 0.0576863 0)
(-0.0372473 0.0568505 0)
(-0.0376458 0.0560687 0)
(-0.0380022 0.0553419 0)
(-0.0383186 0.0546712 0)
(-0.0385963 0.0540578 0)
(-0.0388365 0.0535032 0)
(-0.0390401 0.0530092 0)
(-0.0392074 0.052578 0)
(-0.0393386 0.0522119 0)
(-0.0394337 0.0519141 0)
(-0.0394919 0.0516879 0)
(-0.0395127 0.0515374 0)
(-0.0394948 0.0514672 0)
(-0.0394369 0.0514827 0)
(-0.0393367 0.0515901 0)
(-0.0391936 0.0517966 0)
(-0.0390048 0.0521102 0)
(-0.000147815 0.00983568 0)
(-0.000968026 0.0265622 0)
(-0.00261023 0.0403271 0)
(-0.00472408 0.0513015 0)
(-0.00710878 0.0597616 0)
(-0.00962475 0.0660329 0)
(-0.0121606 0.0704563 0)
(-0.0146359 0.0733641 0)
(-0.0169985 0.0750635 0)
(-0.0192174 0.0758268 0)
(-0.0212777 0.0758865 0)
(-0.0231755 0.0754343 0)
(-0.0249139 0.0746235 0)
(-0.0265006 0.0735724 0)
(-0.0279454 0.0723705 0)
(-0.0292592 0.0710827 0)
(-0.0304526 0.0697557 0)
(-0.0315361 0.0684218 0)
(-0.0325192 0.0671029 0)
(-0.0334108 0.0658139 0)
(-0.0342188 0.0645643 0)
(-0.0349504 0.0633605 0)
(-0.035612 0.0622063 0)
(-0.0362092 0.0611043 0)
(-0.0367471 0.060056 0)
(-0.0372298 0.0590625 0)
(-0.0376614 0.0581245 0)
(-0.0380448 0.0572425 0)
(-0.0383828 0.0564169 0)
(-0.0386775 0.0556483 0)
(-0.0389308 0.0549374 0)
(-0.039144 0.054285 0)
(-0.0393178 0.0536923 0)
(-0.039453 0.0531608 0)
(-0.0395495 0.052692 0)
(-0.0396072 0.0522883 0)
(-0.0396254 0.0519522 0)
(-0.0396033 0.0516869 0)
(-0.0395394 0.051496 0)
(-0.0394321 0.0513838 0)
(-0.0392792 0.0513554 0)
(-0.0390777 0.0514165 0)
(-0.0388263 0.051574 0)
(-0.0385212 0.0518356 0)
(-0.000167995 0.0103671 0)
(-0.00108867 0.0279296 0)
(-0.00291671 0.0422922 0)
(-0.00524814 0.0536486 0)
(-0.00785239 0.0623125 0)
(-0.0105722 0.0686498 0)
(-0.013285 0.0730392 0)
(-0.0159055 0.0758456 0)
(-0.0183804 0.0774021 0)
(-0.0206806 0.0780005 0)
(-0.0227944 0.0778875 0)
(-0.0247218 0.0772639 0)
(-0.0264698 0.0762889 0)
(-0.0280498 0.0750839 0)
(-0.0294747 0.0737397 0)
(-0.030758 0.0723216 0)
(-0.0319127 0.0708757 0)
(-0.0329511 0.0694337 0)
(-0.0338842 0.0680167 0)
(-0.034722 0.0666383 0)
(-0.0354733 0.0653074 0)
(-0.036146 0.0640293 0)
(-0.0367471 0.0628071 0)
(-0.0372826 0.0616426 0)
(-0.0377577 0.0605366 0)
(-0.0381768 0.0594894 0)
(-0.0385439 0.0585012 0)
(-0.0388621 0.057572 0)
(-0.0391341 0.0567015 0)
(-0.0393619 0.05589 0)
(-0.0395471 0.0551377 0)
(-0.0396908 0.0544448 0)
(-0.0397936 0.0538123 0)
(-0.0398559 0.053241 0)
(-0.0398774 0.0527323 0)
(-0.0398576 0.052288 0)
(-0.0397954 0.0519103 0)
(-0.0396894 0.051602 0)
(-0.0395378 0.0513664 0)
(-0.0393383 0.0512073 0)
(-0.0390883 0.0511292 0)
(-0.0387839 0.0511377 0)
(-0.0384231 0.0512389 0)
(-0.0380012 0.0514402 0)
(-0.000192561 0.0109677 0)
(-0.00123373 0.0294618 0)
(-0.00328199 0.0444744 0)
(-0.00586744 0.0562297 0)
(-0.00872352 0.0650888 0)
(-0.0116724 0.0714674 0)
(-0.0145796 0.07579 0)
(-0.0173548 0.0784592 0)
(-0.0199449 0.0798381 0)
(-0.0223241 0.0802402 0)
(-0.0244853 0.0799269 0)
(-0.0264333 0.079109 0)
(-0.0281802 0.0779508 0)
(-0.0297417 0.0765767 0)
(-0.0311345 0.0750782 0)
(-0.0323752 0.0735204 0)
(-0.0334793 0.0719486 0)
(-0.034461 0.070393 0)
(-0.0353329 0.0688736 0)
(-0.0361062 0.0674028 0)
(-0.0367906 0.0659883 0)
(-0.0373949 0.0646342 0)
(-0.0379262 0.0633428 0)
(-0.038391 0.0621148 0)
(-0.0387948 0.0609502 0)
(-0.0391422 0.0598488 0)
(-0.0394369 0.0588098 0)
(-0.0396823 0.0578326 0)
(-0.0398807 0.0569166 0)
(-0.0400342 0.0560612 0)
(-0.0401441 0.0552663 0)
(-0.0402114 0.0545316 0)
(-0.0402364 0.0538576 0)
(-0.0402192 0.0532446 0)
(-0.0401593 0.0526938 0)
(-0.0400558 0.0522063 0)
(-0.0399072 0.0517841 0)
(-0.0397119 0.0514294 0)
(-0.0394674 0.0511451 0)
(-0.0391712 0.0509345 0)
(-0.0388199 0.0508018 0)
(-0.0384091 0.0507518 0)
(-0.0379362 0.0507901 0)
(-0.0373957 0.0509235 0)
(-0.000222815 0.0116519 0)
(-0.00140988 0.0311909 0)
(-0.00372116 0.0469126 0)
(-0.00660479 0.0590821 0)
(-0.00975048 0.0681212 0)
(-0.0129566 0.074508 0)
(-0.016076 0.0787219 0)
(-0.0190141 0.0812105 0)
(-0.0217199 0.0823706 0)
(-0.0241724 0.0825399 0)
(-0.0263709 0.0819957 0)
(-0.0283268 0.080958 0)
(-0.0300582 0.0795965 0)
(-0.031586 0.0780375 0)
(-0.0329313 0.0763726 0)
(-0.0341141 0.0746659 0)
(-0.0351526 0.0729612 0)
(-0.0360633 0.071287 0)
(-0.0368602 0.0696616 0)
(-0.0375558 0.0680959 0)
(-0.0381608 0.066596 0)
(-0.0386843 0.0651647 0)
(-0.0391341 0.0638032 0)
(-0.0395168 0.0625111 0)
(-0.0398381 0.0612876 0)
(-0.0401027 0.0601315 0)
(-0.0403143 0.0590413 0)
(-0.040476 0.0580157 0)
(-0.0405903 0.0570534 0)
(-0.040659 0.0561534 0)
(-0.0406832 0.0553149 0)
(-0.0406638 0.0545372 0)
(-0.0406008 0.0538202 0)
(-0.0404941 0.0531639 0)
(-0.0403429 0.0525689 0)
(-0.040146 0.052036 0)
(-0.0399018 0.0515665 0)
(-0.039608 0.0511624 0)
(-0.0392622 0.0508258 0)
(-0.0388612 0.0505599 0)
(-0.0384012 0.050368 0)
(-0.0378775 0.0502544 0)
(-0.0372868 0.0502242 0)
(-0.0366231 0.0502834 0)
(-0.000260577 0.0124383 0)
(-0.00162625 0.0331577 0)
(-0.00425438 0.0496548 0)
(-0.00749003 0.0622502 0)
(-0.0109695 0.071445 0)
(-0.0144639 0.0777952 0)
(-0.0178129 0.0818475 0)
(-0.0209197 0.0841024 0)
(-0.0237374 0.0849952 0)
(-0.0262526 0.0848898 0)
(-0.0284733 0.08408 0)
(-0.0304192 0.0827952 0)
(-0.0321158 0.081209 0)
(-0.0335901 0.079449 0)
(-0.0348682 0.0776056 0)
(-0.0359738 0.0757413 0)
(-0.0369282 0.0738973 0)
(-0.0377498 0.0721002 0)
(-0.0384544 0.0703658 0)
(-0.0390555 0.0687032 0)
(-0.0395646 0.0671165 0)
(-0.0399914 0.0656073 0)
(-0.040344 0.0641752 0)
(-0.0406292 0.0628187 0)
(-0.0408527 0.061536 0)
(-0.0410191 0.0603248 0)
(-0.0411323 0.059183 0)
(-0.0411952 0.0581086 0)
(-0.04121 0.0570995 0)
(-0.0411785 0.0561541 0)
(-0.0411017 0.055271 0)
(-0.0409801 0.0544492 0)
(-0.0408138 0.0536879 0)
(-0.0406022 0.0529867 0)
(-0.0403445 0.0523457 0)
(-0.0400393 0.0517652 0)
(-0.0396846 0.0512462 0)
(-0.0392782 0.0507899 0)
(-0.0388171 0.0503983 0)
(-0.0382981 0.0500736 0)
(-0.037717 0.0498189 0)
(-0.0370689 0.0496377 0)
(-0.0363499 0.0495343 0)
(-0.0355539 0.0495141 0)
(-0.000308469 0.0133514 0)
(-0.00189553 0.0354143 0)
(-0.00490901 0.0527606 0)
(-0.00856271 0.0657875 0)
(-0.0124273 0.0751002 0)
(-0.0162432 0.0813538 0)
(-0.0198376 0.0851773 0)
(-0.0231141 0.0871337 0)
(-0.0260337 0.0877019 0)
(-0.0285942 0.0872741 0)
(-0.030815 0.0861606 0)
(-0.0327263 0.0845991 0)
(-0.0343625 0.0827662 0)
(-0.0357575 0.0807889 0)
(-0.036943 0.0787554 0)
(-0.0379468 0.0767253 0)
(-0.038793 0.0747366 0)
(-0.0395024 0.0728128 0)
(-0.0400921 0.070967 0)
(-0.0405766 0.0692059 0)
(-0.040968 0.0675316 0)
(-0.0412765 0.0659438 0)
(-0.0415103 0.0644407 0)
(-0.0416764 0.0630196 0)
(-0.0417804 0.0616773 0)
(-0.0418269 0.0604109 0)
(-0.0418196 0.0592171 0)
(-0.0417613 0.0580932 0)
(-0.0416542 0.0570366 0)
(-0.0414998 0.0560449 0)
(-0.041299 0.0551163 0)
(-0.0410522 0.0542491 0)
(-0.0407594 0.0534421 0)
(-0.0404199 0.0526945 0)
(-0.0400327 0.0520058 0)
(-0.0395963 0.051376 0)
(-0.0391086 0.0508054 0)
(-0.0385674 0.0502948 0)
(-0.0379696 0.0498457 0)
(-0.0373118 0.0494598 0)
(-0.0365897 0.0491395 0)
(-0.0357982 0.0488876 0)
(-0.0349335 0.0487078 0)
(-0.0339891 0.0486046 0)
(-0.00037038 0.0144236 0)
(-0.00223579 0.0380285 0)
(-0.00572284 0.0563049 0)
(-0.00987581 0.0697578 0)
(-0.0141847 0.0791313 0)
(-0.0183561 0.0852078 0)
(-0.0222072 0.0887174 0)
(-0.0256469 0.0902965 0)
(-0.0286494 0.090473 0)
(-0.031228 0.0896687 0)
(-0.0334172 0.0882099 0)
(-0.0352602 0.0863408 0)
(-0.0368016 0.0842387 0)
(-0.0380835 0.0820282 0)
(-0.0391432 0.0797939 0)
(-0.0400129 0.0775906 0)
(-0.0407196 0.0754523 0)
(-0.0412858 0.0733987 0)
(-0.0417302 0.0714396 0)
(-0.0420678 0.0695787 0)
(-0.0423114 0.067816 0)
(-0.0424713 0.0661492 0)
(-0.0425557 0.0645747 0)
(-0.0425717 0.0630884 0)
(-0.0425249 0.0616861 0)
(-0.0424196 0.0603636 0)
(-0.0422595 0.0591171 0)
(-0.0420473 0.0579429 0)
(-0.0417851 0.0568376 0)
(-0.0414743 0.0557986 0)
(-0.0411157 0.0548232 0)
(-0.0407097 0.0539093 0)
(-0.0402561 0.0530552 0)
(-0.0397544 0.0522597 0)
(-0.0392035 0.0515218 0)
(-0.038602 0.0508409 0)
(-0.0379479 0.0502171 0)
(-0.0372388 0.0496507 0)
(-0.0364718 0.0491424 0)
(-0.0356436 0.0486936 0)
(-0.0347501 0.0483059 0)
(-0.0337861 0.0479817 0)
(-0.0327479 0.0477236 0)
(-0.0316291 0.0475355 0)
(-0.000452288 0.0156992 0)
(-0.00267343 0.0410896 0)
(-0.00674908 0.0603823 0)
(-0.0115014 0.0742372 0)
(-0.0163211 0.0835869 0)
(-0.0208802 0.0893781 0)
(-0.0249909 0.092466 0)
(-0.0285751 0.0935726 0)
(-0.0316276 0.0932796 0)
(-0.0341835 0.0920387 0)
(-0.0362961 0.0901899 0)
(-0.0380244 0.0879811 0)
(-0.0394249 0.0855876 0)
(-0.0405483 0.083129 0)
(-0.041438 0.0806836 0)
(-0.0421301 0.0783007 0)
(-0.0426543 0.0760087 0)
(-0.0430349 0.0738226 0)
(-0.0432913 0.0717483 0)
(-0.0434394 0.0697865 0)
(-0.0434919 0.0679344 0)
(-0.0434593 0.0661875 0)
(-0.04335 0.0645406 0)
(-0.0431707 0.0629881 0)
(-0.042927 0.0615246 0)
(-0.0426232 0.0601449 0)
(-0.0422628 0.0588443 0)
(-0.0418487 0.0576182 0)
(-0.0413827 0.0564629 0)
(-0.0408662 0.0553749 0)
(-0.0403004 0.0543511 0)
(-0.0396854 0.053389 0)
(-0.0390213 0.0524864 0)
(-0.0383077 0.0516415 0)
(-0.0375437 0.0508529 0)
(-0.0367279 0.0501199 0)
(-0.0358586 0.0494417 0)
(-0.0349338 0.0488184 0)
(-0.0339506 0.0482502 0)
(-0.0329061 0.0477378 0)
(-0.0317965 0.0472823 0)
(-0.0306169 0.0468854 0)
(-0.0293638 0.0465491 0)
(-0.0280314 0.0462762 0)
(-0.000563777 0.0172402 0)
(-0.00324815 0.0447175 0)
(-0.00806402 0.0651135 0)
(-0.0135383 0.0793156 0)
(-0.0189413 0.0885167 0)
(-0.0239126 0.0938781 0)
(-0.0282704 0.0964083 0)
(-0.0319613 0.0969282 0)
(-0.0350109 0.0960765 0)
(-0.0374831 0.0943329 0)
(-0.0394555 0.0920472 0)
(-0.0410049 0.0894667 0)
(-0.0422011 0.0867602 0)
(-0.0431037 0.0840394 0)
(-0.0437618 0.0813741 0)
(-0.0442155 0.0788056 0)
(-0.0444965 0.076356 0)
(-0.0446304 0.0740346 0)
(-0.0446373 0.071843 0)
(-0.0445333 0.0697784 0)
(-0.0443313 0.067835 0)
(-0.0440416 0.0660063 0)
(-0.0436727 0.0642851 0)
(-0.0432313 0.0626644 0)
(-0.0427228 0.0611376 0)
(-0.0421517 0.0596986 0)
(-0.0415216 0.0583416 0)
(-0.0408352 0.0570617 0)
(-0.0400947 0.0558543 0)
(-0.0393017 0.0547154 0)
(-0.0384574 0.0536414 0)
(-0.0375623 0.0526294 0)
(-0.0366169 0.0516767 0)
(-0.0356208 0.0507812 0)
(-0.0345736 0.0499411 0)
(-0.0334743 0.0491552 0)
(-0.0323216 0.0484223 0)
(-0.0311138 0.047742 0)
(-0.0298485 0.0471141 0)
(-0.0285233 0.0465389 0)
(-0.0271349 0.0460168 0)
(-0.0256789 0.0455488 0)
(-0.0241524 0.0451362 0)
(-0.0225502 0.0447811 0)
(-0.000720931 0.0191361 0)
(-0.00402154 0.0490761 0)
(-0.0097794 0.0706525 0)
(-0.0161243 0.0850966 0)
(-0.0221827 0.0939668 0)
(-0.0275735 0.0987053 0)
(-0.032139 0.100508 0)
(-0.0358686 0.100306 0)
(-0.038832 0.0987946 0)
(-0.0411309 0.0964775 0)
(-0.0428713 0.093707 0)
(-0.0441509 0.090723 0)
(-0.0450528 0.0876833 0)
(-0.0456455 0.0846872 0)
(-0.0459835 0.0817933 0)
(-0.0461099 0.0790335 0)
(-0.0460582 0.0764219 0)
(-0.0458547 0.0739617 0)
(-0.0455199 0.0716496 0)
(-0.0450702 0.0694789 0)
(-0.0445184 0.0674411 0)
(-0.0438751 0.0655274 0)
(-0.0431487 0.0637287 0)
(-0.0423461 0.0620367 0)
(-0.0414729 0.0604436 0)
(-0.040534 0.0589422 0)
(-0.039533 0.0575262 0)
(-0.0384732 0.0561898 0)
(-0.0373571 0.054928 0)
(-0.0361867 0.0537362 0)
(-0.0349636 0.0526104 0)
(-0.033689 0.0515472 0)
(-0.0323636 0.0505435 0)
(-0.0309876 0.049597 0)
(-0.0295612 0.0487053 0)
(-0.0280839 0.0478668 0)
(-0.026555 0.0470801 0)
(-0.0249732 0.0463443 0)
(-0.023337 0.0456587 0)
(-0.0216444 0.0450232 0)
(-0.0198929 0.0444376 0)
(-0.0180789 0.0439024 0)
(-0.0161999 0.0434181 0)
(-0.0142518 0.0429861 0)
(-0.000952095 0.021521 0)
(-0.00509235 0.0543937 0)
(-0.0120619 0.0771956 0)
(-0.0194515 0.0916942 0)
(-0.0262247 0.0999683 0)
(-0.0320062 0.103828 0)
(-0.0366948 0.104692 0)
(-0.0403474 0.10361 0)
(-0.0430948 0.101329 0)
(-0.0450856 0.0983645 0)
(-0.0464592 0.095061 0)
(-0.0473348 0.0916431 0)
(-0.0478092 0.0882507 0)
(-0.047959 0.0849666 0)
(-0.0478431 0.0818353 0)
(-0.047507 0.0788773 0)
(-0.0469856 0.0760979 0)
(-0.0463057 0.0734935 0)
(-0.0454885 0.0710558 0)
(-0.0445505 0.0687742 0)
(-0.0435052 0.0666373 0)
(-0.0423633 0.0646339 0)
(-0.0411338 0.0627534 0)
(-0.0398242 0.0609861 0)
(-0.0384407 0.059323 0)
(-0.0369887 0.0577562 0)
(-0.0354727 0.0562785 0)
(-0.0338965 0.0548835 0)
(-0.0322633 0.0535656 0)
(-0.030576 0.0523198 0)
(-0.0288366 0.0511417 0)
(-0.0270472 0.0500274 0)
(-0.025209 0.0489735 0)
(-0.0233232 0.0479771 0)
(-0.0213904 0.0470357 0)
(-0.0194109 0.0461473 0)
(-0.0173846 0.04531 0)
(-0.015311 0.0445226 0)
(-0.0131893 0.0437839 0)
(-0.0110181 0.0430934 0)
(-0.00879573 0.0424505 0)
(-0.00651956 0.041855 0)
(-0.00418767 0.0413068 0)
(-0.00179708 0.0408065 0)
(-0.00130965 0.0246038 0)
(-0.00662427 0.0609932 0)
(-0.0151644 0.0849891 0)
(-0.0237886 0.0992207 0)
(-0.0312943 0.106516 0)
(-0.037369 0.109161 0)
(-0.042018 0.10883 0)
(-0.0454001 0.106689 0)
(-0.0477262 0.10352 0)
(-0.0492012 0.0998313 0)
(-0.0500003 0.0959475 0)
(-0.0502647 0.0920658 0)
(-0.0501041 0.0883013 0)
(-0.049602 0.0847154 0)
(-0.0488214 0.0813361 0)
(-0.0478099 0.078171 0)
(-0.046604 0.0752158 0)
(-0.0452316 0.0724598 0)
(-0.0437148 0.0698897 0)
(-0.0420714 0.067491 0)
(-0.0403157 0.0652494 0)
(-0.0384598 0.0631516 0)
(-0.0365138 0.0611854 0)
(-0.0344863 0.0593395 0)
(-0.0323847 0.0576042 0)
(-0.0302155 0.0559704 0)
(-0.0279842 0.0544304 0)
(-0.0256958 0.052977 0)
(-0.0233543 0.0516042 0)
(-0.0209635 0.0503064 0)
(-0.0185265 0.0490787 0)
(-0.016046 0.0479168 0)
(-0.0135241 0.046817 0)
(-0.0109627 0.0457759 0)
(-0.00836322 0.0447906 0)
(-0.00572653 0.0438588 0)
(-0.00305325 0.0429781 0)
(-0.000343566 0.042147 0)
(0.00240274 0.041364 0)
(0.00518627 0.0406279 0)
(0.00800809 0.0399379 0)
(0.01087 0.0392932 0)
(0.0137733 0.0386932 0)
(0.01672 0.0381376 0)
(-0.0018945 0.0287261 0)
(-0.00889714 0.0693381 0)
(-0.0194746 0.0943302 0)
(-0.0295039 0.107757 0)
(-0.037659 0.113527 0)
(-0.0437975 0.114524 0)
(-0.0481077 0.112694 0)
(-0.0508919 0.109294 0)
(-0.0524609 0.105111 0)
(-0.0530825 0.100623 0)
(-0.0529695 0.0961116 0)
(-0.0522846 0.0917356 0)
(-0.0511496 0.0875778 0)
(-0.049655 0.0836742 0)
(-0.0478685 0.0800341 0)
(-0.0458409 0.0766511 0)
(-0.0436114 0.073511 0)
(-0.0412104 0.070596 0)
(-0.0386625 0.0678876 0)
(-0.0359876 0.0653674 0)
(-0.0332024 0.0630184 0)
(-0.0303209 0.060825 0)
(-0.0273552 0.0587733 0)
(-0.0243156 0.0568508 0)
(-0.0212112 0.0550464 0)
(-0.0180497 0.0533502 0)
(-0.014838 0.0517536 0)
(-0.0115822 0.0502487 0)
(-0.00828743 0.0488288 0)
(-0.00495821 0.0474878 0)
(-0.00159847 0.0462203 0)
(0.00178844 0.0450214 0)
(0.00519971 0.0438869 0)
(0.00863301 0.0428131 0)
(0.0120865 0.0417967 0)
(0.0155587 0.0408347 0)
(0.0190487 0.0399247 0)
(0.0225559 0.0390644 0)
(0.0260802 0.0382521 0)
(0.0296217 0.0374861 0)
(0.0331812 0.0367653 0)
(0.0367599 0.0360886 0)
(0.0403591 0.0354546 0)
(0.0439797 0.0348624 0)
(-0.00290725 0.0344722 0)
(-0.0124008 0.0800955 0)
(-0.0255848 0.10554 0)
(-0.0370727 0.117278 0)
(-0.0455651 0.120755 0)
(-0.0512822 0.119559 0)
(-0.0546998 0.115879 0)
(-0.0563099 0.111006 0)
(-0.0565403 0.105681 0)
(-0.0557274 0.100315 0)
(-0.0541234 0.0951274 0)
(-0.0519137 0.0902256 0)
(-0.0492339 0.0856526 0)
(-0.0461842 0.0814162 0)
(-0.0428395 0.0775047 0)
(-0.0392566 0.0738974 0)
(-0.0354796 0.0705697 0)
(-0.0315436 0.0674963 0)
(-0.0274771 0.0646532 0)
(-0.0233033 0.0620181 0)
(-0.0190418 0.0595708 0)
(-0.0147092 0.0572934 0)
(-0.0103193 0.0551699 0)
(-0.00588428 0.0531862 0)
(-0.00141432 0.0513297 0)
(0.00308174 0.0495895 0)
(0.00759632 0.0479558 0)
(0.0121229 0.04642 0)
(0.0166561 0.0449744 0)
(0.021191 0.0436122 0)
(0.0257238 0.0423273 0)
(0.0302513 0.0411144 0)
(0.0347706 0.0399686 0)
(0.0392798 0.0388857 0)
(0.0437773 0.0378619 0)
(0.0482618 0.0368938 0)
(0.0527327 0.0359785 0)
(0.0571898 0.0351134 0)
(0.0616332 0.0342963 0)
(0.0660633 0.0335251 0)
(0.0704813 0.0327983 0)
(0.0748883 0.0321144 0)
(0.079286 0.0314718 0)
(0.0836755 0.030869 0)
(-0.00475429 0.0428958 0)
(-0.0180038 0.0942108 0)
(-0.0343672 0.118857 0)
(-0.0469877 0.12748 0)
(-0.0549874 0.127618 0)
(-0.0592691 0.123566 0)
(-0.0607261 0.117642 0)
(-0.0600862 0.111069 0)
(-0.057913 0.104472 0)
(-0.0546208 0.0981556 0)
(-0.0505083 0.0922517 0)
(-0.0457898 0.0868034 0)
(-0.0406203 0.0818088 0)
(-0.0351143 0.0772433 0)
(-0.029357 0.0730729 0)
(-0.0234134 0.0692605 0)
(-0.0173338 0.0657702 0)
(-0.0111576 0.0625684 0)
(-0.00491654 0.0596247 0)
(0.00136408 0.056912 0)
(0.00766353 0.0544063 0)
(0.0139649 0.0520866 0)
(0.0202544 0.0499343 0)
(0.0265206 0.0479334 0)
(0.0327543 0.0460695 0)
(0.038948 0.0443301 0)
(0.0450956 0.0427041 0)
(0.0511922 0.0411818 0)
(0.0572341 0.0397546 0)
(0.0632185 0.0384148 0)
(0.0691431 0.0371555 0)
(0.0750065 0.0359708 0)
(0.080808 0.0348552 0)
(0.0865471 0.0338038 0)
(0.092224 0.0328126 0)
(0.0978392 0.0318775 0)
(0.103394 0.0309952 0)
(0.108889 0.0301628 0)
(0.114326 0.0293777 0)
(0.119706 0.0286374 0)
(0.125033 0.02794 0)
(0.130309 0.0272838 0)
(0.135536 0.0266671 0)
(0.140717 0.0260879 0)
(-0.00826953 0.0560125 0)
(-0.0272402 0.112939 0)
(-0.0469235 0.134113 0)
(-0.0592287 0.137393 0)
(-0.0646655 0.132818 0)
(-0.0653171 0.125138 0)
(-0.0626433 0.116557 0)
(-0.0576637 0.108072 0)
(-0.0511079 0.100109 0)
(-0.0434864 0.0928153 0)
(-0.0351542 0.0862136 0)
(-0.0263575 0.080265 0)
(-0.0172693 0.0749144 0)
(-0.00801448 0.0700992 0)
(0.00131723 0.0657585 0)
(0.0106605 0.0618361 0)
(0.0199673 0.0582823 0)
(0.0292022 0.0550532 0)
(0.0383391 0.0521106 0)
(0.0473588 0.0494214 0)
(0.0562473 0.0469571 0)
(0.0649947 0.0446929 0)
(0.0735942 0.0426072 0)
(0.0820415 0.0406815 0)
(0.090334 0.0388994 0)
(0.0984709 0.037247 0)
(0.106452 0.0357117 0)
(0.11428 0.0342826 0)
(0.121955 0.0329503 0)
(0.12948 0.0317061 0)
(0.136859 0.0305427 0)
(0.144094 0.0294534 0)
(0.15119 0.0284323 0)
(0.15815 0.0274743 0)
(0.164978 0.0265746 0)
(0.171679 0.0257291 0)
(0.178257 0.0249342 0)
(0.184715 0.0241866 0)
(0.19106 0.0234835 0)
(0.197295 0.0228222 0)
(0.203426 0.0222006 0)
(0.209456 0.0216167 0)
(0.215391 0.0210688 0)
(0.221236 0.0205549 0)
(-0.0151534 0.0777383 0)
(-0.0426296 0.137481 0)
(-0.0635293 0.149865 0)
(-0.0706389 0.144409 0)
(-0.0683049 0.133377 0)
(-0.0604892 0.121275 0)
(-0.0493424 0.10975 0)
(-0.0362062 0.0993372 0)
(-0.0219664 0.0901406 0)
(-0.00719458 0.0820831 0)
(0.00774358 0.0750332 0)
(0.0226188 0.0688544 0)
(0.0372893 0.063423 0)
(0.0516625 0.0586306 0)
(0.065683 0.0543847 0)
(0.0793196 0.0506074 0)
(0.0925569 0.0472333 0)
(0.10539 0.0442073 0)
(0.117821 0.0414833 0)
(0.129856 0.0390222 0)
(0.141506 0.0367911 0)
(0.152783 0.0347619 0)
(0.163699 0.0329108 0)
(0.174268 0.0312173 0)
(0.184504 0.0296638 0)
(0.194421 0.0282353 0)
(0.204033 0.0269185 0)
(0.213353 0.0257022 0)
(0.222393 0.0245762 0)
(0.231168 0.0235321 0)
(0.239689 0.0225621 0)
(0.247967 0.0216595 0)
(0.256014 0.0208185 0)
(0.263841 0.0200339 0)
(0.271458 0.019301 0)
(0.278875 0.0186157 0)
(0.286102 0.0179745 0)
(0.293147 0.0173743 0)
(0.300019 0.016812 0)
(0.306728 0.0162854 0)
(0.313281 0.0157921 0)
(0.319687 0.0153302 0)
(0.325952 0.0148981 0)
(0.332087 0.0144942 0)
(-0.0284497 0.115109 0)
(-0.0660648 0.165397 0)
(-0.0752395 0.15808 0)
(-0.0621559 0.139385 0)
(-0.0402654 0.120881 0)
(-0.0150484 0.104718 0)
(0.0112806 0.0911287 0)
(0.0375216 0.079851 0)
(0.0630201 0.0704867 0)
(0.0874477 0.0626594 0)
(0.110674 0.0560635 0)
(0.132673 0.0504654 0)
(0.153472 0.0456786 0)
(0.173122 0.0415567 0)
(0.191689 0.0379838 0)
(0.209243 0.0348678 0)
(0.225853 0.0321347 0)
(0.241587 0.0297247 0)
(0.256509 0.027589 0)
(0.270679 0.0256878 0)
(0.28415 0.0239879 0)
(0.296975 0.0224619 0)
(0.309198 0.0210868 0)
(0.320863 0.0198434 0)
(0.332009 0.0187154 0)
(0.342671 0.0176888 0)
(0.352882 0.0167519 0)
(0.362673 0.0158945 0)
(0.37207 0.015108 0)
(0.381099 0.0143847 0)
(0.389784 0.0137182 0)
(0.398146 0.0131029 0)
(0.406205 0.0125336 0)
(0.41398 0.0120062 0)
(0.421487 0.0115169 0)
(0.428743 0.0110622 0)
(0.435763 0.0106394 0)
(0.44256 0.0102458 0)
(0.449147 0.00987921 0)
(0.455538 0.00953758 0)
(0.461743 0.0092192 0)
(0.467774 0.00892254 0)
(0.47364 0.00864623 0)
(0.479354 0.00838919 0)
(-0.0502216 0.199448 0)
(-0.0664462 0.177565 0)
(-0.0101553 0.128918 0)
(0.0496552 0.101076 0)
(0.103732 0.081627 0)
(0.152283 0.0664832 0)
(0.19582 0.0547794 0)
(0.234746 0.0458378 0)
(0.269549 0.0389192 0)
(0.300762 0.0334491 0)
(0.328876 0.0290435 0)
(0.354313 0.0254467 0)
(0.377427 0.0224764 0)
(0.398516 0.0199978 0)
(0.417834 0.01791 0)
(0.435596 0.0161363 0)
(0.451985 0.014618 0)
(0.467159 0.0133091 0)
(0.48125 0.0121736 0)
(0.494376 0.0111827 0)
(0.506635 0.0103131 0)
(0.518116 0.00954601 0)
(0.528894 0.00886617 0)
(0.539035 0.00826091 0)
(0.548597 0.00771978 0)
(0.557633 0.00723409 0)
(0.566189 0.00679654 0)