/*--------------------------------*- C++ -*----------------------------------*\
  =========                 |
  \\      /  F ield         | OpenFOAM: The Open Source CFD Toolbox
   \\    /   O peration     | Website:  https://openfoam.org
    \\  /    A nd           | Version:  9
     \\/     M anipulation  |
\*---------------------------------------------------------------------------*/
FoamFile
{
    format      ascii;
    class       volScalarField;
    location    "2.75";
    object      p;
}
// * * * * * * * * * * * * * * * * * * * * * * * * * * * * * * * * * * * * * //

dimensions      [0 2 -2 0 0 0 0];

internalField   nonuniform List<scalar> 
1250
(
-0.00392342
-0.00418053
-0.00443662
-0.00468888
-0.00493412
-0.00516886
-0.00538935
-0.00559159
-0.00577146
-0.00592473
-0.00604722
-0.00613486
-0.00618383
-0.00619069
-0.00615251
-0.00606703
-0.00593273
-0.00574903
-0.00551637
-0.00523629
-0.00491153
-0.00454607
-0.00414507
-0.0037146
-0.00326281
-0.00279795
-0.00232941
-0.00186724
-0.00142187
-0.00100387
-0.000623562
-0.000290767
-1.44273e-05
-0.00376573
-0.00401304
-0.00425994
-0.00450381
-0.00474169
-0.00497034
-0.0051862
-0.00538553
-0.00556438
-0.00571874
-0.00584456
-0.00593792
-0.0059951
-0.00601272
-0.00598788
-0.00591827
-0.00580232
-0.00563933
-0.00542954
-0.0051743
-0.00487612
-0.00453875
-0.00416705
-0.0037665
-0.00334461
-0.00290958
-0.00247035
-0.00203648
-0.00161797
-0.0012249
-0.000867217
-0.000554318
-0.000294793
-0.0036391
-0.00388184
-0.00412512
-0.00436647
-0.00460308
-0.00483184
-0.00504932
-0.00525184
-0.00543553
-0.0055964
-0.00573041
-0.0058336
-0.00590218
-0.00593266
-0.00592202
-0.00586778
-0.00576821
-0.00562238
-0.00543034
-0.00519319
-0.00491326
-0.00459403
-0.00423938
-0.00385628
-0.00345108
-0.00303175
-0.00260711
-0.00218663
-0.00178018
-0.00139776
-0.00104924
-0.000743989
-0.000490552
-0.00352883
-0.00377146
-0.00401603
-0.00426017
-0.00450118
-0.00473597
-0.00496116
-0.00517304
-0.00536768
-0.00554099
-0.00568879
-0.00580693
-0.00589143
-0.00593857
-0.00594506
-0.0059082
-0.00582597
-0.00569721
-0.00552171
-0.00530038
-0.00503541
-0.00473036
-0.00438776
-0.00401552
-0.00361986
-0.00320858
-0.00279045
-0.00237497
-0.00197205
-0.0015918
-0.00124421
-0.000938772
-0.000684214
-0.00343835
-0.00368611
-0.00393769
-0.0041908
-0.00444274
-0.00469039
-0.00493028
-0.00515856
-0.00537112
-0.00556362
-0.00573162
-0.00587068
-0.0059765
-0.00604503
-0.00607268
-0.00605641
-0.00599391
-0.00588376
-0.00572552
-0.0055199
-0.0052686
-0.00497413
-0.00464281
-0.00427873
-0.0038889
-0.00348132
-0.00306484
-0.00264903
-0.00224397
-0.00185994
-0.00150711
-0.00119525
-0.000933335
-0.00338345
-0.00364328
-0.00390931
-0.00417921
-0.0044502
-0.00471899
-0.0049819
-0.00523479
-0.00547323
-0.00569252
-0.00588783
-0.00605433
-0.0061873
-0.00628233
-0.00633546
-0.00634331
-0.00630329
-0.00621369
-0.00607386
-0.00588433
-0.00564669
-0.00536356
-0.00504009
-0.0046814
-0.00429431
-0.00388675
-0.00346762
-0.00304661
-0.00263395
-0.00224014
-0.00187563
-0.00155049
-0.00127405
-0.00338149
-0.00366199
-0.00395148
-0.00424749
-0.004547
-0.00484645
-0.00514174
-0.00542836
-0.0057014
-0.00595568
-0.00618591
-0.00638679
-0.00655316
-0.00668021
-0.00676359
-0.00679962
-0.00678539
-0.00671897
-0.00659947
-0.00642722
-0.00620374
-0.00593167
-0.00561558
-0.00526087
-0.0048743
-0.00446377
-0.00403824
-0.00360748
-0.00318187
-0.00277212
-0.00238899
-0.0020429
-0.00174361
-0.00345121
-0.00376244
-0.00408577
-0.00441844
-0.00475704
-0.00509754
-0.00543536
-0.00576542
-0.00608228
-0.00638022
-0.00665341
-0.00689604
-0.00710254
-0.00726767
-0.00738673
-0.00745572
-0.00747146
-0.00743179
-0.00733559
-0.00718299
-0.00697533
-0.00671524
-0.00640696
-0.00605582
-0.00566847
-0.00525278
-0.00481768
-0.00437297
-0.00392916
-0.00349716
-0.003088
-0.0027125
-0.00238092
-0.00361276
-0.00396607
-0.00433475
-0.00471556
-0.00510458
-0.00549718
-0.00588817
-0.00627184
-0.00664214
-0.00699277
-0.00731735
-0.0076096
-0.0078635
-0.00807342
-0.00823433
-0.00834194
-0.0083928
-0.00838448
-0.00831566
-0.00818618
-0.00799717
-0.00775119
-0.0074521
-0.00710506
-0.00671654
-0.00629424
-0.00584699
-0.00538457
-0.00491751
-0.00445688
-0.00401397
-0.00388697
-0.00429469
-0.00472101
-0.00516211
-0.00561337
-0.00606952
-0.00652465
-0.00697239
-0.00740604
-0.00781873
-0.00820355
-0.00855375
-0.00886289
-0.00912499
-0.0093347
-0.00948741
-0.00957941
-0.009608
-0.00957159
-0.00946974
-0.00930324
-0.0090745
-0.00878697
-0.0084455
-0.00805628
-0.00762676
-0.00716553
-0.00668225
-0.00618738
-0.0042945
-0.00476958
-0.00526632
-0.00578017
-0.00630577
-0.00683708
-0.00736746
-0.00788988
-0.00839698
-0.00888134
-0.00933554
-0.00975239
-0.0101251
-0.0104472
-0.0107132
-0.0109181
-0.0110579
-0.0111296
-0.0111314
-0.0110623
-0.0109231
-0.0107155
-0.0104427
-0.0101091
-0.00972064
-0.00928422
-0.00880815
-0.0083018
-0.00777547
-0.00485504
-0.00541073
-0.00599083
-0.00658996
-0.00720195
-0.00781998
-0.00843667
-0.00904429
-0.00963491
-0.0102005
-0.0107333
-0.0112255
-0.01167
-0.0120602
-0.01239
-0.0126543
-0.0128487
-0.01297
-0.0130159
-0.0129852
-0.0128782
-0.0126963
-0.0124421
-0.0121196
-0.0117341
-0.0112922
-0.0108016
-0.0102713
-0.00971133
-0.00558662
-0.00623611
-0.00691231
-0.00760898
-0.0083191
-0.00903503
-0.00974867
-0.0104516
-0.0111354
-0.0117914
-0.0124113
-0.0129872
-0.0135114
-0.013977
-0.0143777
-0.014708
-0.0149634
-0.0151402
-0.0152359
-0.015249
-0.0151792
-0.0150275
-0.0147961
-0.0144885
-0.0141092
-0.0136643
-0.013161
-0.0126076
-0.0120136
-0.00650485
-0.00726089
-0.00804541
-0.00885123
-0.00967047
-0.0104947
-0.0113151
-0.0121226
-0.012908
-0.0136625
-0.0143771
-0.0150436
-0.0156541
-0.0162012
-0.0166786
-0.0170804
-0.0174019
-0.0176392
-0.0177895
-0.0178509
-0.0178228
-0.0177057
-0.0175014
-0.0172127
-0.0168435
-0.0163993
-0.0158864
-0.0153126
-0.0146864
-0.00762227
-0.00849676
-0.0094008
-0.0103263
-0.0112644
-0.012206
-0.0131414
-0.014061
-0.0149551
-0.0158142
-0.0166293
-0.0173915
-0.0180927
-0.0187256
-0.0192834
-0.0197603
-0.0201513
-0.0204523
-0.0206605
-0.0207736
-0.0207907
-0.0207119
-0.0205385
-0.0202728
-0.0199182
-0.0194791
-0.0189612
-0.0183713
-0.0177173
-0.00894764
-0.00995112
-0.0109844
-0.0120384
-0.0131034
-0.0141694
-0.0152261
-0.0162631
-0.0172704
-0.018238
-0.0191564
-0.0200168
-0.0208108
-0.021531
-0.0221705
-0.0227236
-0.0231851
-0.0235511
-0.0238185
-0.023985
-0.0240494
-0.0240115
-0.0238723
-0.0236334
-0.0232976
-0.0228686
-0.0223513
-0.0217515
-0.021076
-0.0104853
-0.0116265
-0.0127967
-0.0139858
-0.0151833
-0.0163782
-0.0175595
-0.0187165
-0.0198385
-0.0209152
-0.0219371
-0.022895
-0.0237808
-0.0245869
-0.0253066
-0.0259342
-0.0264649
-0.0268947
-0.0272206
-0.0274404
-0.0275526
-0.0275567
-0.0274537
-0.0272446
-0.0269317
-0.026518
-0.0260073
-0.0254046
-0.0247155
-0.0122346
-0.0135198
-0.014832
-0.0161602
-0.0174927
-0.0188179
-0.0201243
-0.0214004
-0.0226353
-0.0238186
-0.0249407
-0.0259924
-0.0269656
-0.0278532
-0.0286488
-0.0293468
-0.0299427
-0.0304327
-0.0308142
-0.0310851
-0.0312438
-0.0312895
-0.0312236
-0.0310465
-0.0307598
-0.0303659
-0.0298679
-0.0292696
-0.0285759
-0.0141896
-0.0156224
-0.0170788
-0.0185467
-0.0200136
-0.0214672
-0.0228954
-0.0242864
-0.0256291
-0.0269131
-0.0281288
-0.0292674
-0.0303212
-0.0312832
-0.0321476
-0.0329093
-0.0335643
-0.0341091
-0.0345414
-0.0348593
-0.0350615
-0.0351467
-0.0351179
-0.0349736
-0.0347152
-0.0343448
-0.0338648
-0.0332782
-0.0325885
-0.0163393
-0.01792
-0.0195194
-0.0211243
-0.0227216
-0.0242982
-0.0258416
-0.02734
-0.0287823
-0.0301581
-0.0314581
-0.0326742
-0.033799
-0.0348263
-0.0357506
-0.0365677
-0.0372738
-0.0378663
-0.038343
-0.0387025
-0.0389443
-0.0390686
-0.039073
-0.0389602
-0.038731
-0.0383867
-0.0379289
-0.03736
-0.0366825
-0.0169675
-0.0186672
-0.020393
-0.0221309
-0.0238669
-0.0255871
-0.0272782
-0.0289274
-0.0305228
-0.0320537
-0.03351
-0.0348832
-0.0361654
-0.0373502
-0.0384319
-0.039406
-0.0402688
-0.0410173
-0.0416494
-0.0421634
-0.0425584
-0.0428341
-0.0429909
-0.0430275
-0.0429452
-0.042745
-0.042428
-0.0419954
-0.0414488
-0.0407901
-0.0193072
-0.021153
-0.0230177
-0.0248864
-0.0267444
-0.0285773
-0.0303715
-0.0321145
-0.0337946
-0.0354013
-0.0369254
-0.0383589
-0.039695
-0.0409278
-0.0420527
-0.0430659
-0.0439644
-0.0447461
-0.0454095
-0.0459534
-0.0463774
-0.0466815
-0.0468659
-0.0469306
-0.0468763
-0.0467039
-0.0464141
-0.0460081
-0.0454869
-0.0448516
-0.021788
-0.0237723
-0.0257669
-0.027756
-0.0297243
-0.0316574
-0.0335416
-0.0353647
-0.0371155
-0.0387844
-0.0403628
-0.0418436
-0.0432208
-0.0444898
-0.0456466
-0.0466885
-0.0476132
-0.0484192
-0.0491058
-0.0496724
-0.0501189
-0.0504457
-0.0506532
-0.0507418
-0.0507122
-0.0505652
-0.0503017
-0.0499223
-0.0494277
-0.0488188
-0.024386
-0.0264987
-0.0286117
-0.0307085
-0.0327737
-0.0347928
-0.0367526
-0.0386414
-0.0404486
-0.0421656
-0.0437849
-0.0453002
-0.0467067
-0.0480006
-0.049179
-0.0502399
-0.051182
-0.0520044
-0.0527069
-0.0532895
-0.0537526
-0.0540968
-0.0543228
-0.0544313
-0.054423
-0.0542988
-0.0540594
-0.0537055
-0.0532375
-0.052656
-0.0270757
-0.0293046
-0.0315225
-0.0337129
-0.0358603
-0.0379506
-0.0399712
-0.041911
-0.0437608
-0.0455125
-0.04716
-0.0486981
-0.0501231
-0.0514319
-0.0526228
-0.0536945
-0.0546464
-0.0554784
-0.0561906
-0.0567837
-0.0572583
-0.0576153
-0.0578556
-0.0579801
-0.0579898
-0.0578854
-0.0576677
-0.0573373
-0.0568947
-0.0563401
-0.029831
-0.0321621
-0.0344705
-0.0367395
-0.0389541
-0.0411007
-0.0431675
-0.0451446
-0.0470237
-0.0487982
-0.0504627
-0.0520133
-0.0534473
-0.0547628
-0.0559587
-0.0570344
-0.0579901
-0.0588262
-0.0595433
-0.0601424
-0.0606243
-0.0609903
-0.0612414
-0.0613787
-0.0614031
-0.0613156
-0.0611169
-0.0608077
-0.0603883
-0.059859
-0.032626
-0.0350446
-0.0374284
-0.0397611
-0.042028
-0.0442167
-0.0463163
-0.0483181
-0.0502149
-0.0520014
-0.0536734
-0.0552281
-0.0566637
-0.0579791
-0.0591741
-0.0602488
-0.0612038
-0.06204
-0.0627583
-0.06336
-0.0638462
-0.0642183
-0.0644773
-0.0646245
-0.064661
-0.0645876
-0.0644053
-0.0641146
-0.063716
-0.0632096
-0.0354362
-0.0379274
-0.0403718
-0.0427535
-0.045059
-0.0472766
-0.0493969
-0.0514123
-0.053317
-0.0551068
-0.0567786
-0.0583306
-0.059762
-0.0610725
-0.0622625
-0.0633325
-0.0642837
-0.0651173
-0.0658344
-0.0664365
-0.0669248
-0.0673008
-0.0675657
-0.0677207
-0.0677669
-0.0677053
-0.0675368
-0.067262
-0.0668814
-0.0663953
-0.038239
-0.0407883
-0.043279
-0.0456963
-0.0480276
-0.0502627
-0.0523933
-0.0544131
-0.0563176
-0.0581037
-0.0597695
-0.061314
-0.0627372
-0.0640395
-0.0652217
-0.0662849
-0.0672304
-0.0680597
-0.0687742
-0.0693753
-0.0698645
-0.0702431
-0.0705124
-0.0706735
-0.0707277
-0.0706759
-0.070519
-0.0702576
-0.0698924
-0.0694237
-0.0410144
-0.0436078
-0.0461318
-0.0485726
-0.0509188
-0.0531615
-0.0552937
-0.0573106
-0.0592087
-0.060986
-0.0626416
-0.0641753
-0.0655878
-0.0668799
-0.0680528
-0.0691081
-0.0700472
-0.0708716
-0.0715829
-0.0721825
-0.0726718
-0.0730522
-0.0733249
-0.0734911
-0.0735519
-0.0437447
-0.0463697
-0.0489153
-0.051369
-0.0537208
-0.055963
-0.0580901
-0.0600984
-0.0619855
-0.0637506
-0.0653934
-0.0669144
-0.0683149
-0.069596
-0.0707593
-0.0718065
-0.072739
-0.0735586
-0.0742667
-0.0748648
-0.0753541
-0.075736
-0.0760117
-0.0761822
-0.0762486
-0.0464153
-0.0490607
-0.0516178
-0.0540755
-0.0564252
-0.0586606
-0.0607775
-0.0627732
-0.0646464
-0.0663971
-0.0680256
-0.0695333
-0.0709214
-0.0721916
-0.0733456
-0.074385
-0.0753116
-0.0761269
-0.0768323
-0.0774292
-0.0779188
-0.0783023
-0.0785807
-0.0787552
-0.0788266
-0.0490141
-0.05167
-0.0542302
-0.0566847
-0.0590264
-0.0612503
-0.0633533
-0.0653338
-0.0671914
-0.0689266
-0.0705406
-0.0720349
-0.0734111
-0.074671
-0.0758165
-0.0768492
-0.0777708
-0.0785826
-0.079286
-0.0798824
-0.0803726
-0.0807579
-0.0810392
-0.0812174
-0.0812934
-0.0515313
-0.0541897
-0.0567459
-0.0591917
-0.0615209
-0.06373
-0.0658167
-0.0677805
-0.0696218
-0.0713415
-0.0729413
-0.0744229
-0.0757881
-0.0770389
-0.078177
-0.0792041
-0.0801217
-0.0809311
-0.0816335
-0.0822299
-0.0827215
-0.083109
-0.0833933
-0.0835752
-0.0836554
-0.0539595
-0.0566136
-0.0591606
-0.0615933
-0.063907
-0.066099
-0.0681683
-0.0701149
-0.0719398
-0.0736446
-0.075231
-0.0767009
-0.0780565
-0.0792994
-0.0804315
-0.0814543
-0.082369
-0.083177
-0.0838792
-0.0844766
-0.0849699
-0.08536
-0.0856476
-0.0858333
-0.0859177
-0.056293
-0.0589376
-0.0614712
-0.0638878
-0.0661839
-0.0683578
-0.0704091
-0.0723387
-0.0741479
-0.0758387
-0.0774129
-0.0788726
-0.0802198
-0.0814563
-0.0825837
-0.0836033
-0.0845164
-0.085324
-0.0860269
-0.0866258
-0.0871216
-0.0875147
-0.0878057
-0.0879952
-0.0585276
-0.0611587
-0.0636759
-0.0660745
-0.0683519
-0.0705072
-0.0725409
-0.0744541
-0.0762487
-0.0779266
-0.0794899
-0.0809408
-0.0822812
-0.0835126
-0.0846365
-0.0856542
-0.0865666
-0.0873747
-0.088079
-0.0886802
-0.0891788
-0.0895752
-0.0898699
-0.0900634
-0.0606603
-0.063275
-0.0657739
-0.0681534
-0.0704117
-0.0725487
-0.0745653
-0.0764632
-0.0782442
-0.0799107
-0.0814647
-0.0829081
-0.0842429
-0.0854705
-0.0865922
-0.0876089
-0.0885216
-0.0893309
-0.0900373
-0.0906412
-0.0911429
-0.0626891
-0.0652854
-0.0677649
-0.0701248
-0.0723642
-0.0744835
-0.0764841
-0.0783677
-0.0801366
-0.081793
-0.0833389
-0.0847763
-0.0861068
-0.0873317
-0.0884521
-0.0894688
-0.0903825
-0.0911937
-0.0919026
-0.0925095
-0.0930147
-0.0646125
-0.0671893
-0.0696489
-0.0719894
-0.0742104
-0.0763129
-0.0782985
-0.0801692
-0.0819273
-0.083575
-0.0851142
-0.0865467
-0.087874
-0.0890972
-0.0902172
-0.0912346
-0.0921498
-0.0929632
-0.093675
-0.0942853
-0.0947941
-0.0664296
-0.0689863
-0.071426
-0.0737476
-0.0759511
-0.0780379
-0.0800097
-0.0818689
-0.0836175
-0.0852577
-0.0867914
-0.0882201
-0.0895451
-0.0907674
-0.0918876
-0.0929062
-0.0938234
-0.0946394
-0.0953543
-0.095968
-0.0964805
-0.0681398
-0.0706762
-0.0730965
-0.0753999
-0.077587
-0.0796592
-0.0816187
-0.0834674
-0.0852078
-0.0868417
-0.0883708
-0.0897966
-0.0911202
-0.0923422
-0.0934632
-0.0944834
-0.0954029
-0.0962217
-0.0969397
-0.0975569
-0.098073
-0.0697424
-0.072259
-0.0746606
-0.0769468
-0.0791185
-0.0811775
-0.0831257
-0.0849653
-0.0866985
-0.0883271
-0.0898526
-0.0912763
-0.092599
-0.0938212
-0.0949433
-0.0959654
-0.0968874
-0.0977091
-0.0984303
-0.0990509
-0.0995705
-0.071237
-0.0737345
-0.0761183
-0.0783884
-0.080546
-0.0825928
-0.0845309
-0.0863626
-0.0880896
-0.0897138
-0.0912364
-0.0926586
-0.0939809
-0.0952038
-0.0963274
-0.0973515
-0.098276
-0.0991006
-0.099825
-0.100449
-0.100972
-0.0858344
-0.087659
-0.0893808
-0.0910013
-0.0925218
-0.0939429
-0.0952653
-0.0964891
-0.0976142
-0.0986405
-0.0995676
-0.100395
-0.101122
-0.101749
-0.102276
-0.0998313
-0.100761
-0.101591
-0.102321
-0.102951
-0.103481
)
;

boundaryField
{
    movingWall
    {
        type            zeroGradient;
    }
    fixedWalls
    {
        type            zeroGradient;
    }
    frontAndBack
    {
        type            empty;
    }
    procBoundary1to0
    {
        type            processor;
        value           nonuniform List<scalar> 
45
(
-0.0036678
-0.00352031
-0.00339905
-0.00329013
-0.00319629
-0.00313167
-0.00311193
-0.00315422
-0.00327731
-0.00350088
-0.00384477
-0.00432823
-0.00496918
-0.00578356
-0.00678462
-0.00798228
-0.00938254
-0.0109869
-0.0127922
-0.01479
-0.01479
-0.0153075
-0.0174952
-0.0198298
-0.0222903
-0.0248535
-0.027495
-0.0301903
-0.0329155
-0.0356482
-0.0383675
-0.0410553
-0.0436956
-0.0462749
-0.048782
-0.051208
-0.0535458
-0.0557898
-0.0579359
-0.059981
-0.0619228
-0.0637595
-0.0654898
-0.0671127
-0.0686275
)
;
    }
    procBoundary1to3
    {
        type            processor;
        value           nonuniform List<scalar> 
23
(
-0.0726232
-0.0751024
-0.0774694
-0.0797246
-0.0818692
-0.0839051
-0.0839051
-0.0870355
-0.0888541
-0.0905714
-0.092189
-0.0937078
-0.0951284
-0.0964511
-0.097676
-0.0988029
-0.0988029
-0.100923
-0.101855
-0.102688
-0.103421
-0.104054
-0.104586
)
;
    }
    procBoundary1to6
    {
        type            processor;
        value           nonuniform List<scalar> 
26
(
-0.0735082
-0.073361
-0.073111
-0.0727587
-0.0723046
-0.0735082
-0.0762119
-0.0787958
-0.0812679
-0.0836349
-0.0859017
-0.0880838
-0.0880838
-0.0915429
-0.0918415
-0.0901561
-0.0920389
-0.0915429
-0.0934184
-0.0952016
-0.0968918
-0.098488
-0.0999891
-0.101394
-0.102701
-0.103909
)
;
    }
    procBoundary1to7
    {
        type            processor;
        value           nonuniform List<scalar> 
33
(
0.000197698
-9.6078e-05
-0.000296365
-0.00048814
-0.000729255
-0.00105459
-0.0014999
-0.0036
-0.00210259
-0.00322573
-0.00569205
-0.0036
-0.00520776
-0.00569205
-0.00724022
-0.00913241
-0.0113893
-0.0140179
-0.0170082
-0.0203328
-0.023947
-0.0277922
-0.0318002
-0.0358995
-0.0400212
-0.0441035
-0.0480961
-0.051961
-0.0556733
-0.0592195
-0.0625953
-0.0658035
-0.0688514
)
;
    }
}


// ************************************************************************* //
