/*--------------------------------*- C++ -*----------------------------------*\
  =========                 |
  \\      /  F ield         | OpenFOAM: The Open Source CFD Toolbox
   \\    /   O peration     | Website:  https://openfoam.org
    \\  /    A nd           | Version:  9
     \\/     M anipulation  |
\*---------------------------------------------------------------------------*/
FoamFile
{
    format      ascii;
    class       surfaceScalarField;
    location    "2.75";
    object      phi;
}
// * * * * * * * * * * * * * * * * * * * * * * * * * * * * * * * * * * * * * //

dimensions      [0 3 -1 0 0 0 0];

internalField   nonuniform List<scalar> 
2420
(
-3.64338e-08
6.25587e-09
-4.31841e-08
6.75026e-09
-5.0419e-08
7.2349e-09
-5.81198e-08
7.70085e-09
-6.62582e-08
8.13838e-09
-7.47952e-08
8.53703e-09
-8.3681e-08
8.88584e-09
-9.28545e-08
9.17346e-09
-1.02243e-07
9.38846e-09
-1.11762e-07
9.5195e-09
-1.21318e-07
9.55562e-09
-1.30805e-07
9.48659e-09
-1.40108e-07
9.30312e-09
-1.49105e-07
8.99724e-09
-1.57668e-07
8.56252e-09
-1.65662e-07
7.99442e-09
-1.72952e-07
7.29053e-09
-1.79403e-07
6.45084e-09
-1.84881e-07
5.47795e-09
-1.89259e-07
4.3775e-09
-1.92417e-07
3.15869e-09
-1.94251e-07
1.83375e-09
-1.94672e-07
4.20402e-10
-1.93584e-07
-1.08782e-09
-1.9095e-07
-2.63382e-09
-1.86735e-07
-4.21465e-09
-1.80935e-07
-5.80054e-09
-1.73572e-07
-7.36325e-09
-1.64698e-07
-8.87314e-09
-1.54399e-07
-1.02997e-08
-1.42786e-07
-1.16124e-08
-1.30005e-07
-1.27815e-08
-1.37792e-08
-1.34582e-07
2.51835e-08
-1.54752e-07
2.69203e-08
-1.76101e-07
2.85839e-08
-1.9854e-07
3.01398e-08
-2.21953e-07
3.15513e-08
-2.46196e-07
3.27801e-08
-2.71098e-07
3.37874e-08
-2.96459e-07
3.45344e-08
-3.22053e-07
3.49832e-08
-3.47632e-07
3.50979e-08
-3.72922e-07
3.48456e-08
-3.97632e-07
3.41971e-08
-4.21457e-07
3.31281e-08
-4.4408e-07
3.162e-08
-4.65178e-07
2.96605e-08
-4.84428e-07
2.72445e-08
-5.01513e-07
2.43748e-08
-5.16124e-07
2.10621e-08
-5.27972e-07
1.7326e-08
-5.36789e-07
1.31951e-08
-5.42339e-07
8.70854e-09
-5.4442e-07
3.9144e-09
-5.42878e-07
-1.12176e-09
-5.37571e-07
-6.39481e-09
-5.28439e-07
-1.17655e-08
-5.15473e-07
-1.71806e-08
-4.98717e-07
-2.25568e-08
-4.78274e-07
-2.7806e-08
-4.5431e-07
-3.28369e-08
-4.27053e-07
-3.75574e-08
-3.96789e-07
-4.18763e-08
-3.63864e-07
-4.57059e-08
-4.89647e-08
-2.5553e-07
5.68364e-08
-2.88939e-07
6.03297e-08
-3.23957e-07
6.36016e-08
-3.60394e-07
6.65773e-08
-3.98022e-07
6.91792e-08
-4.36571e-07
7.13288e-08
-4.75732e-07
7.29486e-08
-5.15161e-07
7.39639e-08
-5.54483e-07
7.43043e-08
-5.93291e-07
7.39063e-08
-6.3116e-07
7.27149e-08
-6.67648e-07
7.06851e-08
-7.02303e-07
6.77833e-08
-7.34672e-07
6.39892e-08
-7.64308e-07
5.92959e-08
-7.90775e-07
5.37116e-08
-8.1366e-07
4.72594e-08
-8.32575e-07
3.99778e-08
-8.4717e-07
3.19211e-08
-8.57134e-07
2.31591e-08
-8.62205e-07
1.37792e-08
-8.6219e-07
3.89987e-09
-8.56887e-07
-6.42507e-09
-8.46247e-07
-1.7035e-08
-8.30231e-07
-2.77814e-08
-8.08885e-07
-3.85268e-08
-7.82324e-07
-4.9118e-08
-7.50735e-07
-5.93946e-08
-7.14379e-07
-6.91926e-08
-6.73589e-07
-7.83479e-08
-6.28766e-07
-8.66994e-08
-5.80379e-07
-9.40928e-08
-1.00385e-07
-3.96561e-07
1.01052e-07
-4.42803e-07
1.06572e-07
-4.90814e-07
1.11612e-07
-5.40283e-07
1.16047e-07
-5.90853e-07
1.19749e-07
-6.42118e-07
1.22594e-07
-6.93632e-07
1.24463e-07
-7.44915e-07
1.25247e-07
-7.95457e-07
1.24846e-07
-8.44729e-07
1.23178e-07
-8.92189e-07
1.20175e-07
-9.37292e-07
1.15788e-07
-9.795e-07
1.09992e-07
-1.01829e-06
1.02778e-07
-1.05316e-06
9.41645e-08
-1.08364e-06
8.41886e-08
-1.10929e-06
7.29111e-08
-1.12972e-06
6.04144e-08
-1.1446e-06
4.68019e-08
-1.15364e-06
3.21972e-08
-1.1566e-06
1.67382e-08
-1.15337e-06
6.66184e-10
-1.14374e-06
-1.60553e-08
-1.12775e-06
-3.30269e-08
-1.10541e-06
-5.01151e-08
-1.07684e-06
-6.71008e-08
-1.0422e-06
-8.37578e-08
-1.00174e-06
-9.98536e-08
-9.55779e-07
-1.15153e-07
-9.04707e-07
-1.2942e-07
-8.48981e-07
-1.42426e-07
-7.89124e-07
-1.53949e-07
-1.63785e-07
-5.54563e-07
1.5738e-07
-6.12937e-07
1.64946e-07
-6.72972e-07
1.71647e-07
-7.34229e-07
1.77303e-07
-7.96217e-07
1.81737e-07
-8.58406e-07
1.84782e-07
-9.20228e-07
1.86286e-07
-9.81093e-07
1.86112e-07
-1.0404e-06
1.84149e-07
-1.09753e-06
1.80308e-07
-1.15188e-06
1.74529e-07
-1.20287e-06
1.66779e-07
-1.24993e-06
1.57055e-07
-1.29254e-06
1.45384e-07
-1.3302e-06
1.31822e-07
-1.36246e-06
1.16452e-07
-1.38893e-06
9.93842e-08
-1.40927e-06
8.07541e-08
-1.42319e-06
6.07213e-08
-1.43046e-06
3.94673e-08
-1.43092e-06
1.71991e-08
-1.42441e-06
-5.84848e-09
-1.41095e-06
-2.95099e-08
-1.39053e-06
-5.34557e-08
-1.3632e-06
-7.74364e-08
-1.32913e-06
-1.01175e-07
-1.28851e-06
-1.24381e-07
-1.2416e-06
-1.46758e-07
-1.18875e-06
-1.68005e-07
-1.13035e-06
-1.87822e-07
-1.06686e-06
-2.05913e-07
-9.98814e-07
-2.21996e-07
-2.35803e-07
-7.26054e-07
2.25058e-07
-7.95553e-07
2.34445e-07
-8.66361e-07
2.42456e-07
-9.37915e-07
2.48857e-07
-1.00961e-06
2.53433e-07
-1.08082e-06
2.55987e-07
-1.15088e-06
2.56347e-07
-1.21914e-06
2.54372e-07
-1.28494e-06
2.49956e-07
-1.34766e-06
2.43027e-07
-1.40669e-06
2.33551e-07
-1.46144e-06
2.21531e-07
-1.51139e-06
2.07005e-07
-1.55605e-06
1.90048e-07
-1.59499e-06
1.70763e-07
-1.62783e-06
1.49289e-07
-1.65423e-06
1.25787e-07
-1.67393e-06
1.00449e-07
-1.68669e-06
7.34857e-08
-1.69236e-06
4.51328e-08
-1.69081e-06
1.56514e-08
-1.68196e-06
-1.47002e-08
-1.66582e-06
-4.56449e-08
-1.64243e-06
-7.68518e-08
-1.61186e-06
-1.08007e-07
-1.57425e-06
-1.38779e-07
-1.52981e-06
-1.68823e-07
-1.47878e-06
-1.97786e-07
-1.42148e-06
-2.25309e-07
-1.35827e-06
-2.51033e-07
-1.28958e-06
-2.74599e-07
-1.21592e-06
-2.95663e-07
-3.13893e-07
-9.07324e-07
3.03038e-07
-9.86686e-07
3.13807e-07
-1.0668e-06
3.22573e-07
-1.14702e-06
3.29069e-07
-1.22664e-06
3.33055e-07
-1.30497e-06
3.34323e-07
-1.38134e-06
3.32708e-07
-1.45505e-06
3.28086e-07
-1.52547e-06
3.20376e-07
-1.59199e-06
3.09546e-07
-1.65404e-06
2.95605e-07
-1.71112e-06
2.78606e-07
-1.76275e-06
2.58638e-07
-1.80853e-06
2.35828e-07
-1.8481e-06
2.10334e-07
-1.88116e-06
1.82345e-07
-1.90744e-06
1.52071e-07
-1.92674e-06
1.1975e-07
-1.93889e-06
8.5636e-08
-1.94376e-06
5.00069e-08
-1.94128e-06
1.31656e-08
-1.93137e-06
-2.4605e-08
-1.91405e-06
-6.29633e-08
-1.88935e-06
-1.01558e-07
-1.85732e-06
-1.40032e-07
-1.81809e-06
-1.7801e-07
-1.77181e-06
-2.15103e-07
-1.71869e-06
-2.50909e-07
-1.65898e-06
-2.85017e-07
-1.59301e-06
-3.17009e-07
-1.52114e-06
-3.46469e-07
-1.44381e-06
-3.72987e-07
-3.96167e-07
-1.09461e-06
3.90052e-07
-1.1824e-06
4.01597e-07
-1.27026e-06
4.10433e-07
-1.35747e-06
4.16276e-07
-1.4433e-06
4.18886e-07
-1.52705e-06
4.18072e-07
-1.60804e-06
4.13696e-07
-1.68563e-06
4.05673e-07
-1.75922e-06
3.9397e-07
-1.82828e-06
3.78605e-07
-1.89232e-06
3.59643e-07
-1.9509e-06
3.37191e-07
-2.00366e-06
3.11394e-07
-2.05026e-06
2.82429e-07
-2.09043e-06
2.505e-07
-2.12392e-06
2.15838e-07
-2.15054e-06
1.78694e-07
-2.17013e-06
1.39337e-07
-2.18255e-06
9.80545e-08
-2.18769e-06
5.51507e-08
-2.18548e-06
1.09572e-08
-2.17586e-06
-3.4224e-08
-2.15881e-06
-8.00125e-08
-2.13433e-06
-1.26039e-07
-2.10245e-06
-1.71915e-07
-2.06323e-06
-2.17231e-07
-2.01677e-06
-2.61562e-07
-1.96322e-06
-3.04462e-07
-1.90276e-06
-3.45472e-07
-1.83565e-06
-3.84122e-07
-1.76218e-06
-4.19936e-07
-1.68273e-06
-1.28428e-06
4.847e-07
-1.379e-06
4.96318e-07
-1.47305e-06
5.04478e-07
-1.56568e-06
5.08906e-07
-1.65618e-06
5.09389e-07
-1.74388e-06
5.05774e-07
-1.82816e-06
4.97971e-07
-1.90844e-06
4.8595e-07
-1.9842e-06
4.69738e-07
-2.05501e-06
4.49411e-07
-2.12046e-06
4.25091e-07
-2.1802e-06
3.96938e-07
-2.23395e-06
3.65145e-07
-2.28146e-06
3.2993e-07
-2.32249e-06
2.91537e-07
-2.35688e-06
2.50224e-07
-2.38445e-06
2.0627e-07
-2.40508e-06
1.59965e-07
-2.41864e-06
1.11616e-07
-2.42503e-06
6.15413e-08
-2.42416e-06
1.00872e-08
-2.41596e-06
-4.24258e-08
-2.40037e-06
-9.56017e-08
-2.37736e-06
-1.49056e-07
-2.34689e-06
-2.02379e-07
-2.30899e-06
-2.55136e-07
-2.26368e-06
-3.0687e-07
-2.21104e-06
-3.57102e-07
-2.15118e-06
-4.05329e-07
-2.08427e-06
-1.47295e-06
5.85549e-07
-1.57314e-06
5.96507e-07
-1.67192e-06
6.03258e-07
-1.76858e-06
6.05564e-07
-1.86245e-06
6.0326e-07
-1.95293e-06
5.96252e-07
-2.03947e-06
5.8451e-07
-2.12159e-06
5.68069e-07
-2.19887e-06
5.47016e-07
-2.27094e-06
5.21486e-07
-2.3375e-06
4.91652e-07
-2.39828e-06
4.57719e-07
-2.45306e-06
4.19919e-07
-2.50163e-06
3.78501e-07
-2.54382e-06
3.33735e-07
-2.5795e-06
2.85899e-07
-2.60851e-06
2.35285e-07
-2.63075e-06
1.82197e-07
-2.64608e-06
1.26949e-07
-2.65441e-06
6.98674e-08
-2.65562e-06
1.12992e-08
-2.64963e-06
-4.84153e-08
-2.63635e-06
-1.08884e-07
-2.61569e-06
-1.6971e-07
-2.5876e-06
-2.30471e-07
-2.55202e-06
-2.90717e-07
-2.50892e-06
-3.49969e-07
-2.4583e-06
-4.07718e-07
-4.63428e-07
-1.65759e-06
6.91214e-07
-1.76189e-06
7.00804e-07
-1.86411e-06
7.05476e-07
-1.96359e-06
7.05049e-07
-2.05975e-06
6.99423e-07
-2.15207e-06
6.88569e-07
-2.24009e-06
6.72527e-07
-2.32341e-06
6.51393e-07
-2.40171e-06
6.25313e-07
-2.47469e-06
5.94472e-07
-2.54213e-06
5.59088e-07
-2.60381e-06
5.19401e-07
-2.65956e-06
4.75671e-07
-2.70923e-06
4.28171e-07
-2.75268e-06
3.77185e-07
-2.78979e-06
3.23004e-07
-2.82043e-06
2.65928e-07
-2.8445e-06
2.06266e-07
-2.86188e-06
1.44332e-07
-2.87247e-06
8.04564e-08
-2.87615e-06
1.49793e-08
-2.87282e-06
-5.1747e-08
-2.86236e-06
-1.19341e-07
-2.84467e-06
-1.87404e-07
-2.81963e-06
-2.55508e-07
-2.78715e-06
-3.23197e-07
-2.74714e-06
-3.89981e-07
-2.69953e-06
-4.55333e-07
-5.18693e-07
-1.83555e-06
8.00398e-07
-1.94272e-06
8.07976e-07
-2.04723e-06
8.09989e-07
-2.14851e-06
8.06327e-07
-2.24605e-06
7.96959e-07
-2.33941e-06
7.81927e-07
-2.42822e-06
7.61336e-07
-2.51216e-06
7.35341e-07
-2.59099e-06
7.04137e-07
-2.66447e-06
6.67955e-07
-2.73243e-06
6.27044e-07
-2.7947e-06
5.81675e-07
-2.85116e-06
5.32129e-07
-2.90168e-06
4.78695e-07
-2.94617e-06
4.21668e-07
-2.98451e-06
3.61348e-07
-3.01662e-06
2.98039e-07
-3.04241e-06
2.32049e-07
-3.06177e-06
1.63694e-07
-3.07461e-06
9.32959e-08
-3.08082e-06
2.11899e-08
-3.08029e-06
-5.22743e-08
-3.0729e-06
-1.26727e-07
-3.05853e-06
-2.01778e-07
-3.03703e-06
-2.77007e-07
-3.00826e-06
-3.51962e-07
-2.97209e-06
-4.26153e-07
-2.92837e-06
-4.99052e-07
-5.70085e-07
-2.0045e-06
9.11906e-07
-2.11343e-06
9.16906e-07
-2.21921e-06
9.15769e-07
-2.32135e-06
9.0846e-07
-2.41941e-06
8.95019e-07
-2.51304e-06
8.75557e-07
-2.60194e-06
8.50236e-07
-2.68586e-06
8.19262e-07
-2.7646e-06
7.82877e-07
-2.83799e-06
7.41345e-07
-2.90589e-06
6.94947e-07
-2.96819e-06
6.43977e-07
-3.0248e-06
5.88735e-07
-3.07563e-06
5.29525e-07
-3.12061e-06
4.66653e-07
-3.15969e-06
4.00424e-07
-3.1928e-06
3.31145e-07
-3.21987e-06
2.59125e-07
-3.24085e-06
1.84672e-07
-3.25566e-06
1.08102e-07
-3.2642e-06
2.97365e-08
-3.26639e-06
-5.00844e-08
-3.26211e-06
-1.3101e-07
-3.25122e-06
-2.12668e-07
-3.23357e-06
-2.94657e-07
-3.20899e-06
-3.76543e-07
-3.17729e-06
-4.57851e-07
-3.13828e-06
-5.38065e-07
-6.16615e-07
-2.1624e-06
1.02463e-06
-2.27205e-06
1.02655e-06
-2.37812e-06
1.02184e-06
-2.48019e-06
1.01053e-06
-2.57791e-06
9.92736e-07
-2.67097e-06
9.68626e-07
-2.75915e-06
9.38415e-07
-2.84225e-06
9.02357e-07
-2.9201e-06
8.60732e-07
-2.9926e-06
8.13838e-07
-3.05963e-06
7.61986e-07
-3.12115e-06
7.05492e-07
-3.17709e-06
6.44677e-07
-3.22743e-06
5.79861e-07
-3.27213e-06
5.11359e-07
-3.31119e-06
4.39485e-07
-3.3446e-06
3.64548e-07
-3.37232e-06
2.86852e-07
-3.39435e-06
2.06701e-07
-3.41065e-06
1.24396e-07
-3.42115e-06
4.02405e-08
-3.42579e-06
-4.54431e-08
-3.42448e-06
-1.32327e-07
-3.41707e-06
-2.20073e-07
-3.40342e-06
-3.08306e-07
-3.38334e-06
-3.96625e-07
-3.35661e-06
-4.84584e-07
-3.32298e-06
-5.71694e-07
-6.57411e-07
-2.30741e-06
1.13749e-06
-2.41674e-06
1.13588e-06
-2.52212e-06
1.12721e-06
-2.62317e-06
1.11158e-06
-2.71959e-06
1.08916e-06
-2.81116e-06
1.06019e-06
-2.89766e-06
1.02492e-06
-2.97897e-06
9.8366e-07
-3.05496e-06
9.36723e-07
-3.12556e-06
8.84443e-07
-3.19074e-06
8.27163e-07
-3.25047e-06
7.65225e-07
-3.30477e-06
6.98971e-07
-3.35365e-06
6.2874e-07
-3.39715e-06
5.5486e-07
-3.43531e-06
4.7765e-07
-3.46819e-06
3.97421e-07
-3.49581e-06
3.14473e-07
-3.5182e-06
2.29097e-07
-3.53538e-06
1.41579e-07
-3.54734e-06
5.21985e-08
-3.55404e-06
-3.87505e-08
-3.5554e-06
-1.30962e-07
-3.55132e-06
-2.24149e-07
-3.54166e-06
-3.17972e-07
-3.52621e-06
-4.12072e-07
-3.50475e-06
-5.06048e-07
-3.47699e-06
-5.99456e-07
-6.9179e-07
-2.43783e-06
1.24944e-06
-2.54582e-06
1.24387e-06
-2.64947e-06
1.23086e-06
-2.74847e-06
1.21058e-06
-2.84257e-06
1.18326e-06
-2.93157e-06
1.14919e-06
-3.01534e-06
1.10869e-06
-3.09376e-06
1.06209e-06
-3.1668e-06
1.00976e-06
-3.23442e-06
9.52065e-07
-3.29664e-06
8.8939e-07
-3.35352e-06
8.22104e-07
-3.40513e-06
7.50575e-07
-3.45154e-06
6.75157e-07
-3.49288e-06
5.96193e-07
-3.52923e-06
5.14008e-07
-3.56072e-06
4.2891e-07
-3.58744e-06
3.41194e-07
-3.60948e-06
2.51135e-07
-3.6269e-06
1.58998e-07
-3.63974e-06
6.50348e-08
-3.64799e-06
-3.05e-08
-3.65163e-06
-1.27319e-07
-3.65058e-06
-2.25198e-07
-3.64471e-06
-3.23845e-07
-3.63383e-06
-4.2295e-07
-3.61771e-06
-5.2217e-07
-3.59605e-06
-6.21116e-07
-7.19342e-07
-2.55215e-06
1.35941e-06
-2.65773e-06
1.34945e-06
-2.75858e-06
1.33171e-06
-2.85444e-06
1.30644e-06
-2.9451e-06
1.27393e-06
-3.03043e-06
1.23452e-06
-3.11033e-06
1.18859e-06
-3.18476e-06
1.13651e-06
-3.25372e-06
1.07872e-06
-3.31726e-06
1.01561e-06
-3.37547e-06
9.47598e-07
-3.42846e-06
8.75097e-07
-3.47638e-06
7.98496e-07
-3.51939e-06
7.18167e-07
-3.55766e-06
6.34463e-07
-3.59137e-06
5.47714e-07
-3.62068e-06
4.58223e-07
-3.64576e-06
3.66272e-07
-3.66675e-06
2.72121e-07
-3.68376e-06
1.76008e-07
-3.69688e-06
7.81546e-08
-3.70614e-06
-2.12372e-08
-3.71157e-06
-1.21885e-07
-3.71312e-06
-2.23648e-07
-3.71069e-06
-3.2628e-07
-3.70411e-06
-4.2953e-07
-3.69316e-06
-5.33119e-07
-3.67755e-06
-6.36725e-07
-7.39973e-07
-2.64905e-06
1.46631e-06
-2.75113e-06
1.45152e-06
-2.84808e-06
1.42866e-06
-2.9397e-06
1.39806e-06
-3.02583e-06
1.36006e-06
-3.10638e-06
1.31508e-06
-3.18133e-06
1.26353e-06
-3.25069e-06
1.20587e-06
-3.31454e-06
1.14257e-06
-3.37301e-06
1.07408e-06
-3.42626e-06
1.00084e-06
-3.47447e-06
9.23312e-07
-3.51787e-06
8.41895e-07
-3.55669e-06
7.56981e-07
-3.59115e-06
6.68931e-07
-3.62151e-06
5.78071e-07
-3.64799e-06
4.84699e-07
-3.67079e-06
3.89081e-07
-3.69013e-06
2.91453e-07
-3.70615e-06
1.9203e-07
-3.71899e-06
9.09965e-08
-3.72871e-06
-1.1517e-08
-3.7354e-06
-1.15191e-07
-3.73904e-06
-2.2001e-07
-3.73956e-06
-3.25764e-07
-3.73682e-06
-4.32263e-07
-3.73065e-06
-5.39296e-07
-3.72076e-06
-6.46616e-07
-7.53927e-07
-2.72748e-06
1.5691e-06
-2.82499e-06
1.54903e-06
-2.91699e-06
1.52066e-06
-3.00332e-06
1.48438e-06
-3.08388e-06
1.44062e-06
-3.15865e-06
1.38985e-06
-3.22768e-06
1.33256e-06
-3.29106e-06
1.26926e-06
-3.34895e-06
1.20046e-06
-3.40156e-06
1.12668e-06
-3.44911e-06
1.0484e-06
-3.49188e-06
9.66078e-07
-3.53014e-06
8.80158e-07
-3.56419e-06
7.91035e-07
-3.59433e-06
6.9907e-07
-3.62085e-06
6.04587e-07
-3.64402e-06
5.07867e-07
-3.66409e-06
4.09159e-07
-3.68131e-06
3.08672e-07
-3.69587e-06
2.06592e-07
-3.70796e-06
1.03083e-07
-3.71762e-06
-1.85431e-09
-3.72506e-06
-1.07752e-07
-3.73023e-06
-2.14839e-07
-3.73312e-06
-3.22876e-07
-3.73364e-06
-4.31743e-07
-3.73164e-06
-5.41299e-07
-3.72688e-06
-6.51373e-07
-7.61752e-07
-2.78674e-06
1.66675e-06
-2.8787e-06
1.64098e-06
-2.96478e-06
1.60674e-06
-3.04488e-06
1.56449e-06
-3.11899e-06
1.51473e-06
-3.18717e-06
1.45802e-06
-3.24952e-06
1.39491e-06
-3.30624e-06
1.32598e-06
-3.35757e-06
1.25179e-06
-3.40378e-06
1.17289e-06
-3.44517e-06
1.08979e-06
-3.48209e-06
1.00299e-06
-3.51487e-06
9.12937e-07
-3.54386e-06
8.20024e-07
-3.5694e-06
7.2461e-07
-3.59181e-06
6.27005e-07
-3.61142e-06
5.27474e-07
-3.6285e-06
4.26241e-07
-3.64332e-06
3.23491e-07
-3.6561e-06
2.19374e-07
-3.66703e-06
1.14008e-07
-3.67632e-06
7.44043e-09
-3.68398e-06
-1.00098e-07
-3.69013e-06
-2.08686e-07
-3.69478e-06
-3.18223e-07
-3.69789e-06
-4.28637e-07
-3.69934e-06
-5.39851e-07
-3.69894e-06
-6.51766e-07
-7.64248e-07
-2.7349e-06
1.78118e-06
-2.82654e-06
1.75839e-06
-2.91209e-06
1.72653e-06
-2.99144e-06
1.6861e-06
-3.06459e-06
1.63764e-06
-3.13159e-06
1.58173e-06
-3.19258e-06
1.51901e-06
-3.24777e-06
1.4501e-06
-3.29743e-06
1.37564e-06
-3.34186e-06
1.29623e-06
-3.38143e-06
1.21245e-06
-3.4165e-06
1.12486e-06
-3.44746e-06
1.03395e-06
-3.4747e-06
9.40173e-07
-3.49859e-06
8.4392e-07
-3.51952e-06
7.45536e-07
-3.53783e-06
6.45314e-07
-3.55385e-06
5.43495e-07
-3.56789e-06
4.40276e-07
-3.58021e-06
3.35812e-07
-3.59106e-06
2.30222e-07
-3.60064e-06
1.23587e-07
-3.60915e-06
1.59582e-08
-3.61668e-06
-9.25712e-08
-3.62334e-06
-2.0203e-07
-3.62917e-06
-3.12389e-07
-3.63418e-06
-4.23632e-07
-3.63829e-06
-5.35738e-07
-3.64138e-06
-6.48671e-07
-7.62372e-07
-2.76214e-06
1.87235e-06
-2.84702e-06
1.84327e-06
-2.9255e-06
1.80501e-06
-2.99754e-06
1.75815e-06
-3.06323e-06
1.70332e-06
-3.12271e-06
1.64121e-06
-3.17622e-06
1.57251e-06
-3.22404e-06
1.49792e-06
-3.26652e-06
1.41812e-06
-3.30405e-06
1.33376e-06
-3.33704e-06
1.24544e-06
-3.36591e-06
1.15373e-06
-3.39109e-06
1.05913e-06
-3.41299e-06
9.62073e-07
-3.43202e-06
8.62949e-07
-3.44856e-06
7.62079e-07
-3.46297e-06
6.59729e-07
-3.47559e-06
5.56115e-07
-3.48672e-06
4.51402e-07
-3.49662e-06
3.45717e-07
-3.50555e-06
2.39145e-07
-3.5137e-06
1.3174e-07
-3.52127e-06
2.35286e-08
-3.52838e-06
-8.54614e-08
-3.53515e-06
-1.95262e-07
-3.54164e-06
-3.0589e-07
-3.54791e-06
-4.17371e-07
-3.55391e-06
-5.29732e-07
-3.55959e-06
-6.42991e-07
-7.57152e-07
-2.77121e-06
1.95654e-06
-2.8488e-06
1.92086e-06
-2.91976e-06
1.87597e-06
-2.98415e-06
1.82254e-06
-3.04214e-06
1.76131e-06
-3.09398e-06
1.69305e-06
-3.13998e-06
1.61851e-06
-3.18051e-06
1.53846e-06
-3.216e-06
1.45361e-06
-3.24688e-06
1.36464e-06
-3.27362e-06
1.27218e-06
-3.29667e-06
1.17678e-06
-3.31649e-06
1.07894e-06
-3.33349e-06
9.79078e-07
-3.3481e-06
8.77555e-07
-3.36068e-06
7.74668e-07
-3.37161e-06
6.70652e-07
-3.38118e-06
5.65691e-07
-3.3897e-06
4.59921e-07
-3.39742e-06
3.53435e-07
-3.40457e-06
2.46292e-07
-3.41134e-06
1.38516e-07
-3.41793e-06
3.01118e-08
-3.42445e-06
-7.89357e-08
-3.43104e-06
-1.88671e-07
-3.43779e-06
-2.99144e-07
-3.44475e-06
-4.1041e-07
-3.45195e-06
-5.22534e-07
-3.45936e-06
-6.35577e-07
-7.49591e-07
-2.76292e-06
2.03335e-06
-2.83291e-06
1.99085e-06
-2.89614e-06
1.9392e-06
-2.95279e-06
1.87919e-06
-3.00311e-06
1.81163e-06
-3.04744e-06
1.73738e-06
-3.08618e-06
1.65725e-06
-3.11978e-06
1.57205e-06
-3.1487e-06
1.48253e-06
-3.17344e-06
1.38938e-06
-3.19448e-06
1.29322e-06
-3.21231e-06
1.19461e-06
-3.22737e-06
1.094e-06
-3.24009e-06
9.91801e-07
-3.25087e-06
8.88341e-07
-3.26009e-06
7.83879e-07
-3.26805e-06
6.78618e-07
-3.27507e-06
5.72707e-07
-3.2814e-06
4.6625e-07
-3.28728e-06
3.59311e-07
-3.2929e-06
2.51921e-07
-3.29847e-06
1.44081e-07
-3.30413e-06
3.57714e-08
-3.31002e-06
-7.30462e-08
-3.31626e-06
-1.82432e-07
-3.32295e-06
-2.92454e-07
-3.33017e-06
-4.03193e-07
-3.33796e-06
-5.14736e-07
-3.34637e-06
-6.27173e-07
-7.40595e-07
-2.73841e-06
2.10257e-06
-2.80072e-06
2.05316e-06
-2.85627e-06
1.99475e-06
-2.90533e-06
1.92825e-06
-2.94825e-06
1.85456e-06
-2.98546e-06
1.77459e-06
-3.01742e-06
1.68921e-06
-3.04464e-06
1.59927e-06
-3.06763e-06
1.50552e-06
-3.0869e-06
1.40866e-06
-3.10297e-06
1.30929e-06
-3.1163e-06
1.20794e-06
-3.12735e-06
1.10504e-06
-3.13652e-06
1.00097e-06
-3.14419e-06
8.96009e-07
-3.15068e-06
7.90377e-07
-3.15631e-06
6.84243e-07
-3.16132e-06
5.7772e-07
-3.16595e-06
4.70879e-07
-3.1704e-06
3.63758e-07
-3.17484e-06
2.56362e-07
-3.17943e-06
1.48673e-07
-3.18431e-06
4.06532e-08
-3.18961e-06
-6.7752e-08
-3.19543e-06
-1.76613e-07
-3.20187e-06
-2.8601e-07
-3.20903e-06
-3.96036e-07
-3.21697e-06
-5.06791e-07
-3.22576e-06
-6.18382e-07
-7.30924e-07
-2.69912e-06
2.16423e-06
-2.75388e-06
2.10791e-06
-2.802e-06
2.04287e-06
-2.84384e-06
1.97009e-06
-2.87985e-06
1.89057e-06
-2.91051e-06
1.80525e-06
-2.93635e-06
1.71505e-06
-2.95791e-06
1.62083e-06
-2.97574e-06
1.52335e-06
-2.99036e-06
1.42328e-06
-3.00227e-06
1.3212e-06
-3.01193e-06
1.2176e-06
-3.01977e-06
1.11288e-06
-3.02616e-06
1.00737e-06
-3.03145e-06
9.01297e-07
-3.03593e-06
7.94854e-07
-3.03985e-06
6.88163e-07
-3.04343e-06
5.81304e-07
-3.04687e-06
4.74317e-07
-3.05033e-06
3.67213e-07
-3.05394e-06
2.59977e-07
-3.05784e-06
1.52575e-07
-3.06215e-06
4.49561e-08
-3.06695e-06
-6.29439e-08
-3.07237e-06
-1.71201e-07
-3.07848e-06
-2.79899e-07
-3.08538e-06
-3.89136e-07
-3.09315e-06
-4.99014e-07
-3.10189e-06
-6.0965e-07
-7.21165e-07
-2.64668e-06
2.21853e-06
-2.69421e-06
2.15545e-06
-2.73535e-06
2.08401e-06
-2.77053e-06
2.00527e-06
-2.80026e-06
1.9203e-06
-2.82509e-06
1.83008e-06
-2.84559e-06
1.73555e-06
-2.86233e-06
1.63757e-06
-2.87584e-06
1.53687e-06
-2.88666e-06
1.4341e-06
-2.89527e-06
1.3298e-06
-2.9021e-06
1.22443e-06
-2.90754e-06
1.11832e-06
-2.91192e-06
1.01176e-06
-2.91556e-06
9.04929e-07
-2.91868e-06
7.97979e-07
-2.92151e-06
6.90991e-07
-2.92422e-06
5.84011e-07
-2.92695e-06
4.77052e-07
-2.92984e-06
3.70101e-07
-2.93299e-06
2.63126e-07
-2.93649e-06
1.5608e-07
-2.94044e-06
4.89036e-08
-2.94491e-06
-5.84707e-08
-2.94999e-06
-1.66119e-07
-2.95577e-06
-2.74126e-07
-2.96232e-06
-3.82584e-07
-2.96974e-06
-4.91595e-07
-2.97812e-06
-6.01268e-07
-7.11729e-07
-2.5828e-06
2.26585e-06
-2.62361e-06
2.19626e-06
-2.65836e-06
2.11875e-06
-2.68755e-06
2.03447e-06
-2.71176e-06
1.94451e-06
-2.73157e-06
1.84989e-06
-2.74757e-06
1.75156e-06
-2.76034e-06
1.65034e-06
-2.77042e-06
1.54694e-06
-2.7783e-06
1.44198e-06
-2.78445e-06
1.33595e-06
-2.78925e-06
1.22923e-06
-2.79305e-06
1.12212e-06
-2.79615e-06
1.01485e-06
-2.79878e-06
9.07567e-07
-2.80116e-06
8.00359e-07
-2.80345e-06
6.93278e-07
-2.80578e-06
5.86337e-07
-2.80825e-06
4.79523e-07
-2.81095e-06
3.72806e-07
-2.81396e-06
2.66137e-07
-2.81735e-06
1.59462e-07
-2.82116e-06
5.27186e-08
-2.82547e-06
-5.4163e-08
-2.83033e-06
-1.61255e-07
-2.83582e-06
-2.68636e-07
-2.84202e-06
-3.7639e-07
-2.849e-06
-4.84609e-07
-2.85688e-06
-5.93396e-07
-7.02864e-07
-2.50926e-06
2.30673e-06
-2.54396e-06
2.23096e-06
-2.57301e-06
2.1478e-06
-2.59697e-06
2.05844e-06
-2.61647e-06
1.964e-06
-2.6321e-06
1.86552e-06
-2.64447e-06
1.76392e-06
-2.65413e-06
1.66e-06
-2.6616e-06
1.55442e-06
-2.66736e-06
1.44774e-06
-2.67182e-06
1.3404e-06
-2.67532e-06
1.23273e-06
-2.67817e-06
1.12497e-06
-2.6806e-06
1.01729e-06
-2.68282e-06
9.09786e-07
-2.68498e-06
8.02515e-07
-2.68719e-06
6.9549e-07
-2.68955e-06
5.88696e-07
-2.69212e-06
4.82098e-07
-2.69497e-06
3.75649e-07
-2.69812e-06
2.69291e-07
-2.70162e-06
1.62964e-07
-2.70551e-06
5.66043e-08
-2.70982e-06
-4.98541e-08
-2.71459e-06
-1.56478e-07
-2.71989e-06
-2.72578e-06
-2.73234e-06
-2.73966e-06
-2.42778e-06
2.34176e-06
-2.45705e-06
2.26023e-06
-2.48115e-06
2.17189e-06
-2.50068e-06
2.07797e-06
-2.51629e-06
1.9796e-06
-2.52857e-06
1.87781e-06
-2.53812e-06
1.77347e-06
-2.54547e-06
1.66735e-06
-2.55112e-06
1.56007e-06
-2.55549e-06
1.45211e-06
-2.55894e-06
1.34385e-06
-2.56178e-06
1.23557e-06
-2.56425e-06
1.12744e-06
-2.56654e-06
1.01958e-06
-2.56881e-06
9.12052e-07
-2.57116e-06
8.04863e-07
-2.57366e-06
6.97997e-07
-2.57638e-06
5.91415e-07
-2.57935e-06
4.85063e-07
-2.58258e-06
3.78882e-07
-2.5861e-06
2.72809e-07
-2.58991e-06
1.6678e-07
-2.59404e-06
6.07318e-08
-2.5985e-06
-4.53943e-08
-1.51658e-07
-2.33995e-06
2.37162e-06
-2.36453e-06
2.28481e-06
-2.38444e-06
2.19181e-06
-2.40033e-06
2.09386e-06
-2.41283e-06
1.9921e-06
-2.42255e-06
1.88752e-06
-2.43004e-06
1.78096e-06
-2.43581e-06
1.67312e-06
-2.44031e-06
1.56457e-06
-2.44391e-06
1.45571e-06
-2.44694e-06
1.34687e-06
-2.44963e-06
1.23826e-06
-2.45218e-06
1.12999e-06
-2.45474e-06
1.02214e-06
-2.45741e-06
9.14726e-07
-2.46027e-06
8.07716e-07
-2.46334e-06
7.0107e-07
-2.46665e-06
5.94728e-07
-2.47021e-06
4.88623e-07
-2.47401e-06
3.82686e-07
-2.47806e-06
2.7685e-07
-2.48233e-06
1.71052e-07
-2.48683e-06
6.52332e-08
-2.49156e-06
-4.06598e-08
-1.46677e-07
-2.24725e-06
2.397e-06
-2.26786e-06
2.30541e-06
-2.28434e-06
2.20828e-06
-2.29733e-06
2.10685e-06
-2.30746e-06
2.00223e-06
-2.31531e-06
1.89537e-06
-2.32141e-06
1.78706e-06
-2.32622e-06
1.67794e-06
-2.33014e-06
1.56849e-06
-2.33349e-06
1.45907e-06
-2.33654e-06
1.34992e-06
-2.33948e-06
1.2412e-06
-2.34246e-06
1.13298e-06
-2.34559e-06
1.02527e-06
-2.34892e-06
9.18056e-07
-2.35249e-06
8.11284e-07
-2.3563e-06
7.04886e-07
-2.36036e-06
5.98785e-07
-2.36464e-06
4.92905e-07
-2.36913e-06
3.87171e-07
-2.37379e-06
2.81515e-07
-2.37862e-06
1.75876e-07
-2.38358e-06
7.02003e-08
-2.38869e-06
-3.55578e-08
-1.41438e-07
-2.15096e-06
2.41859e-06
-2.1683e-06
2.32275e-06
-2.18204e-06
2.22202e-06
-2.19281e-06
2.11763e-06
-2.20123e-06
2.01065e-06
-2.20783e-06
1.90197e-06
-2.2131e-06
1.79233e-06
-2.21746e-06
1.6823e-06
-2.22125e-06
1.57228e-06
-2.22475e-06
1.46256e-06
-2.22817e-06
1.35333e-06
-2.23165e-06
1.24468e-06
-2.2353e-06
1.13663e-06
-2.23918e-06
1.02915e-06
-2.24333e-06
9.222e-07
-2.24773e-06
8.15691e-07
-2.25239e-06
7.09541e-07
-2.25727e-06
6.03663e-07
-2.26233e-06
4.97972e-07
-2.26755e-06
3.92391e-07
-2.27289e-06
2.86853e-07
-2.27832e-06
1.81301e-07
-2.2838e-06
7.56871e-08
-2.28933e-06
-3.00259e-08
-1.35869e-07
-2.05219e-06
2.43703e-06
-2.0669e-06
2.33747e-06
-2.07853e-06
2.23365e-06
-2.08769e-06
2.12679e-06
-2.09495e-06
2.01791e-06
-2.10081e-06
1.90784e-06
-2.10572e-06
1.79724e-06
-2.11003e-06
1.68661e-06
-2.11404e-06
1.57629e-06
-2.11797e-06
1.4665e-06
-2.12198e-06
1.35735e-06
-2.12619e-06
1.24889e-06
-2.13065e-06
1.14109e-06
-2.1354e-06
1.0339e-06
-2.14043e-06
9.2723e-07
-2.14572e-06
8.20986e-07
-2.15125e-06
7.15067e-07
-2.15696e-06
6.09377e-07
-2.16282e-06
5.03831e-07
-2.16878e-06
3.98349e-07
-2.1748e-06
2.92869e-07
-2.18084e-06
1.87338e-07
-2.18686e-06
8.1715e-08
-2.19286e-06
-2.40303e-08
-1.2992e-07
-1.95183e-06
2.45294e-06
-1.96451e-06
2.35014e-06
-1.97458e-06
2.24372e-06
-1.98264e-06
2.13484e-06
-1.9892e-06
2.02447e-06
-1.99474e-06
1.91337e-06
-1.99963e-06
1.80213e-06
-2.00419e-06
1.69117e-06
-2.00866e-06
1.58076e-06
-2.01322e-06
1.47105e-06
-2.01797e-06
1.36211e-06
-2.023e-06
1.25392e-06
-2.02834e-06
1.14643e-06
-2.03398e-06
1.03954e-06
-2.03991e-06
9.33155e-07
-2.04608e-06
8.27157e-07
-2.05245e-06
7.21438e-07
-2.05897e-06
6.15898e-07
-2.06559e-06
5.10449e-07
-2.07225e-06
4.05016e-07
-2.07892e-06
2.99539e-07
-2.08556e-06
1.93971e-07
-2.09212e-06
8.82789e-08
-2.09859e-06
-1.75613e-08
-1.85063e-06
2.46684e-06
-1.86178e-06
2.36129e-06
-1.87076e-06
2.25271e-06
-1.87814e-06
2.14222e-06
-1.88438e-06
2.03071e-06
-1.8899e-06
1.9189e-06
-1.89504e-06
1.80727e-06
-1.90005e-06
1.69618e-06
-1.90513e-06
1.58584e-06
-1.91042e-06
1.47633e-06
-1.91598e-06
1.36767e-06
-1.92187e-06
1.2598e-06
-1.92808e-06
1.15264e-06
-1.93459e-06
1.04605e-06
-1.94137e-06
9.39933e-07
-1.94836e-06
8.34152e-07
-1.95552e-06
7.28595e-07
-1.96278e-06
6.23161e-07
-1.9701e-06
5.17764e-07
-1.97742e-06
4.12333e-07
-1.98469e-06
3.06812e-07
-1.99188e-06
2.01162e-07
-1.99895e-06
9.53537e-08
-1.06279e-08
-1.74916e-06
2.47921e-06
-1.7592e-06
2.37133e-06
-1.76748e-06
2.26099e-06
-1.77451e-06
2.14924e-06
-1.78071e-06
2.03691e-06
-1.78644e-06
1.92463e-06
-1.792e-06
1.81282e-06
-1.79759e-06
1.70177e-06
-1.80336e-06
1.59161e-06
-1.80941e-06
1.48238e-06
-1.81578e-06
1.37405e-06
-1.8225e-06
1.26652e-06
-1.82953e-06
1.15967e-06
-1.83685e-06
1.05337e-06
-1.84441e-06
9.47489e-07
-1.85215e-06
8.41887e-07
-1.86e-06
7.36452e-07
-1.86792e-06
6.31083e-07
-1.87586e-06
5.25697e-07
-1.88375e-06
4.20227e-07
-1.89157e-06
3.14626e-07
-1.89926e-06
-1.90681e-06
-1.64784e-06
2.49042e-06
-1.65713e-06
2.38062e-06
-1.66501e-06
2.26887e-06
-1.67194e-06
2.15617e-06
-1.67829e-06
2.04327e-06
-1.68439e-06
1.93073e-06
-1.69046e-06
1.8189e-06
-1.69668e-06
1.70799e-06
-1.70316e-06
1.59809e-06
-1.70997e-06
1.48919e-06
-1.71711e-06
1.38119e-06
-1.72459e-06
1.274e-06
-1.73237e-06
1.16745e-06
-1.74041e-06
1.06141e-06
-1.74864e-06
9.55725e-07
-1.75702e-06
8.50264e-07
-1.76548e-06
7.44911e-07
-1.77397e-06
6.39568e-07
-1.78243e-06
5.34158e-07
-1.79082e-06
4.28619e-07
3.2291e-07
-1.54698e-06
2.50082e-06
-1.55579e-06
2.38943e-06
-1.5635e-06
2.27658e-06
-1.57051e-06
2.16318e-06
-1.57715e-06
2.04991e-06
-1.58369e-06
1.93727e-06
-1.59033e-06
1.82553e-06
-1.59718e-06
1.71485e-06
-1.60435e-06
1.60525e-06
-1.61185e-06
1.49669e-06
-1.61969e-06
1.38903e-06
-1.62784e-06
1.28215e-06
-1.63627e-06
1.17588e-06
-1.64491e-06
1.07006e-06
-1.65372e-06
9.64532e-07
-1.66263e-06
8.59174e-07
-1.67159e-06
7.53868e-07
-1.68054e-06
6.4852e-07
-1.68944e-06
5.43058e-07
-1.69825e-06
4.37428e-07
3.31593e-07
-1.44678e-06
2.51064e-06
-1.45533e-06
2.39798e-06
-1.46303e-06
2.28428e-06
-1.47023e-06
2.17038e-06
-1.47723e-06
2.05692e-06
-1.48425e-06
1.94428e-06
-1.49144e-06
1.83272e-06
-1.4989e-06
1.72231e-06
-1.50668e-06
1.61303e-06
-1.5148e-06
1.5048e-06
-1.52324e-06
1.39747e-06
-1.53196e-06
1.29088e-06
-1.54093e-06
1.18484e-06
-1.55007e-06
1.0792e-06
-1.55934e-06
9.738e-07
-1.56867e-06
8.6851e-07
-1.57802e-06
7.6322e-07
-1.58735e-06
6.57842e-07
-1.5966e-06
5.52309e-07
-1.60574e-06
4.46575e-07
3.40607e-07
-1.34736e-06
2.5201e-06
-1.35579e-06
2.40642e-06
-1.36359e-06
2.29207e-06
-1.37106e-06
2.17785e-06
-1.37845e-06
2.0643e-06
-1.38593e-06
1.95177e-06
-1.39364e-06
1.84043e-06
-1.40164e-06
1.73031e-06
-1.40996e-06
1.62135e-06
-1.4186e-06
1.51344e-06
-1.42753e-06
1.4064e-06
-1.43671e-06
1.30006e-06
-1.44609e-06
1.19422e-06
-1.45562e-06
1.08873e-06
-1.46524e-06
9.83419e-07
-1.4749e-06
8.78168e-07
-1.48455e-06
7.72871e-07
-1.49415e-06
6.67445e-07
-1.50368e-06
5.61831e-07
-1.51309e-06
4.55987e-07
3.49888e-07
-1.24877e-06
2.52932e-06
-1.2572e-06
2.41484e-06
-1.26516e-06
2.30003e-06
-1.27291e-06
2.18561e-06
-1.28068e-06
2.07207e-06
-1.28859e-06
1.95969e-06
-1.29675e-06
1.84859e-06
-1.30521e-06
1.73876e-06
-1.31397e-06
1.63012e-06
-1.32302e-06
1.5225e-06
-1.33234e-06
1.41572e-06
-1.34187e-06
1.30959e-06
-1.35156e-06
1.20392e-06
-1.36136e-06
1.09853e-06
-1.37123e-06
9.93287e-07
-1.38112e-06
8.88053e-07
-1.39098e-06
7.82732e-07
-1.40078e-06
6.7725e-07
-1.4105e-06
5.71551e-07
-1.42012e-06
4.65602e-07
3.59381e-07
-1.15105e-06
2.53842e-06
-1.15952e-06
2.42331e-06
-1.16766e-06
2.30817e-06
-1.1757e-06
2.19365e-06
-1.1838e-06
2.08017e-06
-1.19208e-06
1.96797e-06
-1.20062e-06
1.85712e-06
-1.20944e-06
1.74758e-06
-1.21854e-06
1.63922e-06
-1.2279e-06
1.53186e-06
-1.23749e-06
1.4253e-06
-1.24725e-06
1.31935e-06
-1.25715e-06
1.21382e-06