/*--------------------------------*- C++ -*----------------------------------*\
  =========                 |
  \\      /  F ield         | OpenFOAM: The Open Source CFD Toolbox
   \\    /   O peration     | Website:  https://openfoam.org
    \\  /    A nd           | Version:  9
     \\/     M anipulation  |
\*---------------------------------------------------------------------------*/
FoamFile
{
    format      ascii;
    class       volVectorField;
    location    "2.75";
    object      U;
}
// * * * * * * * * * * * * * * * * * * * * * * * * * * * * * * * * * * * * * //

dimensions      [0 1 -1 0 0 0 0];

internalField   nonuniform List<vector> 
1250
(
(-0.00331931 0.00014968 0)
(-0.00396993 0.000164758 0)
(-0.00466971 0.000180038 0)
(-0.00541725 0.000195292 0)
(-0.00621019 0.000210255 0)
(-0.0070452 0.000224634 0)
(-0.00791782 0.000238099 0)
(-0.00882252 0.000250299 0)
(-0.00975259 0.000260858 0)
(-0.0107002 0.000269384 0)
(-0.0116564 0.000275477 0)
(-0.0126111 0.00027874 0)
(-0.0135533 0.000278787 0)
(-0.0144712 0.000275253 0)
(-0.0153521 0.000267809 0)
(-0.0161829 0.000256171 0)
(-0.0169501 0.000240118 0)
(-0.01764 0.000219498 0)
(-0.0182391 0.000194246 0)
(-0.0187344 0.00016441 0)
(-0.0191134 0.000130189 0)
(-0.0193649 9.19038e-05 0)
(-0.0194792 4.98706e-05 0)
(-0.019447 4.647e-06 0)
(-0.0192615 -4.35523e-05 0)
(-0.0189191 -9.36279e-05 0)
(-0.0184179 -0.000144626 0)
(-0.0177586 -0.000195569 0)
(-0.0169451 -0.000245393 0)
(-0.0159842 -0.000292973 0)
(-0.0148857 -0.000337154 0)
(-0.0136626 -0.000376799 0)
(-0.0123306 -0.000410825 0)
(-0.0124814 0.00124024 0)
(-0.0144378 0.00133513 0)
(-0.0165159 0.00142769 0)
(-0.018708 0.00151615 0)
(-0.0210041 0.00159861 0)
(-0.023391 0.00167306 0)
(-0.025853 0.00173736 0)
(-0.0283715 0.00178937 0)
(-0.0309253 0.00182689 0)
(-0.0334904 0.00184781 0)
(-0.0360408 0.00185009 0)
(-0.0385482 0.00183184 0)
(-0.0409825 0.0017914 0)
(-0.0433126 0.00172736 0)
(-0.0455063 0.00163864 0)
(-0.0475313 0.00152452 0)
(-0.0493553 0.00138471 0)
(-0.0509469 0.00121937 0)
(-0.0522762 0.00102917 0)
(-0.053315 0.000815315 0)
(-0.0540381 0.000579625 0)
(-0.0544237 0.000324275 0)
(-0.0544535 5.15287e-05 0)
(-0.0541127 -0.000233279 0)
(-0.0533912 -0.000527687 0)
(-0.0522855 -0.000827111 0)
(-0.0507972 -0.00112657 0)
(-0.0489337 -0.00142086 0)
(-0.0467085 -0.00170451 0)
(-0.0441412 -0.00197195 0)
(-0.0412576 -0.00221762 0)
(-0.0380895 -0.00243614 0)
(-0.0346741 -0.00262249 0)
(-0.023926 0.0037784 0)
(-0.0271826 0.00402993 0)
(-0.0306083 0.00426928 0)
(-0.0341865 0.00449131 0)
(-0.0378962 0.0046906 0)
(-0.0417125 0.00486156 0)
(-0.0456063 0.00499855 0)
(-0.049545 0.005096 0)
(-0.0534923 0.00514854 0)
(-0.0574092 0.00515115 0)
(-0.0612539 0.00509931 0)
(-0.0649828 0.0049891 0)
(-0.0685511 0.00481739 0)
(-0.0719133 0.00458187 0)
(-0.0750242 0.00428124 0)
(-0.0778395 0.00391525 0)
(-0.0803166 0.00348477 0)
(-0.0824153 0.00299183 0)
(-0.0840984 0.00243968 0)
(-0.0853328 0.00183282 0)
(-0.0860897 0.001177 0)
(-0.0863464 0.000479002 0)
(-0.0860829 -0.000254203 0)
(-0.0852866 -0.00101093 0)
(-0.0839529 -0.00178231 0)
(-0.0820823 -0.00255768 0)
(-0.0796828 -0.0033253 0)
(-0.0767696 -0.00407287 0)
(-0.0733649 -0.00478778 0)
(-0.0694986 -0.00545737 0)
(-0.0652074 -0.00606915 0)
(-0.060535 -0.00661115 0)
(-0.0555315 -0.00707228 0)
(-0.0373928 0.00759317 0)
(-0.0419218 0.00804123 0)
(-0.0466418 0.00845729 0)
(-0.0515244 0.00883147 0)
(-0.0565361 0.00915366 0)
(-0.0616387 0.00941374 0)
(-0.0667895 0.00960182 0)
(-0.0719419 0.0097085 0)
(-0.0770463 0.0097251 0)
(-0.0820504 0.00964393 0)
(-0.0869006 0.00945851 0)
(-0.0915422 0.00916378 0)
(-0.0959209 0.00875623 0)
(-0.0999833 0.00823408 0)
(-0.103678 0.00759736 0)
(-0.106956 0.00684796 0)
(-0.109772 0.0059897 0)
(-0.112085 0.00502828 0)
(-0.113858 0.00397129 0)
(-0.11506 0.00282811 0)
(-0.115664 0.00160964 0)
(-0.115653 0.000328933 0)
(-0.115011 -0.000997013 0)
(-0.113729 -0.00235538 0)
(-0.11181 -0.00372843 0)
(-0.109261 -0.00509776 0)
(-0.106095 -0.00644423 0)
(-0.102332 -0.00774805 0)
(-0.0980027 -0.00898914 0)
(-0.0931406 -0.0101474 0)
(-0.0877888 -0.0112033 0)
(-0.0819964 -0.012138 0)
(-0.075819 -0.012934 0)
(-0.0525854 0.0126369 0)
(-0.0583296 0.0132949 0)
(-0.0642606 0.013889 0)
(-0.0703371 0.0144038 0)
(-0.0765125 0.0148239 0)
(-0.0827353 0.0151347 0)
(-0.0889506 0.0153221 0)
(-0.0951002 0.0153736 0)
(-0.101124 0.0152782 0)
(-0.106961 0.0150267 0)
(-0.11255 0.0146123 0)
(-0.117831 0.0140304 0)
(-0.122748 0.0132791 0)
(-0.127244 0.0123591 0)
(-0.131268 0.0112734 0)
(-0.134774 0.0100279 0)
(-0.13772 0.00863108 0)
(-0.140068 0.00709353 0)
(-0.141786 0.0054284 0)
(-0.14285 0.00365084 0)
(-0.143239 0.00177792 0)
(-0.142938 -0.000170936 0)
(-0.141939 -0.00217233 0)
(-0.140243 -0.00420704 0)
(-0.137852 -0.00625043 0)
(-0.134778 -0.00827719 0)
(-0.131036 -0.0102613 0)
(-0.126652 -0.012176 0)
(-0.121655 -0.0139944 0)
(-0.116082 -0.0156895 0)
(-0.109976 -0.0172351 0)
(-0.103385 -0.0186058 0)
(-0.0963675 -0.0197781 0)
(-0.0691709 0.0188607 0)
(-0.0760422 0.0197179 0)
(-0.0830714 0.0204661 0)
(-0.0902044 0.0210844 0)
(-0.0973827 0.0215527 0)
(-0.104544 0.0218525 0)
(-0.111624 0.021967 0)
(-0.118557 0.0218819 0)
(-0.125276 0.0215856 0)
(-0.131718 0.0210697 0)
(-0.13782 0.0203289 0)
(-0.143523 0.0193612 0)
(-0.148771 0.0181683 0)
(-0.153512 0.0167547 0)
(-0.157702 0.0151285 0)
(-0.1613 0.0133005 0)
(-0.164269 0.0112845 0)
(-0.166579 0.00909675 0)
(-0.168206 0.00675608 0)
(-0.169131 0.00428348 0)
(-0.169338 0.00170212 0)
(-0.168818 -0.000962978 0)
(-0.167568 -0.00368627 0)
(-0.165589 -0.00643842 0)
(-0.162887 -0.00918984 0)
(-0.159474 -0.0119097 0)
(-0.155365 -0.0145661 0)
(-0.150584 -0.0171263 0)
(-0.145159 -0.0195571 0)
(-0.139124 -0.0218255 0)
(-0.132518 -0.0238989 0)
(-0.125387 -0.0257457 0)
(-0.117786 -0.0273361 0)
(-0.0867924 0.0261742 0)
(-0.0946749 0.0271963 0)
(-0.102665 0.0280519 0)
(-0.110699 0.0287155 0)
(-0.118708 0.0291637 0)
(-0.126624 0.0293758 0)
(-0.134376 0.0293342 0)
(-0.141897 0.0290251 0)
(-0.149119 0.0284388 0)
(-0.155981 0.0275696 0)
(-0.162423 0.0264157 0)
(-0.168392 0.0249798 0)
(-0.173838 0.0232682 0)
(-0.178717 0.0212909 0)
(-0.182993 0.019061 0)
(-0.186631 0.016595 0)
(-0.189603 0.0139118 0)
(-0.191886 0.0110329 0)
(-0.193461 0.00798206 0)
(-0.194315 0.00478511 0)
(-0.194435 0.00146987 0)
(-0.193815 -0.0019342 0)
(-0.192453 -0.00539678 0)
(-0.19035 -0.00888433 0)
(-0.18751 -0.0123626 0)
(-0.183943 -0.015796 0)
(-0.179663 -0.0191477 0)
(-0.174687 -0.0223796 0)
(-0.169038 -0.0254532 0)
(-0.162745 -0.0283297 0)
(-0.155843 -0.0309702 0)
(-0.148372 -0.0333371 0)
(-0.140379 -0.0353941 0)
(-0.105084 0.0344586 0)
(-0.113842 0.0355918 0)
(-0.122643 0.0364909 0)
(-0.131414 0.0371277 0)
(-0.140085 0.0374775 0)
(-0.148581 0.03752 0)
(-0.156835 0.0372392 0)
(-0.164779 0.0366242 0)
(-0.172353 0.0356691 0)
(-0.179498 0.0343729 0)
(-0.186164 0.032739 0)
(-0.192306 0.0307755 0)
(-0.197881 0.0284942 0)
(-0.202856 0.0259104 0)
(-0.207201 0.0230425 0)
(-0.210888 0.0199117 0)
(-0.213898 0.0165414 0)
(-0.216212 0.0129571 0)
(-0.217814 0.00918642 0)
(-0.218694 0.00525856 0)
(-0.218841 0.00120462 0)
(-0.21825 -0.00294263 0)
(-0.216916 -0.00714939 0)
(-0.214838 -0.0113793 0)
(-0.212018 -0.0155946 0)
(-0.208461 -0.0197558 0)
(-0.204173 -0.023822 0)
(-0.199168 -0.0277507 0)
(-0.193462 -0.0314982 0)
(-0.187077 -0.0350202 0)
(-0.18004 -0.0382721 0)
(-0.172384 -0.0412096 0)
(-0.16415 -0.0437897 0)
(-0.123686 0.0435777 0)
(-0.133174 0.0447548 0)
(-0.142631 0.0456239 0)
(-0.151984 0.0461565 0)
(-0.161158 0.0463293 0)
(-0.170085 0.0461246 0)
(-0.178699 0.0455306 0)
(-0.18694 0.0445413 0)
(-0.194755 0.0431561 0)
(-0.202094 0.0413798 0)
(-0.208916 0.0392218 0)
(-0.215183 0.0366955 0)
(-0.220865 0.0338181 0)
(-0.225933 0.0306096 0)
(-0.230364 0.0270927 0)
(-0.234139 0.0232922 0)
(-0.23724 0.0192348 0)
(-0.239653 0.0149487 0)
(-0.241364 0.010464 0)
(-0.242363 0.00581202 0)
(-0.24264 0.00102583 0)
(-0.242188 -0.00385975 0)
(-0.240998 -0.00880877 0)
(-0.239068 -0.0137828 0)
(-0.236394 -0.0187414 0)
(-0.232974 -0.0236424 0)
(-0.228811 -0.0284414 0)
(-0.223911 -0.0330919 0)
(-0.218283 -0.0375457 0)
(-0.21194 -0.0417534 0)
(-0.204901 -0.0456642 0)
(-0.142261 0.0533879 0)
(-0.152333 0.0545354 0)
(-0.1623 0.0552989 0)
(-0.17209 0.0556524 0)
(-0.181633 0.0555764 0)
(-0.190865 0.0550583 0)
(-0.199729 0.0540918 0)
(-0.208173 0.0526773 0)
(-0.216153 0.0508202 0)
(-0.223629 0.0485314 0)
(-0.230568 0.0458258 0)
(-0.236941 0.0427219 0)
(-0.242723 0.0392412 0)
(-0.247895 0.0354074 0)
(-0.252437 0.0312462 0)
(-0.256333 0.026785 0)
(-0.25957 0.0220524 0)
(-0.262135 0.0170782 0)
(-0.264015 0.0118938 0)
(-0.2652 0.0065316 0)
(-0.265678 0.00102565 0)
(-0.265441 -0.00458834 0)
(-0.264479 -0.010273 0)
(-0.262783 -0.0159887 0)
(-0.260346 -0.0216933 0)
(-0.257163 -0.0273425 0)
(-0.253229 -0.0328893 0)
(-0.248542 -0.0382839 0)
(-0.243105 -0.0434743 0)
(-0.160503 0.0637466 0)
(-0.17102 0.0647911 0)
(-0.181363 0.0653779 0)
(-0.191465 0.0654857 0)
(-0.201261 0.0651009 0)
(-0.210698 0.0642173 0)
(-0.219725 0.0628353 0)
(-0.228301 0.0609616 0)
(-0.23639 0.058608 0)
(-0.243961 0.0557906 0)
(-0.250987 0.0525294 0)
(-0.257447 0.0488468 0)
(-0.263323 0.0447675 0)
(-0.268597 0.040318 0)
(-0.273256 0.0355259 0)
(-0.277286 0.0304201 0)
(-0.280675 0.0250302 0)
(-0.283413 0.019387 0)
(-0.285488 0.013522 0)
(-0.286888 0.00746819 0)
(-0.287604 0.00125979 0)
(-0.287623 -0.0050674 0)
(-0.286935 -0.0114754 0)
(-0.28553 -0.017924 0)
(-0.283395 -0.0243704 0)
(-0.280521 -0.030769 0)
(-0.276898 -0.0370711 0)
(-0.272518 -0.0432247 0)
(-0.267374 -0.0491745 0)
(-0.17814 0.0745188 0)
(-0.188975 0.0753922 0)
(-0.199576 0.0757395 0)
(-0.209879 0.075546 0)
(-0.219832 0.0748051 0)
(-0.229387 0.0735176 0)
(-0.238504 0.0716906 0)
(-0.247149 0.0693369 0)
(-0.255294 0.066474 0)
(-0.262914 0.0631226 0)
(-0.26999 0.0593064 0)
(-0.276505 0.055051 0)
(-0.282444 0.0503836 0)
(-0.287795 0.0453325 0)
(-0.292548 0.0399266 0)
(-0.296691 0.0341956 0)
(-0.300215 0.0281698 0)
(-0.303112 0.02188 0)
(-0.305371 0.0153579 0)
(-0.306983 0.00863626 0)
(-0.307937 0.00174888 0)
(-0.308223 -0.00526877 0)
(-0.30783 -0.0123791 0)
(-0.306744 -0.0195422 0)
(-0.304953 -0.0267155 0)
(-0.302443 -0.0338533 0)
(-0.299199 -0.0409062 0)
(-0.295207 -0.0478211 0)
(-0.290454 -0.0545409 0)
(-0.194935 0.0855803 0)
(-0.205973 0.086222 0)
(-0.216722 0.0862766 0)
(-0.227129 0.0857368 0)
(-0.237149 0.0846032 0)
(-0.246742 0.0828834 0)
(-0.255876 0.0805911 0)
(-0.264522 0.0777445 0)
(-0.27266 0.0743656 0)
(-0.28027 0.0704791 0)
(-0.287338 0.0661117 0)
(-0.29385 0.0612918 0)
(-0.299797 0.0560484 0)
(-0.30517 0.0504111 0)
(-0.309962 0.04441 0)
(-0.314166 0.0380755 0)
(-0.317776 0.0314381 0)
(-0.320786 0.0245286 0)
(-0.32319 0.0173784 0)
(-0.32498 0.0100196 0)
(-0.32615 0.00248517 0)
(-0.326688 -0.00519039 0)
(-0.326586 -0.0129707 0)
(-0.32583 -0.0208173 0)
(-0.324407 -0.0286889 0)
(-0.322299 -0.0365407 0)
(-0.319489 -0.0443242 0)
(-0.315958 -0.0519867 0)
(-0.311685 -0.0594707 0)
(-0.210678 0.0968165 0)
(-0.22181 0.0971738 0)
(-0.232608 0.0968906 0)
(-0.243025 0.0959671 0)
(-0.253023 0.0944111 0)
(-0.262569 0.0922367 0)
(-0.271637 0.0894629 0)
(-0.280205 0.0861129 0)
(-0.288256 0.0822127 0)
(-0.295776 0.0777906 0)
(-0.302754 0.072876 0)
(-0.309183 0.0674995 0)
(-0.315056 0.061692 0)
(-0.32037 0.0554848 0)
(-0.325122 0.0489089 0)
(-0.32931 0.0419953 0)
(-0.332933 0.0347748 0)
(-0.33599 0.027278 0)
(-0.338478 0.0195358 0)
(-0.340394 0.0115791 0)
(-0.341735 0.00343962 0)
(-0.342493 -0.00485 0)
(-0.342662 -0.0132554 0)
(-0.342228 -0.0217404 0)
(-0.341179 -0.0302662 0)
(-0.339497 -0.0387904 0)
(-0.337161 -0.0472669 0)
(-0.334149 -0.0556448 0)
(-0.330434 -0.0638681 0)
(-0.225184 0.10812 0)
(-0.236307 0.108145 0)
(-0.247052 0.107484 0)
(-0.257382 0.106144 0)
(-0.267263 0.104139 0)
(-0.276668 0.101489 0)
(-0.285576 0.098218 0)
(-0.293969 0.0943537 0)
(-0.301836 0.0899259 0)
(-0.309167 0.0849662 0)
(-0.315957 0.0795071 0)
(-0.322202 0.0735816 0)
(-0.327902 0.0672228 0)
(-0.33306 0.0604634 0)
(-0.337677 0.0533359 0)
(-0.341759 0.0458717 0)
(-0.345309 0.038102 0)
(-0.348332 0.030057 0)
(-0.350832 0.0217666 0)
(-0.35281 0.0132603 0)
(-0.354267 0.00456779 0)
(-0.3552 -0.0042807 0)
(-0.355604 -0.0132536 0)
(-0.355471 -0.0223183 0)
(-0.354788 -0.0314393 0)
(-0.353537 -0.0405781 0)
(-0.351697 -0.0496922 0)
(-0.349243 -0.0587344 0)
(-0.346143 -0.0676519 0)
(-0.238284 0.119384 0)
(-0.249292 0.119035 0)
(-0.259883 0.117958 0)
(-0.270023 0.116169 0)
(-0.279683 0.113688 0)
(-0.288843 0.11054 0)
(-0.297484 0.106755 0)
(-0.305596 0.102363 0)
(-0.313169 0.0973996 0)
(-0.320202 0.0918996 0)
(-0.326693 0.0858987 0)
(-0.332646 0.0794328 0)
(-0.338068 0.0725372 0)
(-0.342966 0.0652466 0)
(-0.34735 0.0575946 0)
(-0.351231 0.0496135 0)
(-0.354621 0.0413343 0)
(-0.357528 0.0327867 0)
(-0.359964 0.0239994 0)
(-0.361935 0.0149999 0)
(-0.363446 0.00581535 0)
(-0.3645 -0.00352709 0)
(-0.365096 -0.0129994 0)
(-0.365227 -0.0225731 0)
(-0.364884 -0.0322173 0)
(-0.364051 -0.0418985 0)
(-0.362707 -0.0515791 0)
(-0.360826 -0.0612171 0)
(-0.358374 -0.0707646 0)
(-0.249828 0.130503 0)
(-0.260614 0.129736 0)
(-0.270943 0.128207 0)
(-0.280785 0.125936 0)
(-0.290116 0.12295 0)
(-0.298919 0.119281 0)
(-0.307182 0.114961 0)
(-0.314898 0.110028 0)
(-0.322066 0.104521 0)
(-0.328689 0.0984791 0)
(-0.334774 0.0919409 0)
(-0.34033 0.0849457 0)
(-0.345371 0.0775315 0)
(-0.349913 0.0697349 0)
(-0.353972 0.0615905 0)
(-0.357566 0.0531313 0)
(-0.360712 0.044388 0)
(-0.363428 0.0353893 0)
(-0.365727 0.0261624 0)
(-0.367624 0.0167323 0)
(-0.369128 0.00712309 0)
(-0.370246 -0.00264146 0)
(-0.370981 -0.0125372 0)
(-0.371331 -0.0225411 0)
(-0.37129 -0.0326272 0)
(-0.370843 -0.0427677 0)
(-0.369972 -0.0529313 0)
(-0.368652 -0.0630821 0)
(-0.366849 -0.0731787 0)
(-0.259683 0.141371 0)
(-0.270141 0.140142 0)
(-0.280099 0.138121 0)
(-0.289532 0.135333 0)
(-0.298422 0.131813 0)
(-0.306758 0.127597 0)
(-0.314533 0.122725 0)
(-0.321746 0.117239 0)
(-0.328404 0.111182 0)
(-0.334516 0.104598 0)
(-0.340097 0.097531 0)
(-0.345164 0.0900222 0)
(-0.349739 0.0821125 0)
(-0.353843 0.07384 0)
(-0.357501 0.0652405 0)
(-0.360736 0.0563469 0)
(-0.363571 0.0471893 0)
(-0.36603 0.0377953 0)
(-0.368132 0.0281897 0)
(-0.369896 0.0183952 0)
(-0.371335 0.00843249 0)
(-0.372461 -0.00167872 0)
(-0.373281 -0.0119186 0)
(-0.373798 -0.0222696 0)
(-0.374008 -0.0327114 0)
(-0.3739 -0.0432221 0)
(-0.37346 -0.0537773 0)
(-0.372664 -0.0643482 0)
(-0.371481 -0.0749012 0)
(-0.267745 0.151878 0)
(-0.277767 0.150144 0)
(-0.287247 0.14759 0)
(-0.296167 0.144252 0)
(-0.304512 0.140169 0)
(-0.312278 0.135383 0)
(-0.319466 0.129942 0)
(-0.326083 0.123893 0)
(-0.332142 0.117285 0)
(-0.337661 0.110166 0)
(-0.342662 0.102584 0)
(-0.34717 0.094583 0)
(-0.351214 0.0862063 0)
(-0.354821 0.0774933 0)
(-0.358023 0.0684802 0)
(-0.360848 0.0591997 0)
(-0.363325 0.0496808 0)
(-0.365481 0.0399493 0)
(-0.36734 0.0300277 0)
(-0.368924 0.019936 0)
(-0.370252 0.00969178 0)
(-0.371336 -0.00069003 0)
(-0.37219 -0.0111978 0)
(-0.37282 -0.0218136 0)
(-0.373224 -0.0325246 0)
(-0.373397 -0.0433153 0)
(-0.373328 -0.0541682 0)
(-0.372996 -0.0650625 0)
(-0.372375 -0.0759725 0)
(-0.273939 0.161921 0)
(-0.283426 0.159637 0)
(-0.292331 0.156514 0)
(-0.300641 0.152592 0)
(-0.308351 0.147919 0)
(-0.315463 0.142546 0)
(-0.321985 0.136525 0)
(-0.327933 0.12991 0)
(-0.333329 0.122756 0)
(-0.338197 0.115116 0)
(-0.342568 0.107039 0)
(-0.346475 0.0985734 0)
(-0.34995 0.089764 0)
(-0.35303 0.0806506 0)
(-0.355747 0.0712692 0)
(-0.358136 0.0616517 0)
(-0.36023 0.0518254 0)
(-0.362057 0.0418141 0)
(-0.363645 0.0316376 0)
(-0.36502 0.0213127 0)
(-0.366201 0.0108535 0)
(-0.367208 0.000270851 0)
(-0.368053 -0.010428 0)
(-0.368742 -0.02123 0)
(-0.369282 -0.0321279 0)
(-0.369672 -0.0431122 0)
(-0.369903 -0.0541723 0)
(-0.369961 -0.0652948 0)
(-0.369824 -0.0764623 0)
(-0.268766 0.173379 0)
(-0.278231 0.171404 0)
(-0.287094 0.16853 0)
(-0.295341 0.164801 0)
(-0.302965 0.160268 0)
(-0.30997 0.154986 0)
(-0.316364 0.149014 0)
(-0.322166 0.14241 0)
(-0.327401 0.135235 0)
(-0.332097 0.127549 0)
(-0.336287 0.119407 0)
(-0.340009 0.110864 0)
(-0.3433 0.101968 0)
(-0.346199 0.092765 0)
(-0.348746 0.083295 0)
(-0.350978 0.0735929 0)
(-0.35293 0.063689 0)
(-0.354639 0.0536088 0)
(-0.356134 0.0433732 0)
(-0.357445 0.0329994 0)
(-0.358597 0.0225005 0)
(-0.359614 0.0118869 0)
(-0.360515 0.00116637 0)
(-0.361314 -0.0096542 0)
(-0.362021 -0.0205721 0)
(-0.362645 -0.0315831 0)
(-0.363188 -0.0426832 0)
(-0.363646 -0.0538679 0)
(-0.36401 -0.0651305 0)
(-0.364264 -0.0764616 0)
(-0.27182 0.18283 0)
(-0.280626 0.180244 0)
(-0.288796 0.176743 0)
(-0.296322 0.172382 0)
(-0.303205 0.167218 0)
(-0.309458 0.161317 0)
(-0.3151 0.154742 0)
(-0.320158 0.147562 0)
(-0.324663 0.139842 0)
(-0.328653 0.131646 0)
(-0.332168 0.123032 0)
(-0.335249 0.114057 0)
(-0.33794 0.10477 0)
(-0.340283 0.0952171 0)
(-0.342319 0.0854367 0)
(-0.344088 0.0754623 0)
(-0.345627 0.0653222 0)
(-0.34697 0.055039 0)
(-0.34815 0.0446312 0)
(-0.349195 0.0341126 0)
(-0.35013 0.0234933 0)
(-0.350979 0.0127803 0)
(-0.351761 0.00197806 0)
(-0.352492 -0.00891014 0)
(-0.353183 -0.0198852 0)
(-0.353845 -0.0309473 0)
(-0.354483 -0.0420972 0)
(-0.355097 -0.0533355 0)
(-0.355684 -0.0646617 0)
(-0.356233 -0.0760732 0)
(-0.273085 0.191609 0)
(-0.281177 0.188377 0)
(-0.288603 0.184223 0)
(-0.295368 0.179209 0)
(-0.301481 0.173405 0)
(-0.306965 0.166883 0)
(-0.311847 0.159716 0)
(-0.316163 0.151976 0)
(-0.319952 0.143735 0)
(-0.323259 0.135059 0)
(-0.326127 0.12601 0)
(-0.328605 0.116644 0)
(-0.330736 0.10701 0)
(-0.332566 0.0971532 0)
(-0.334136 0.0871098 0)
(-0.335486 0.0769111 0)
(-0.336653 0.0665824 0)
(-0.33767 0.0561437 0)
(-0.338567 0.0456101 0)
(-0.339373 0.0349924 0)
(-0.340111 0.024298 0)
(-0.340802 0.0135305 0)
(-0.341466 0.00269171 0)
(-0.342118 -0.00821887 0)
(-0.342771 -0.0192044 0)
(-0.343436 -0.0302686 0)
(-0.344121 -0.0414159 0)
(-0.344828 -0.0526512 0)
(-0.34556 -0.0639788 0)
(-0.346311 -0.0754018 0)
(-0.272633 0.199666 0)
(-0.279972 0.195761 0)
(-0.28663 0.190934 0)
(-0.292618 0.18526 0)
(-0.297958 0.178818 0)
(-0.302681 0.171686 0)
(-0.306823 0.163945 0)
(-0.310427 0.155674 0)
(-0.31354 0.146945 0)
(-0.31621 0.137829 0)
(-0.318486 0.128387 0)
(-0.320417 0.118674 0)
(-0.322049 0.108741 0)
(-0.323427 0.098627 0)
(-0.324593 0.0883676 0)
(-0.325584 0.0779903 0)
(-0.326434 0.0675174 0)
(-0.327176 0.0569655 0)
(-0.327837 0.0463464 0)
(-0.328442 0.0356682 0)
(-0.329012 0.024935 0)
(-0.329568 0.0141483 0)
(-0.330125 0.00330705 0)
(-0.330699 -0.00759182 0)
(-0.331303 -0.0185535 0)
(-0.331947 -0.029584 0)
(-0.332641 -0.0406907 0)
(-0.333391 -0.0518812 0)
(-0.334201 -0.0631636 0)
(-0.335072 -0.0745453 0)
(-0.270566 0.20697 0)
(-0.277139 0.202375 0)
(-0.283025 0.19687 0)
(-0.288247 0.19054 0)
(-0.292836 0.183472 0)
(-0.29683 0.175752 0)
(-0.300275 0.167468 0)
(-0.30322 0.158701 0)
(-0.305717 0.149526 0)
(-0.307816 0.140014 0)
(-0.30957 0.130226 0)
(-0.311028 0.120216 0)
(-0.312236 0.110031 0)
(-0.313236 0.0997071 0)
(-0.314069 0.0892765 0)
(-0.314769 0.0787633 0)
(-0.315368 0.0681858 0)
(-0.315893 0.0575573 0)
(-0.31637 0.0468865 0)
(-0.316819 0.0361784 0)
(-0.317259 0.0254346 0)
(-0.317707 0.0146544 0)
(-0.318178 0.00383467 0)
(-0.318684 -0.00702948 0)
(-0.319237 -0.0179446 0)
(-0.319847 -0.0289185 0)
(-0.320526 -0.03996 0)
(-0.321279 -0.0510786 0)
(-0.322115 -0.0622847 0)
(-0.323038 -0.0735887 0)
(-0.267016 0.213512 0)
(-0.272831 0.208223 0)
(-0.277966 0.202046 0)
(-0.282453 0.195076 0)
(-0.286333 0.187406 0)
(-0.289652 0.179132 0)
(-0.292463 0.170343 0)
(-0.294818 0.161123 0)
(-0.296773 0.15155 0)
(-0.298382 0.141691 0)
(-0.299695 0.131607 0)
(-0.300762 0.121349 0)
(-0.301626 0.110958 0)
(-0.302329 0.10047 0)
(-0.302905 0.0899097 0)
(-0.303386 0.0792987 0)
(-0.303799 0.0686511 0)
(-0.304169 0.0579767 0)
(-0.304516 0.0472811 0)
(-0.304857 0.0365664 0)
(-0.305207 0.0258321 0)
(-0.30558 0.0150756 0)
(-0.305987 0.00429234 0)
(-0.30644 -0.00652385 0)
(-0.306949 -0.0173804 0)
(-0.307523 -0.0282857 0)
(-0.308171 -0.0392494 0)
(-0.308903 -0.050282 0)
(-0.309727 -0.0613948 0)
(-0.31065 -0.0726 0)
(-0.262137 0.219303 0)
(-0.26722 0.213328 0)
(-0.271643 0.206498 0)
(-0.275445 0.198913 0)
(-0.278676 0.190678 0)
(-0.281389 0.18189 0)
(-0.28364 0.172642 0)
(-0.285487 0.16302 0)
(-0.286985 0.153098 0)
(-0.288189 0.142945 0)
(-0.289148 0.132615 0)
(-0.289908 0.122156 0)
(-0.290512 0.111606 0)
(-0.290995 0.100993 0)
(-0.291389 0.0903414 0)
(-0.291721 0.0796657 0)
(-0.292014 0.0689769 0)
(-0.292287 0.058281 0)
(-0.292555 0.0475808 0)
(-0.292834 0.0368761 0)
(-0.293133 0.0261644 0)
(-0.293463 0.0154415 0)
(-0.293834 0.00470182 0)
(-0.294253 -0.00606126 0)
(-0.294729 -0.0168555 0)
(-0.295269 -0.0276895 0)
(-0.295883 -0.0385729 0)
(-0.29658 -0.049516 0)
(-0.297368 -0.0605305 0)
(-0.298256 -0.0716288 0)
(-0.256093 0.224374 0)
(-0.260489 0.217733 0)
(-0.264253 0.210277 0)
(-0.267435 0.202116 0)
(-0.270089 0.193358 0)
(-0.272274 0.184104 0)
(-0.274049 0.174449 0)
(-0.275473 0.164476 0)
(-0.276601 0.154259 0)
(-0.277487 0.143862 0)
(-0.278177 0.133335 0)
(-0.278714 0.122721 0)
(-0.279136 0.112052 0)
(-0.279474 0.101353 0)
(-0.279755 0.0906418 0)
(-0.280001 0.0799291 0)
(-0.28023 0.0692219 0)
(-0.280458 0.0585232 0)
(-0.280696 0.0478329 0)
(-0.280952 0.0371486 0)
(-0.281236 0.0264664 0)
(-0.281555 0.0157809 0)
(-0.281913 0.00508611 0)
(-0.282318 -0.00562496 0)
(-0.282775 -0.0163598 0)
(-0.283291 -0.0271268 0)
(-0.283873 -0.0379347 0)
(-0.28453 -0.0487933 0)
(-0.28527 -0.0597136 0)
(-0.286105 -0.0707075 0)
(-0.249054 0.228771 0)
(-0.252819 0.221494 0)
(-0.255991 0.21345 0)
(-0.258626 0.204757 0)
(-0.260782 0.195525 0)
(-0.262522 0.185857 0)
(-0.263906 0.175848 0)
(-0.264993 0.165579 0)
(-0.265836 0.155119 0)
(-0.266487 0.144527 0)
(-0.266987 0.133849 0)
(-0.267377 0.123121 0)
(-0.267687 0.112371 0)
(-0.267946 0.101617 0)
(-0.268174 0.0908732 0)
(-0.268389 0.0801456 0)
(-0.268605 0.0694378 0)
(-0.268831 0.0587494 0)
(-0.269077 0.0480781 0)
(-0.269346 0.0374198 0)
(-0.269645 0.0267692 0)
(-0.269977 0.0161205 0)
(-0.270346 0.00546713 0)
(-0.270755 -0.0051975 0)
(-0.271208 -0.0158805 0)
(-0.27171 -0.0265893 0)
(-0.272268 -0.0373317 0)
(-0.272888 -0.0481166 0)
(-0.273579 -0.0589534 0)
(-0.274352 -0.069853 0)
(-0.241188 0.232552 0)
(-0.244388 0.224677 0)
(-0.24704 0.21609 0)
(-0.249204 0.206914 0)
(-0.250944 0.197261 0)
(-0.252322 0.187235 0)
(-0.253398 0.176926 0)
(-0.254229 0.166412 0)
(-0.254868 0.155759 0)
(-0.255358 0.145018 0)
(-0.25574 0.13423 0)
(-0.256047 0.123425 0)
(-0.256307 0.112625 0)
(-0.256541 0.101843 0)
(-0.256766 0.0910881 0)
(-0.256994 0.0803626 0)
(-0.257235 0.0696665 0)
(-0.257496 0.0589969 0)
(-0.257779 0.0483494 0)
(-0.258089 0.0377186 0)
(-0.258426 0.0270983 0)
(-0.258792 0.0164822 0)
(-0.259189 0.00586405 0)
(-0.259618 -0.00476251 0)
(-0.260081 -0.0154038 0)
(-0.232652 0.235781 0)
(-0.235357 0.227353 0)
(-0.237564 0.218274 0)
(-0.239337 0.208668 0)
(-0.240739 0.198649 0)
(-0.241834 0.188318 0)
(-0.24268 0.177762 0)
(-0.24333 0.167054 0)
(-0.243833 0.156252 0)
(-0.244229 0.145403 0)
(-0.244553 0.134542 0)
(-0.244833 0.123691 0)
(-0.245091 0.112867 0)
(-0.245343 0.102078 0)
(-0.245603 0.091328 0)
(-0.245878 0.0806165 0)
(-0.246173 0.0699401 0)
(-0.246492 0.0592938 0)
(-0.246836 0.0486715 0)
(-0.247204 0.0380667 0)
(-0.247597 0.0274728 0)
(-0.248013 0.0168833 0)
(-0.248451 0.00629232 0)
(-0.248913 -0.00430595 0)
(-0.249398 -0.0149169 0)
(-0.223593 0.238527 0)
(-0.225875 0.229595 0)
(-0.227711 0.220077 0)
(-0.229167 0.210096 0)
(-0.230306 0.199765 0)
(-0.23119 0.189181 0)
(-0.231875 0.178427 0)
(-0.232409 0.16757 0)
(-0.232836 0.156661 0)
(-0.233191 0.145741 0)
(-0.233505 0.134836 0)
(-0.2338 0.123964 0)
(-0.234094 0.113137 0)
(-0.234397 0.102356 0)
(-0.234719 0.0916233 0)
(-0.235063 0.0809334 0)
(-0.235432 0.070281 0)
(-0.235827 0.0596593 0)
(-0.236244 0.0490609 0)
(-0.236683 0.0384787 0)
(-0.237141 0.0279057 0)
(-0.237616 0.0173358 0)
(-0.238106 0.0067633 0)
(-0.23861 -0.00381676 0)
(-0.239127 -0.0144088 0)
(-0.21414 0.24086 0)
(-0.216068 0.231477 0)
(-0.217604 0.221572 0)
(-0.218812 0.211269 0)
(-0.219756 0.200678 0)
(-0.220493 0.189891 0)
(-0.221074 0.178984 0)
(-0.221546 0.168018 0)
(-0.221946 0.157038 0)
(-0.222304 0.146075 0)
(-0.222645 0.135152 0)
(-0.222986 0.12428 0)
(-0.223341 0.113464 0)
(-0.223717 0.102703 0)
(-0.224118 0.091994 0)
(-0.224545 0.0813298 0)
(-0.224999 0.0707027 0)
(-0.225477 0.0601045 0)
(-0.225975 0.049527 0)
(-0.22649 0.0389627 0)
(-0.227019 0.0284046 0)
(-0.227558 0.0178468 0)
(-0.228104 0.00728431 0)
(-0.228655 -0.00328707 0)
(-0.22921 -0.0138708 0)
(-0.204406 0.242848 0)
(-0.206045 0.233065 0)
(-0.207345 0.222827 0)
(-0.208368 0.212253 0)
(-0.209174 0.201449 0)
(-0.209818 0.190503 0)
(-0.210345 0.179483 0)
(-0.210798 0.168443 0)
(-0.211207 0.157421 0)
(-0.211599 0.146441 0)
(-0.211993 0.135519 0)
(-0.212402 0.124661 0)
(-0.212834 0.113867 0)
(-0.213294 0.103133 0)
(-0.213783 0.0924514 0)
(-0.214301 0.0818141 0)
(-0.214843 0.0712113 0)
(-0.215406 0.0606338 0)
(-0.215986 0.0500731 0)
(-0.216578 0.0395213 0)
(-0.217177 0.0289718 0)
(-0.217781 0.0184192 0)
(-0.218385 0.00785907 0)
(-0.218987 -0.00271207 0)
(-0.219584 -0.0132967 0)
(-0.194484 0.244552 0)
(-0.195895 0.234422 0)
(-0.197015 0.2239 0)
(-0.197906 0.213103 0)
(-0.198624 0.202131 0)
(-0.199218 0.191065 0)
(-0.19973 0.179966 0)
(-0.200195 0.168881 0)
(-0.200641 0.15784 0)
(-0.201089 0.146862 0)
(-0.201552 0.135955 0)
(-0.20204 0.125121 0)
(-0.202558 0.114356 0)
(-0.203108 0.103652 0)
(-0.203687 0.0929992 0)
(-0.204293 0.0823877 0)
(-0.204921 0.0718067 0)
(-0.205567 0.0612462 0)
(-0.206226 0.0506975 0)
(-0.206891 0.040153 0)
(-0.207559 0.0296064 0)
(-0.208225 0.0190528 0)
(-0.208886 0.0084883 0)
(-0.209538 -0.00208962 0)
(-0.210179 -0.0126827 0)
(-0.184451 0.246031 0)
(-0.185686 0.235602 0)
(-0.186677 0.224843 0)
(-0.18748 0.213865 0)
(-0.188149 0.202764 0)
(-0.188727 0.191611 0)
(-0.189252 0.180462 0)
(-0.189754 0.169356 0)
(-0.190254 0.158315 0)
(-0.19077 0.147352 0)
(-0.191311 0.13647 0)
(-0.191883 0.125666 0)
(-0.192488 0.114933 0)
(-0.193125 0.10426 0)
(-0.193791 0.0936355 0)
(-0.194481 0.0830473 0)
(-0.19519 0.0724844 0)
(-0.195913 0.0619367 0)
(-0.196643 0.0513954 0)
(-0.197376 0.0408532 0)
(-0.198106 0.0303044 0)
(-0.198831 0.0197444 0)
(-0.199544 0.00917036 0)
(-0.200245 -0.00141977 0)
(-0.174369 0.247334 0)
(-0.175473 0.236653 0)
(-0.176374 0.225698 0)
(-0.177126 0.214578 0)
(-0.177777 0.20338 0)
(-0.178365 0.19217 0)
(-0.178922 0.180994 0)
(-0.179475 0.169883 0)
(-0.18004 0.158856 0)
(-0.180629 0.147918 0)
(-0.18125 0.137067 0)
(-0.181905 0.126297 0)
(-0.182593 0.115597 0)
(-0.183312 0.104953 0)
(-0.184057 0.0943539 0)
(-0.184823 0.0837856 0)
(-0.185605 0.073237 0)
(-0.186395 0.0626977 0)
(-0.187189 0.0521594 0)
(-0.187982 0.0416152 0)
(-0.188768 0.0310598 0)
(-0.189544 0.0204896 0)
(-0.190307 0.009902 0)
(-0.191054 -0.000704231 0)
(-0.164283 0.248505 0)
(-0.165293 0.237612 0)
(-0.166138 0.2265 0)
(-0.166867 0.215271 0)
(-0.167521 0.204004 0)
(-0.168136 0.192758 0)
(-0.16874 0.181573 0)
(-0.169351 0.170473 0)
(-0.169983 0.159469 0)
(-0.170647 0.148561 0)
(-0.171344 0.137745 0)
(-0.172076 0.127009 0)
(-0.17284 0.11634 0)
(-0.173633 0.105723 0)
(-0.174448 0.0951457 0)
(-0.17528 0.0845935 0)
(-0.176123 0.0740549 0)
(-0.176972 0.0635201 0)
(-0.177821 0.0529809 0)
(-0.178664 0.0424311 0)
(-0.179499 0.0318661 0)
(-0.154228 0.249578 0)
(-0.155174 0.238511 0)
(-0.155988 0.227274 0)
(-0.156714 0.215964 0)
(-0.157388 0.204651 0)
(-0.158041 0.193389 0)
(-0.158695 0.182208 0)
(-0.159367 0.171127 0)
(-0.160067 0.160152 0)
(-0.1608 0.149278 0)
(-0.161567 0.138496 0)
(-0.162368 0.127792 0)
(-0.163198 0.117152 0)
(-0.164054 0.10656 0)
(-0.164928 0.0960003 0)
(-0.165815 0.0854601 0)
(-0.16671 0.0749279 0)
(-0.167607 0.064394 0)
(-0.168501 0.0538509 0)
(-0.169387 0.0432928 0)
(-0.170262 0.0327159 0)
(-0.144227 0.250584 0)
(-0.145133 0.239375 0)
(-0.145935 0.228041 0)
(-0.146671 0.216672 0)
(-0.147374 0.205332 0)
(-0.14807 0.194066 0)
(-0.148777 0.182899 0)
(-0.149508 0.171844 0)
(-0.150269 0.1609 0)
(-0.151065 0.150061 0)
(-0.151893 0.139312 0)
(-0.152753 0.128639 0)
(-0.153639 0.118024 0)
(-0.154545 0.107452 0)
(-0.155468 0.0969065 0)
(-0.156399 0.0863748 0)
(-0.157335 0.0758456 0)
(-0.15827 0.0653097 0)
(-0.159199 0.0547603 0)
(-0.16012 0.0441922 0)
(-0.161029 0.0336021 0)
(-0.134296 0.251544 0)
(-0.135179 0.240221 0)
(-0.135981 0.228814 0)
(-0.136737 0.217405 0)
(-0.137474 0.206052 0)
(-0.138213 0.194792 0)
(-0.138971 0.183645 0)
(-0.139755 0.172619 0)
(-0.14057 0.161707 0)
(-0.141419 0.150901 0)
(-0.142298 0.140183 0)
(-0.143206 0.129537 0)
(-0.144135 0.118944 0)
(-0.145082 0.108388 0)
(-0.146041 0.0978533 0)
(-0.147006 0.0873268 0)
(-0.147973 0.0767978 0)
(-0.148937 0.0662579 0)
(-0.149894 0.0557006 0)
(-0.150841 0.0451217 0)
(-0.151776 0.0345182 0)
(-0.124443 0.252475 0)
(-0.125315 0.241062 0)
(-0.126126 0.229601 0)
(-0.126905 0.218166 0)
(-0.127676 0.20681 0)
(-0.128457 0.195563 0)
(-0.129259 0.18444 0)
(-0.130089 0.173443 0)
(-0.13095 0.162564 0)
(-0.131842 0.151788 0)
(-0.132761 0.141098 0)
(-0.133705 0.130475 0)
(-0.134667 0.1199 0)
(-0.135644 0.109357 0)
(-0.136629 0.0988299 0)
(-0.137618 0.088306 0)
(-0.138606 0.0777754 0)
(-0.13959 0.06723 0)
(-0.140567 0.0566643 0)
(-0.141534 0.0460744 0)
(-0.14249 0.0354581 0)
(-0.114672 0.253389 0)
(-0.11554 0.241906 0)
(-0.116364 0.230405 0)
(-0.117167 0.218956 0)
(-0.11797 0.207604 0)
(-0.118787 0.196375 0)
(-0.119627 0.185277 0)
(-0.120495 0.174309 0)
(-0.121391 0.163459 0)
(-0.122315 0.152711 0)
(-0.123264 0.142045 0)
(-0.124233 0.131442 0)
(-0.125217 0.120882 0)
(-0.126213 0.110349 0)
(-0.127214 0.0998265 0)
(-0.128218 0.0893035 0)
(-0.12922 0.0787699 0)
(-0.130217 0.0682186 0)
(-0.131207 0.0576445 0)
(-0.132188 0.0470444 0)
(-0.133159 0.0364165 0)
(-0.104981 0.254294 0)
(-0.105851 0.242757 0)
(-0.106688 0.231229 0)
(-0.107514 0.219773 0)
(-0.108344 0.20843 0)
(-0.109191 0.19722 0)
(-0.11006 0.186147 0)
(-0.110956 0.175206 0)
(-0.111877 0.164384 0)
(-0.112823 0.15366 0)
(-0.113791 0.143015 0)
(-0.114775 0.132428 0)
(-0.115772 0.12188 0)
(-0.116777 0.111353 0)