/*--------------------------------*- C++ -*----------------------------------*\
  =========                 |
  \\      /  F ield         | OpenFOAM: The Open Source CFD Toolbox
   \\    /   O peration     | Website:  https://openfoam.org
    \\  /    A nd           | Version:  9
     \\/     M anipulation  |
\*---------------------------------------------------------------------------*/
FoamFile
{
    format      ascii;
    class       surfaceScalarField;
    location    "3.25";
    object      phi;
}
// * * * * * * * * * * * * * * * * * * * * * * * * * * * * * * * * * * * * * //

dimensions      [0 3 -1 0 0 0 0];

internalField   nonuniform List<scalar> 
2427
(
7.48541e-11
-7.46715e-11
9.41581e-10
-8.66731e-10
2.48267e-09
-1.54111e-09
4.40794e-09
-1.92527e-09
6.47322e-09
-2.06528e-09
8.49492e-09
-2.0217e-09
1.0343e-08
-1.84806e-09
1.19316e-08
-1.58863e-09
1.32097e-08
-1.27806e-09
1.41522e-08
-9.42499e-10
1.47529e-08
-6.00707e-10
1.50179e-08
-2.65056e-10
1.49605e-08
5.74265e-11
1.45959e-08
3.64572e-10
1.39382e-08
6.5777e-10
1.2997e-08
9.41123e-10
1.17765e-08
1.22053e-09
1.02737e-08
1.50278e-09
8.47901e-09
1.79471e-09
6.37645e-09
2.10257e-09
3.94495e-09
2.43149e-09
1.1596e-09
2.78535e-09
-2.0068e-09
3.16641e-09
-5.58222e-09
3.57543e-09
-9.59397e-09
4.01173e-09
-1.40673e-08
4.47332e-09
-1.90242e-08
4.95694e-09
-2.44824e-08
5.45822e-09
5.97169e-09
8.64349e-10
-9.3901e-10
3.34174e-09
-3.34412e-09
7.00459e-09
-5.20395e-09
1.13701e-08
-6.29079e-09
1.59828e-08
-6.67801e-09
2.0461e-08
-6.49992e-09
2.45091e-08
-5.89616e-09
2.79137e-08
-4.99318e-09
3.05324e-08
-3.89684e-09
3.22808e-08
-2.6909e-09
3.31181e-08
-1.43793e-09
3.30333e-08
-1.8031e-10
3.20358e-08
1.05495e-09
3.0141e-08
2.25939e-09
2.73648e-08
3.43398e-09
2.37159e-08
4.58993e-09
1.9192e-08
5.74444e-09
1.3777e-08
6.9178e-09
7.44107e-09
8.13065e-09
1.41854e-10
9.40177e-09
-8.17307e-09
1.07464e-08
-1.75627e-08
1.21749e-08
-2.80889e-08
1.36926e-08
-3.98125e-08
1.52991e-08
-5.27896e-08
1.69888e-08
-6.70673e-08
1.8751e-08
-8.2681e-08
2.05706e-08
-9.96508e-08
2.2428e-08
2.42996e-08
1.54555e-09
-2.48458e-09
5.2235e-09
-7.02206e-09
1.03158e-08
-1.02962e-08
1.61804e-08
-1.21554e-08
2.22382e-08
-1.27358e-08
2.79973e-08
-1.2259e-08
3.30643e-08
-1.09631e-08
3.71424e-08
-9.07126e-09
4.00219e-08
-6.77641e-09
4.15664e-08
-4.23537e-09
4.16963e-08
-1.56785e-09
4.03739e-08
1.14207e-09
3.75861e-08
3.84284e-09
3.33334e-08
6.51204e-09
2.76172e-08
9.15018e-09
2.04314e-08
1.17757e-08
1.17569e-08
1.44189e-08
1.55887e-09
1.71159e-08
-1.0214e-08
1.99035e-08
-2.36266e-08
2.28145e-08
-3.87545e-08
2.58743e-08
-5.56781e-08
2.90986e-08
-7.44774e-08
3.24919e-08
-9.52258e-08
3.60474e-08
-1.17984e-07
3.9747e-08
-1.42795e-07
4.35618e-08
-1.69677e-07
4.74531e-08
-1.98623e-07
5.13733e-08
5.52666e-08
1.95219e-09
-4.43677e-09
6.37021e-09
-1.14401e-08
1.22718e-08
-1.61978e-08
1.88678e-08
-1.87514e-08
2.54872e-08
-1.93552e-08
3.157e-08
-1.83418e-08
3.66655e-08
-1.60586e-08
4.04262e-08
-1.28319e-08
4.25969e-08
-8.94714e-09
4.3001e-08
-4.63949e-09
4.15241e-08
-9.09178e-11
3.8097e-08
4.56914e-09
3.26798e-08
9.26008e-09
2.52473e-08
1.39445e-08
1.5777e-08
1.86205e-08
4.23931e-09
2.33134e-08
-9.40759e-09
2.80658e-08
-2.52209e-08
3.29292e-08
-4.32726e-08
3.79551e-08
-6.3646e-08
4.31878e-08
-8.64306e-08
4.86589e-08
-1.11716e-07
5.43834e-08
-1.39582e-07
6.03579e-08
-1.70094e-07
6.65596e-08
-2.03293e-07
7.29467e-08
-2.39191e-07
7.94596e-08
-2.77761e-07
8.60225e-08
-3.18932e-07
9.2545e-08
9.8924e-08
2.12805e-09
-6.56481e-09
6.84066e-09
-1.61527e-08
1.29693e-08
-2.23265e-08
1.96076e-08
-2.53897e-08
2.60152e-08
-2.57629e-08
3.15885e-08
-2.39152e-08
3.5844e-08
-2.03141e-08
3.84048e-08
-1.53927e-08
3.8987e-08
-9.52934e-09
3.73848e-08
-3.0373e-09
3.3454e-08
3.83985e-09
2.70956e-08
1.09275e-08
1.82398e-08
1.81159e-08
6.83163e-09
2.53526e-08
-7.18051e-09
3.26327e-08
-2.38537e-08
3.99865e-08
-4.32554e-08
4.74675e-08
-6.54651e-08
5.51389e-08
-9.05721e-08
6.30621e-08
-1.18671e-07
7.12866e-08
-1.49854e-07
7.9842e-08
-1.84204e-07
8.87331e-08
-2.21782e-07
9.79367e-08
-2.62624e-07
1.07401e-07
-3.06725e-07
1.17047e-07
-3.54035e-07
1.2677e-07
-4.04452e-07
1.3644e-07
-4.57818e-07
1.45911e-07
1.55017e-07
2.12321e-09
-8.68802e-09
6.73232e-09
-2.07618e-08
1.25531e-08
-2.81473e-08
1.86038e-08
-3.14403e-08
2.41005e-08
-3.12596e-08
2.84156e-08
-2.82302e-08
3.105e-08
-2.29485e-08
3.16127e-08
-1.59554e-08
2.98035e-08
-7.72009e-09
2.5396e-08
1.37014e-09
1.8222e-08
1.10139e-08
8.15493e-09
2.09946e-08
-4.90489e-09
3.11757e-08
-2.1043e-08
4.14908e-08
-4.03415e-08
5.19312e-08
-6.28857e-08
6.25307e-08
-8.87675e-08
7.33493e-08
-1.18085e-07
8.44561e-08
-1.50937e-07
9.59146e-08
-1.8742e-07
1.07769e-07
-2.27614e-07
1.20036e-07
-2.71576e-07
1.32695e-07
-3.1933e-07
1.4569e-07
-3.70852e-07
1.58923e-07
-4.26067e-07
1.72262e-07
-4.84838e-07
1.85541e-07
-5.46962e-07
1.98564e-07
-6.12163e-07
2.11112e-07
2.22951e-07
1.97438e-09
-1.06624e-08
6.13099e-09
-2.49185e-08
1.11576e-08
-3.31739e-08
1.6042e-08
-3.63247e-08
1.99859e-08
-3.52035e-08
2.23578e-08
-3.06021e-08
2.26584e-08
-2.32491e-08
2.04947e-08
-1.37917e-08
1.55593e-08
-2.78464e-09
7.61254e-09
9.31685e-09
-3.53324e-09
2.21596e-08
-1.80292e-08
3.54905e-08
-3.60028e-08
4.91494e-08
-5.75693e-08
6.30573e-08
-8.28394e-08
7.72012e-08
-1.11924e-07
9.1615e-08
-1.44933e-07
1.06359e-07
-1.81977e-07
1.215e-07
-2.23155e-07
1.37092e-07
-2.68547e-07
1.53161e-07
-3.18205e-07
1.69694e-07
-3.72139e-07
1.8663e-07
-4.3031e-07
2.03861e-07
-4.92614e-07
2.21227e-07
-5.58879e-07
2.38527e-07
-6.28857e-07
2.55518e-07
-7.0222e-07
2.71927e-07
-7.78564e-07
2.87456e-07
3.01795e-07
1.70524e-09
-1.23676e-08
5.0997e-09
-2.83129e-08
8.8883e-09
-3.69625e-08
1.20722e-08
-3.95087e-08
1.38698e-08
-3.70011e-08
1.36671e-08
-3.03995e-08
1.09799e-08
-2.05619e-08
5.42366e-09
-8.23549e-09
-3.3082e-09
5.94722e-09
-1.5463e-08
2.14716e-08
-3.12439e-08
3.79406e-08
-5.08234e-08
5.507e-08
-7.43541e-08
7.26801e-08
-1.01977e-07
9.06805e-08
-1.33828e-07
1.09052e-07
-1.70036e-07
1.27823e-07
-2.10723e-07
1.47046e-07
-2.55997e-07
1.66774e-07
-3.05942e-07
1.87037e-07
-3.60607e-07
2.07826e-07
-4.19993e-07
2.2908e-07
-4.84043e-07
2.5068e-07
-5.5263e-07
2.72447e-07
-6.25546e-07
2.94144e-07
-7.02503e-07
3.15484e-07
-7.83126e-07
3.36141e-07
-8.66953e-07
3.55754e-07
-9.53447e-07
3.7395e-07
3.90346e-07
1.32885e-09
-1.36965e-08
3.67888e-09
-3.06629e-08
5.8198e-09
-3.91034e-08
6.8079e-09
-4.04968e-08
5.90932e-09
-3.61025e-08
2.55047e-09
-2.70407e-08
-3.72302e-09
-1.42884e-08
-1.32768e-08
1.31833e-09
-2.64104e-08
1.90808e-08
-4.33741e-08
3.84353e-08
-6.43828e-08
5.89493e-08
-8.96268e-08
8.03141e-08
-1.1928e-07
1.02333e-07
-1.53504e-07
1.24905e-07
-1.92452e-07
1.48e-07
-2.36263e-07
1.71634e-07
-2.85056e-07
1.9584e-07
-3.38925e-07
2.20642e-07
-3.97918e-07
2.46031e-07
-4.62034e-07
2.71942e-07
-5.31202e-07
2.98248e-07
-6.05274e-07
3.24752e-07
-6.84016e-07
3.51189e-07
-7.67101e-07
3.77229e-07
-8.5411e-07
4.02493e-07
-9.44534e-07
4.26565e-07
-1.03778e-06
4.49004e-07
-1.1332e-06
4.69363e-07
4.87205e-07
8.51113e-10
-1.45476e-08
1.89217e-09
-3.1704e-08
2.00253e-09
-3.92138e-08
3.3373e-10
-3.8828e-08
-3.76808e-09
-3.20007e-08
-1.08151e-08
-1.99936e-08
-2.12169e-08
-3.88653e-09
-3.5311e-08
1.54124e-08
-5.33837e-08
3.71534e-08
-7.56843e-08
6.07359e-08
-1.02436e-07
8.5701e-08
-1.33843e-07
1.11721e-07
-1.70095e-07
1.38585e-07
-2.11367e-07
1.66177e-07
-2.5782e-07
1.94452e-07
-3.09589e-07
2.23403e-07
-3.66779e-07
2.53029e-07
-4.29446e-07
2.83309e-07
-4.97588e-07
3.14173e-07
-5.71129e-07
3.45483e-07
-6.49908e-07
3.77026e-07
-7.33667e-07
4.08511e-07
-8.2205e-07
4.39572e-07
-9.14602e-07
4.69781e-07
-1.01077e-06
4.98664e-07
-1.10993e-06
5.25719e-07
-1.21136e-06
5.50435e-07
-1.31431e-06
5.72313e-07
5.90883e-07
2.74275e-10
-1.48219e-08
-2.46906e-10
-3.11828e-08
-2.52678e-09
-3.69339e-08
-7.27994e-09
-3.40748e-08
-1.50508e-08
-2.42298e-08
-2.62671e-08
-8.77736e-09
-4.12799e-08
1.11263e-08
-6.03905e-08
3.4523e-08
-8.38669e-08
6.06298e-08
-1.11954e-07
8.8823e-08
-1.4488e-07
1.18627e-07
-1.82857e-07
1.49698e-07
-2.26084e-07
1.81812e-07
-2.74741e-07
2.14835e-07
-3.28984e-07
2.48695e-07
-3.8893e-07
2.83349e-07
-4.54648e-07
3.18748e-07
-5.26144e-07
3.54805e-07
-6.03341e-07
3.9137e-07
-6.86072e-07
4.28213e-07
-7.74065e-07
4.6502e-07
-8.66944e-07
5.0139e-07
-9.64224e-07
5.36852e-07
-1.06532e-06
5.70878e-07
-1.16956e-06
6.02907e-07
-1.27621e-06
6.32365e-07
-1.38447e-06
6.58691e-07
-1.49351e-06
6.81358e-07
6.99889e-07
-4.02404e-10
-1.44195e-08
-2.72804e-09
-2.88572e-08
-7.73792e-09
-3.19241e-08
-1.59705e-08
-2.58423e-08
-2.78304e-08
-1.23699e-08
-4.36417e-08
7.03401e-09
-6.36847e-08
3.11693e-08
-8.8217e-08
5.90553e-08
-1.17484e-07
8.98969e-08
-1.51723e-07
1.23062e-07
-1.91162e-07
1.58065e-07
-2.36016e-07
1.94553e-07
-2.86486e-07
2.32282e-07
-3.42744e-07
2.71093e-07
-4.04927e-07
3.10877e-07
-4.73117e-07
3.51539e-07
-5.47332e-07
3.92963e-07
-6.27504e-07
4.34977e-07
-7.13467e-07
4.77332e-07
-8.04944e-07
5.19691e-07
-9.01546e-07
5.61622e-07
-1.00277e-06
6.02614e-07
-1.10801e-06
6.4209e-07
-1.21656e-06
6.7943e-07
-1.32765e-06
7.14e-07
-1.44046e-06
7.45176e-07
-1.55415e-06
7.72374e-07
-1.66786e-06
7.95067e-07
8.12803e-07
-1.17713e-09
-1.32423e-08
-5.54198e-09
-2.44923e-08
-1.35977e-08
-2.38684e-08
-2.56677e-08
-1.37722e-08
-4.19884e-08
3.95076e-09
-6.27613e-08
2.78069e-08
-8.81853e-08
5.65933e-08
-1.18469e-07
8.93386e-08
-1.5383e-07
1.25259e-07
-1.94496e-07
1.63728e-07
-2.4069e-07
2.04259e-07
-2.92624e-07
2.46487e-07
-3.50487e-07
2.90145e-07
-4.14432e-07
3.35038e-07
-4.84562e-07
3.81007e-07
-5.60909e-07
4.27886e-07
-6.43418e-07
4.75473e-07
-7.31933e-07
5.23492e-07
-8.26183e-07
5.71582e-07
-9.25774e-07
6.19282e-07
-1.03019e-06
6.66043e-07
-1.13882e-06
7.11241e-07
-1.25093e-06
7.54202e-07
-1.36574e-06
7.94232e-07
-1.48238e-06
8.30645e-07
-1.6e-06
8.62797e-07
-1.71773e-06
8.90105e-07
-1.83474e-06
9.12073e-07
9.283e-07
-2.0489e-09
-1.11934e-08
-8.6733e-09
-1.78679e-08
-2.00641e-08
-1.24775e-08
-3.62891e-08
2.45276e-09
-5.7388e-08
2.50496e-08
-8.34251e-08
5.38441e-08
-1.14508e-07
8.76763e-08
-1.50791e-07
1.25622e-07
-1.92465e-07
1.66932e-07
-2.39739e-07
2.11002e-07
-2.92827e-07
2.57347e-07
-3.51929e-07
3.05589e-07
-4.17214e-07
3.55429e-07
-4.888e-07
4.06625e-07
-5.6674e-07
4.58947e-07
-6.50998e-07
5.12144e-07
-7.41434e-07
5.65908e-07
-8.37788e-07
6.19846e-07
-9.39675e-07
6.73469e-07
-1.04658e-06
7.26191e-07
-1.15788e-06
7.77344e-07
-1.27284e-06
8.26201e-07
-1.39065e-06
8.7201e-07
-1.51044e-06
9.14021e-07
-1.63132e-06
9.51529e-07
-1.75242e-06
9.83891e-07
-1.87287e-06
1.01056e-06
-1.99189e-06
1.03109e-06
1.04516e-06
-3.01341e-09
-8.18002e-09
-1.21004e-08
-8.78093e-09
-2.70833e-08
2.50531e-09
-4.77322e-08
2.31016e-08
-7.38688e-08
5.11863e-08
-1.05403e-07
8.53787e-08
-1.42347e-07
1.24619e-07
-1.84795e-07
1.6807e-07
-2.32907e-07
2.15044e-07
-2.86873e-07
2.64968e-07
-3.4689e-07
3.17364e-07
-4.13136e-07
3.71834e-07
-4.85746e-07
4.2804e-07
-5.64793e-07
4.85672e-07
-6.50263e-07
5.44417e-07
-7.42037e-07
6.03918e-07
-8.39877e-07
6.63748e-07
-9.43412e-07
7.23382e-07
-1.05214e-06
7.82199e-07
-1.16544e-06
8.3949e-07
-1.28257e-06
8.94476e-07
-1.40272e-06
9.46345e-07
-1.52499e-06
9.94285e-07
-1.6485e-06
1.03752e-06
-1.77232e-06
1.07536e-06
-1.89561e-06
1.10717e-06
-2.01753e-06
1.13249e-06
-2.13736e-06
1.15092e-06
1.16223e-06
-4.06379e-09
-4.11623e-09
-1.57935e-08
2.94872e-09
-3.45838e-08
2.12957e-08
-5.98752e-08
4.83931e-08
-9.12439e-08
8.2555e-08
-1.28436e-07
1.22571e-07
-1.71361e-07
1.67544e-07
-2.20053e-07
2.16763e-07
-2.74637e-07
2.69628e-07
-3.35281e-07
3.25611e-07
-4.02155e-07
3.84239e-07
-4.75407e-07
4.45086e-07
-5.55126e-07
5.07759e-07
-6.41323e-07
5.71869e-07
-7.33906e-07
6.37e-07
-8.32663e-07
7.02675e-07
-9.37249e-07
7.68333e-07
-1.04718e-06
8.33314e-07
-1.16185e-06
8.96865e-07
-1.28051e-06
9.58158e-07
-1.40236e-06
1.01632e-06
-1.5265e-06
1.07048e-06
-1.65201e-06
1.11979e-06
-1.77797e-06
1.16348e-06
-1.90349e-06
1.20088e-06
-2.02773e-06
1.23142e-06
-2.14994e-06
1.25469e-06
-2.26942e-06
1.27041e-06
1.2784e-06
-5.18976e-09
1.07352e-09
-1.97107e-08
1.74697e-08
-4.24821e-08
4.4067e-08
-7.25736e-08
7.84846e-08
-1.093e-07
1.19281e-07
-1.52234e-07
1.65506e-07
-2.01178e-07
2.16488e-07
-2.56107e-07
2.71692e-07
-3.17107e-07
3.30628e-07
-3.84314e-07
3.92818e-07
-4.5787e-07
4.57795e-07
-5.37878e-07
5.25094e-07
-6.24372e-07
5.94253e-07
-7.17289e-07
6.64786e-07
-8.16447e-07
7.36158e-07
-9.21533e-07
8.07761e-07
-1.03209e-06
8.78893e-07
-1.14754e-06
9.48756e-07
-1.26714e-06
1.01647e-06
-1.3901e-06
1.08112e-06
-1.51552e-06
1.14174e-06
-1.64246e-06
1.19742e-06
-1.76998e-06
1.24732e-06
-1.89718e-06
1.29068e-06
-2.0232e-06
1.32689e-06
-2.14723e-06
1.35545e-06
-2.26858e-06
1.37604e-06
-2.38661e-06
1.38844e-06
1.39259e-06
-6.37572e-09
7.44924e-09
-2.38055e-08
3.48995e-08
-5.06767e-08
7.09382e-08
-8.56624e-08
1.1347e-07
-1.278e-07
1.61418e-07
-1.76482e-07
2.14188e-07
-2.31403e-07
2.71409e-07
-2.92474e-07
3.32763e-07
-3.5974e-07
3.97894e-07
-4.33304e-07
4.66382e-07
-5.13267e-07
5.37757e-07
-5.99678e-07
6.11506e-07
-6.92505e-07
6.8708e-07
-7.91601e-07
7.63882e-07
-8.96689e-07
8.41247e-07
-1.00735e-06
9.18423e-07
-1.12303e-06
9.94568e-07
-1.24302e-06
1.06875e-06
-1.36654e-06
1.13999e-06
-1.49268e-06
1.20726e-06
-1.62051e-06
1.26957e-06
-1.74907e-06
1.32599e-06
-1.87744e-06
1.37569e-06
-2.00472e-06
1.41796e-06
-2.13008e-06
1.45225e-06
-2.25278e-06
1.47816e-06
-2.37217e-06
1.49543e-06
-2.48767e-06
1.50395e-06
1.50373e-06
-7.60896e-09
1.50582e-08
-2.80207e-08
5.53112e-08
-5.90536e-08
1.01971e-07
-9.89596e-08
1.53376e-07
-1.46487e-07
2.08946e-07
-2.00845e-07
2.68546e-07
-2.61619e-07
3.32183e-07
-3.28655e-07
3.99799e-07
-4.01953e-07
4.71192e-07
-4.81576e-07
5.46006e-07
-5.67576e-07
6.23757e-07
-6.59943e-07
7.03872e-07
-7.58565e-07
7.85702e-07
-8.63208e-07
8.68525e-07
-9.73495e-07
9.51533e-07
-1.0889e-06
1.03383e-06
-1.20878e-06
1.11444e-06
-1.33233e-06
1.1923e-06
-1.45868e-06
1.26634e-06
-1.5869e-06
1.33548e-06
-1.71602e-06
1.39869e-06
-1.84508e-06
1.45505e-06
-1.97316e-06
1.50376e-06
-2.0994e-06
1.5442e-06
-2.22301e-06
1.57587e-06
-2.34331e-06
1.59845e-06
-2.45968e-06
1.6118e-06
-2.57161e-06
1.61587e-06
1.61078e-06
-8.86851e-09
2.39267e-08
-3.22916e-08
7.87343e-08
-6.74872e-08
1.37167e-07
-1.1227e-07
1.98159e-07
-1.65091e-07
2.61767e-07
-2.24977e-07
3.28432e-07
-2.91401e-07
3.98607e-07
-3.64145e-07
4.72542e-07
-4.4316e-07
5.50207e-07
-5.28461e-07
6.31307e-07
-6.20047e-07
7.15342e-07
-7.17836e-07
8.01661e-07
-8.21635e-07
8.89502e-07
-9.31117e-07
9.78006e-07
-1.04581e-06
1.06622e-06
-1.16508e-06
1.15311e-06
-1.28819e-06
1.23755e-06
-1.41429e-06
1.3184e-06
-1.54243e-06
1.39448e-06
-1.67165e-06
1.46469e-06
-1.80096e-06
1.528e-06
-1.92943e-06
1.58351e-06
-2.05615e-06
1.63048e-06
-2.18029e-06
1.66834e-06
-2.30113e-06
1.6967e-06
-2.41801e-06
1.71533e-06
-2.53036e-06
1.72415e-06
-2.63771e-06
1.72322e-06
-1.01326e-08
3.40593e-08
-3.6548e-08
1.0515e-07
-7.58438e-08
1.76462e-07
-1.25388e-07
2.47703e-07
-1.83336e-07
3.19715e-07
-2.48527e-07
3.93623e-07
-3.20326e-07
4.70406e-07
-3.98446e-07
5.50662e-07
-4.82788e-07
6.34549e-07
-5.73314e-07
7.21833e-07
-6.69959e-07
8.11987e-07
-7.72568e-07
9.0427e-07
-8.80861e-07
9.97796e-07
-9.94418e-07
1.09156e-06
-1.11267e-06
1.18447e-06
-1.2349e-06
1.27534e-06
-1.36029e-06
1.36294e-06
-1.48792e-06
1.44603e-06
-1.61682e-06
1.52338e-06
-1.74599e-06
1.59387e-06
-1.87447e-06
1.65648e-06
-2.00131e-06
1.71036e-06
-2.12567e-06
1.75483e-06
-2.24674e-06
1.78942e-06
-2.36383e-06
1.81379e-06
-2.47633e-06
1.82783e-06
-2.58373e-06
1.83155e-06
1.82509e-06
-1.13782e-08
4.54376e-08
-4.07163e-08
1.34488e-07
-8.39857e-08
2.19732e-07
-1.38108e-07
3.01826e-07
-2.00943e-07
3.82549e-07
-2.71148e-07
4.63828e-07
-3.47979e-07
5.47237e-07
-4.31078e-07
6.33762e-07
-5.20292e-07
7.23762e-07
-6.15524e-07
8.17066e-07
-7.16641e-07
9.13105e-07
-8.23412e-07
1.01104e-06
-9.35469e-07
1.10985e-06
-1.0523e-06
1.20839e-06
-1.17324e-06
1.30542e-06
-1.29752e-06
1.39961e-06
-1.42423e-06
1.48965e-06
-1.55241e-06
1.57421e-06
-1.68107e-06
1.65204e-06
-1.80922e-06
1.72201e-06
-1.93588e-06
1.78314e-06
-2.06016e-06
1.83464e-06
-2.18122e-06
1.87589e-06
-2.29831e-06
1.9065e-06
-2.41077e-06
1.92626e-06
-2.51805e-06
1.93511e-06
-2.61967e-06
1.93317e-06
1.92069e-06
-1.25813e-08
5.80188e-08
-4.47214e-08
1.66628e-07
-9.17748e-08
2.66785e-07
-1.50225e-07
3.60276e-07
-2.17643e-07
4.49967e-07
-2.92507e-07
5.38692e-07
-3.73965e-07
6.28696e-07
-4.61589e-07
7.21385e-07
-5.55163e-07
8.17336e-07
-6.5453e-07
9.16433e-07
-7.59486e-07
1.01806e-06
-8.69719e-07
1.12127e-06
-9.84777e-07
1.22491e-06
-1.10406e-06
1.32768e-06
-1.22683e-06
1.42819e-06
-1.35224e-06
1.52502e-06
-1.47934e-06
1.61676e-06
-1.60715e-06
1.70202e-06
-1.73464e-06
1.77954e-06
-1.86084e-06
1.84821e-06
-1.9848e-06
1.9071e-06
-2.10563e-06
1.95547e-06
-2.22255e-06
1.99281e-06
-2.33484e-06
2.0188e-06
-2.4419e-06
2.03332e-06
-2.54322e-06
2.03642e-06
-2.63838e-06
2.02833e-06
2.00939e-06
-1.37175e-08
7.17364e-08
-4.84891e-08
2.01399e-07
-9.90761e-08
3.17372e-07
-1.61542e-07
4.22742e-07
-2.33178e-07
5.21603e-07
-3.1229e-07
6.17805e-07
-3.97919e-07
7.14325e-07
-4.89561e-07
8.13027e-07
-5.86939e-07
9.14713e-07
-6.8983e-07
1.01932e-06
-7.97956e-07
1.12619e-06
-9.10927e-07
1.23424e-06
-1.02821e-06
1.34219e-06
-1.14913e-06
1.44859e-06
-1.27287e-06
1.55194e-06
-1.39854e-06
1.65069e-06
-1.52515e-06
1.74337e-06
-1.65169e-06
1.82856e-06
-1.77715e-06
1.905e-06
-1.90056e-06
1.97162e-06
-2.02099e-06
2.02753e-06
-2.13761e-06
2.07208e-06
-2.24965e-06
2.10485e-06
-2.35645e-06
2.1256e-06
-2.45746e-06
2.13433e-06
-2.55223e-06
2.13119e-06
-2.64041e-06
2.11651e-06
2.09077e-06
-1.47633e-08
8.64997e-08
-5.1948e-08
2.38584e-07
-1.05762e-07
3.71186e-07
-1.71873e-07
4.88853e-07
-2.4731e-07
5.9704e-07
-3.30211e-07
7.00706e-07
-4.19509e-07
8.03623e-07
-5.14626e-07
9.08144e-07
-6.15216e-07
1.0153e-06
-7.2099e-07
1.1251e-06
-8.31597e-07
1.23679e-06
-9.46571e-07
1.34922e-06
-1.0653e-06
1.46092e-06
-1.18705e-06
1.57034e-06
-1.31094e-06
1.67583e-06
-1.43603e-06
1.77578e-06
-1.56132e-06
1.86866e-06
-1.68579e-06
1.95302e-06
-1.80843e-06
2.02765e-06
-1.92829e-06
2.09148e-06
-2.04449e-06
2.14372e-06
-2.15621e-06
2.1838e-06
-2.26275e-06
2.21138e-06
-2.36349e-06
2.22635e-06
-2.45795e-06
2.22879e-06
-2.54575e-06
2.21898e-06
-2.62662e-06
2.19738e-06
2.16458e-06
-1.56965e-08
1.02196e-07
-5.50317e-08
2.77919e-07
-1.11714e-07
4.27868e-07
-1.81051e-07
5.5819e-07
-2.59825e-07
6.75814e-07
-3.46015e-07
7.86896e-07
-4.38447e-07
8.96054e-07
-5.36462e-07
1.00616e-06
-6.3965e-07
1.11849e-06
-7.47649e-07
1.2331e-06
-8.60041e-07
1.34919e-06
-9.76284e-07
1.46546e-06
-1.0957e-06
1.58034e-06
-1.2175e-06
1.69213e-06
-1.34075e-06
1.79908e-06
-1.46449e-06
1.89952e-06
-1.5877e-06
1.99186e-06
-1.70935e-06
2.07468e-06
-1.82848e-06
2.14677e-06
-1.94414e-06
2.20714e-06
-2.05548e-06
2.25507e-06
-2.16176e-06
2.29008e-06
-2.2623e-06
2.31193e-06
-2.35657e-06
2.32062e-06
-2.44414e-06
2.31636e-06
-2.52472e-06
2.29956e-06
-2.59813e-06
2.2708e-06
2.2308e-06
-1.64966e-08
1.18693e-07
-5.76805e-08
3.19103e-07
-1.16828e-07
4.87016e-07
-1.88929e-07
6.3029e-07
-2.70539e-07
7.57424e-07
-3.59484e-07
8.75841e-07
-4.54487e-07
9.91057e-07
-5.54807e-07
1.10648e-06
-6.59963e-07
1.22365e-06
-7.69526e-07
1.34266e-06
-8.83008e-07
1.46267e-06
-9.99804e-07
1.58226e-06
-1.11918e-06
1.69972e-06
-1.24028e-06
1.81323e-06
-1.36216e-06
1.92097e-06
-1.48383e-06
2.02119e-06
-1.60427e-06
2.1123e-06
-1.72246e-06
2.19288e-06
-1.83746e-06
2.26177e-06
-1.94837e-06
2.31805e-06
-2.05437e-06
2.36108e-06
-2.15477e-06
2.39048e-06
-2.24896e-06
2.40612e-06
-2.33649e-06
2.40814e-06
-2.41699e-06
2.39687e-06
-2.49028e-06
2.37285e-06
-2.55629e-06
2.3368e-06
2.28959e-06
-1.71462e-08
1.35839e-07
-5.98428e-08
3.618e-07
-1.21016e-07
5.48189e-07
-1.95381e-07
7.04656e-07
-2.79296e-07
8.41339e-07
-3.70442e-07
9.66987e-07
-4.67435e-07
1.08805e-06
-5.69454e-07
1.2085e-06
-6.75946e-07
1.33014e-06
-7.86416e-07
1.45313e-06
-9.0031e-07
1.57656e-06
-1.01697e-06
1.69891e-06
-1.1356e-06
1.81835e-06
-1.25532e-06
1.93295e-06
-1.37516e-06
2.04081e-06
-1.49411e-06
2.14015e-06
-1.61117e-06
2.22935e-06
-1.72535e-06
2.30705e-06
-1.83571e-06
2.37213e-06
-1.94142e-06
2.42375e-06
-2.0417e-06
2.46136e-06
-2.13592e-06
2.4847e-06
-2.22356e-06
2.49376e-06
-2.30421e-06
2.4888e-06
-2.37764e-06
2.4703e-06
-2.44374e-06
2.43895e-06
-2.50255e-06
2.39561e-06
2.34127e-06
-1.76308e-08
1.5347e-07
-6.14767e-08
4.05646e-07
-1.24203e-07
6.10915e-07
-2.00308e-07
7.80761e-07
-2.85975e-07
9.27006e-07
-3.7875e-07
1.05976e-06
-4.77145e-07
1.18644e-06
-5.80257e-07
1.31161e-06
-6.87459e-07
1.43734e-06
-7.98191e-07
1.56386e-06
-9.11844e-07
1.69022e-06
-1.0277e-06
1.81477e-06
-1.14494e-06
1.93559e-06
-1.26265e-06
2.05065e-06
-1.37984e-06
2.158e-06
-1.49551e-06
2.25582e-06
-1.60867e-06
2.34251e-06
-1.71836e-06
2.41674e-06
-1.82369e-06
2.47746e-06
-1.92386e-06
2.52392e-06
-2.01817e-06
2.55567e-06
-2.10604e-06
2.57257e-06
-2.18704e-06
2.57475e-06
-2.26086e-06
2.56262e-06
-2.32735e-06
2.53679e-06
-2.3865e-06
2.4981e-06
-2.43846e-06
2.44757e-06
2.38632e-06
-1.79394e-08
1.71409e-07
-6.255e-08
4.50256e-07
-1.26336e-07
6.74702e-07
-2.03637e-07
8.58062e-07
-2.90489e-07
1.01386e-06
-3.84314e-07
1.15359e-06
-4.83523e-07
1.28565e-06
-5.87125e-07
1.41521e-06
-6.94425e-07
1.54464e-06
-8.04801e-07
1.67424e-06
-9.17591e-07
1.80301e-06
-1.03204e-06
1.92922e-06
-1.14729e-06
2.05084e-06
-1.2624e-06
2.16577e-06
-1.37641e-06
2.27201e-06
-1.48831e-06
2.36772e-06
-1.59714e-06
2.45134e-06
-1.70197e-06
2.52157e-06
-1.80196e-06
2.57745e-06
-1.89637e-06
2.61833e-06
-1.98457e-06
2.64387e-06
-2.06605e-06
2.65405e-06
-2.14046e-06
2.64917e-06
-2.2076e-06
2.62975e-06
-2.26741e-06
2.5966e-06
-2.31999e-06
2.55068e-06
-2.36558e-06
2.49316e-06
2.42529e-06
-1.80645e-08
1.89474e-07
-6.30415e-08
4.95233e-07
-1.2738e-07
7.3904e-07
-2.05321e-07
9.36003e-07
-2.92785e-07
1.10132e-06
-3.87081e-07
1.24788e-06
-4.8652e-07
1.38509e-06
-5.90027e-07
1.51872e-06
-6.96833e-07
1.65145e-06
-8.06263e-07
1.78367e-06
-9.17606e-07
1.91435e-06
-1.03007e-06
2.04169e-06
-1.14279e-06
2.16356e-06
-1.25481e-06
2.2778e-06
-1.36517e-06
2.38237e-06
-1.4729e-06
2.47544e-06
-1.57704e-06
2.55549e-06
-1.67674e-06
2.62127e-06
-1.7712e-06
2.67191e-06
-1.85973e-06
2.70686e-06
-1.94178e-06
2.72592e-06
-2.01694e-06
2.72921e-06
-2.08493e-06
2.71716e-06
-2.14566e-06
2.69048e-06
-2.19916e-06
2.6501e-06
-2.24563e-06
2.59716e-06
-2.28541e-06
2.53294e-06
2.45882e-06
-1.80027e-08
2.07476e-07
-6.29406e-08
5.40171e-07
-1.27315e-07
8.03415e-07
-2.05336e-07
1.01402e-06
-2.92841e-07
1.18883e-06
-3.87037e-07
1.34208e-06
-4.86136e-07
1.48419e-06
-5.88979e-07
1.62157e-06
-6.9473e-07
1.7572e-06
-8.02658e-07
1.89159e-06
-9.12015e-07
2.02371e-06
-1.02199e-06
2.15166e-06
-1.13169e-06
2.27326e-06
-1.24018e-06
2.38629e-06
-1.34651e-06
2.48869e-06
-1.44972e-06
2.57866e-06
-1.54893e-06
2.65469e-06
-1.64331e-06
2.71564e-06
-1.73212e-06
2.76072e-06
-1.81475e-06
2.78949e-06
-1.89073e-06
2.8019e-06
-1.95973e-06
2.79821e-06
-2.02157e-06
2.779e-06
-2.07624e-06
2.74515e-06
-2.12388e-06
2.69774e-06
-2.16478e-06
2.63805e-06
-2.19934e-06
2.56751e-06
2.48757e-06
-1.77539e-08
2.2523e-07
-6.2247e-08
5.84664e-07
-1.26144e-07
8.67311e-07
-2.03688e-07
1.09157e-06
-2.90667e-07
1.27581e-06
-3.84203e-07
1.43561e-06
-4.82411e-07
1.5824e-06
-5.8405e-07
1.7232e-06
-6.88215e-07
1.86136e-06
-7.94126e-07
1.99751e-06
-9.01005e-07
2.13058e-06
-1.00802e-06
2.25867e-06
-1.11428e-06
2.37952e-06
-1.21887e-06
2.49087e-06
-1.32085e-06
2.59067e-06
-1.41931e-06
2.67712e-06
-1.5134e-06
2.74878e-06
-1.60235e-06
2.80459e-06
-1.68549e-06
2.84387e-06
-1.7623e-06
2.8663e-06
-1.83236e-06
2.87197e-06
-1.89545e-06
2.8613e-06
-1.95147e-06
2.83503e-06
-2.00051e-06
2.79419e-06
-2.0428e-06
2.74002e-06
-2.07869e-06
2.67395e-06
-2.10867e-06
2.59749e-06
2.51221e-06
-1.73219e-08
2.42552e-07
-6.09704e-08
6.28313e-07
-1.23881e-07
9.30222e-07
-2.00401e-07
1.16809e-06
-2.86304e-07
1.36171e-06
-3.78637e-07
1.52795e-06
-4.75427e-07
1.67919e-06
-5.75348e-07
1.82312e-06
-6.77432e-07
1.96345e-06
-7.80854e-07
2.10093e-06
-8.84811e-07
2.23454e-06
-9.88463e-07
2.36232e-06
-1.09093e-06
2.48199e-06
-1.1913e-06
2.59125e-06
-1.28869e-06
2.68805e-06
-1.38221e-06
2.77064e-06
-1.47108e-06
2.83765e-06
-1.55458e-06
2.88809e-06
-1.63212e-06
2.9214e-06
-1.70323e-06
2.93741e-06
-1.76761e-06
2.93635e-06
-1.8251e-06
2.91878e-06
-1.8757e-06
2.88563e-06
-1.91958e-06
2.83806e-06
-1.95704e-06
2.77748e-06
-1.98851e-06
2.70542e-06
-2.01453e-06
2.62351e-06
2.53338e-06
-1.67135e-08
2.59266e-07
-5.91298e-08
6.70729e-07
-1.20561e-07
9.91654e-07
-1.95523e-07
1.24305e-06
-2.79815e-07
1.446e-06
-3.70425e-07
1.61856e-06
-4.65296e-07
1.77406e-06
-5.6302e-07
1.92085e-06
-6.62567e-07
2.06299e-06
-7.63073e-07
2.20143e-06
-8.63714e-07
2.33518e-06
-9.63652e-07
2.46226e-06
-1.06202e-06
2.58035e-06
-1.15794e-06
2.68717e-06
-1.25054e-06
2.78066e-06
-1.33902e-06
2.85912e-06
-1.42263e-06
2.92126e-06
-1.50072e-06
2.96618e-06
-1.57277e-06
2.99346e-06
-1.6384e-06
3.00304e-06
-1.69738e-06
2.99532e-06
-1.74963e-06
2.97103e-06
-1.79523e-06
2.93124e-06
-1.83444e-06
2.87727e-06
-1.86761e-06
2.81065e-06
-1.89524e-06
2.73305e-06
-1.91789e-06
2.64616e-06
2.55168e-06
-1.59387e-08
2.75204e-07
-5.67523e-08
7.11543e-07
-1.16229e-07
1.05113e-06
-1.89122e-07
1.31594e-06
-2.71289e-07
1.52817e-06
-3.59681e-07
1.70695e-06
-4.52161e-07
1.86654e-06
-5.47244e-07
2.01593e-06
-6.43838e-07
2.15959e-06
-7.41043e-07
2.29864e-06
-8.38026e-07
2.43216e-06
-9.33951e-07
2.55819e-06
-1.02797e-06
2.67438e-06
-1.11925e-06
2.77844e-06
-1.20696e-06
2.86837e-06
-1.29034e-06
2.9425e-06
-1.36871e-06
2.99963e-06
-1.44149e-06
3.03896e-06
-1.50823e-06
3.0602e-06
-1.56862e-06
3.06344e-06
-1.62252e-06
3.04922e-06
-1.66991e-06
3.01843e-06
-1.71098e-06
2.9723e-06
-1.746e-06
2.91229e-06
-1.77541e-06
2.84006e-06
-1.79974e-06
2.75737e-06
-1.81957e-06
2.66599e-06
2.56765e-06
-1.50096e-08
2.90214e-07
-5.38723e-08
7.50406e-07
-1.10944e-07
1.1082e-06
-1.81278e-07
1.38628e-06
-2.60833e-07
1.60772e-06
-3.4654e-07
1.79266e-06
-4.3619e-07
1.95619e-06
-5.28222e-07
2.10796e-06
-6.21487e-07
2.25285e-06
-7.15055e-07
2.39221e-06
-8.08082e-07
2.52519e-06
-8.99746e-07
2.64985e-06
-9.89231e-07
2.76386e-06
-1.07573e-06
2.86494e-06
-1.15848e-06
2.95111e-06
-1.23676e-06
3.02079e-06
-1.30996e-06
3.07283e-06
-1.37757e-06
3.10658e-06
-1.43922e-06
3.12184e-06
-1.49466e-06
3.11888e-06
-1.54382e-06
3.09838e-06
-1.58677e-06
3.06138e-06
-1.62373e-06
3.00926e-06
-1.65505e-06
2.94362e-06
-1.68121e-06
2.86622e-06
-1.70274e-06
2.77891e-06
-1.72026e-06
2.68351e-06
2.58177e-06
-1.39408e-08
3.04155e-07
-5.05303e-08
7.86995e-07
-1.04775e-07
1.16245e-06
-1.72089e-07
1.45359e-06
-2.48572e-07
1.68421e-06
-3.31155e-07
1.87524e-06
-4.17568e-07
2.0426e-06
-5.06177e-07
2.19657e-06
-5.95779e-07
2.34245e-06
-6.85414e-07
2.48184e-06
-7.74235e-07
2.61401e-06
-8.61438e-07
2.73706e-06
-9.4624e-07
2.84866e-06
-1.02788e-06
2.94658e-06
-1.10564e-06
3.02887e-06
-1.17887e-06
3.09402e-06
-1.24702e-06
3.14097e-06
-1.30964e-06
3.1692e-06
-1.36643e-06
3.17863e-06
-1.41722e-06
3.16967e-06
-1.462e-06
3.14316e-06
-1.5009e-06
3.10028e-06
-1.5342e-06
3.04256e-06
-1.56228e-06
2.9717e-06
-1.58564e-06
2.88958e-06
-1.60484e-06
2.79811e-06
-1.62048e-06
2.69914e-06
2.59446e-06
-1.27485e-08
3.16903e-07
-4.67715e-08
8.21018e-07
-9.77981e-08
1.21347e-06
-1.61663e-07
1.51745e-06
-2.34644e-07
1.75719e-06
-3.13696e-07
1.95429e-06
-3.96497e-07
2.1254e-06
-4.81348e-07
2.28142e-06
-5.66989e-07
2.4281e-06
-6.52437e-07
2.56729e-06
-7.36844e-07
2.69842e-06
-8.1943e-07
2.81964e-06
-8.99446e-07
2.92868e-06
-9.7618e-07
3.02332e-06
-1.04897e-06
3.10166e-06
-1.11723e-06
3.16228e-06
-1.18046e-06
3.20421e-06
-1.2383e-06
3.22704e-06
-1.2905e-06
3.23083e-06
-1.33695e-06
3.21613e-06
-1.37771e-06
3.18391e-06
-1.41295e-06
3.13553e-06
-1.44299e-06
3.0726e-06
-1.46826e-06
2.99696e-06
-1.48924e-06
2.91057e-06
-1.50651e-06
2.81538e-06
-1.52066e-06
2.71329e-06
2.60606e-06
-1.14498e-08
3.28353e-07
-4.26451e-08
8.52213e-07
-9.00978e-08
1.26093e-06
-1.50116e-07
1.57747e-06
-2.19196e-07
1.82627e-06
-2.9434e-07
2.02944e-06
-3.73189e-07
2.20425e-06
-4.53979e-07
2.36221e-06
-5.35401e-07
2.50952e-06
-6.16446e-07
2.64833e-06
-6.96272e-07
2.77824e-06
-7.74122e-07
2.89749e-06
-8.49288e-07
3.00385e-06
-9.21109e-07
3.09514e-06
-9.88979e-07
3.16953e-06
-1.05237e-06
3.22567e-06
-1.11086e-06
3.2627e-06
-1.16413e-06
3.28031e-06
-1.212e-06
3.2787e-06
-1.25443e-06
3.25856e-06
-1.29151e-06
3.22099e-06
-1.32346e-06
3.16748e-06
-1.35063e-06
3.09977e-06
-1.37346e-06
3.01979e-06
-1.39244e-06
2.92955e-06
-1.40813e-06
2.83107e-06
-1.4211e-06
2.72625e-06
2.61685e-06
-1.00628e-08
3.38416e-07
-3.82029e-08
8.80353e-07
-8.17623e-08
1.30449e-06
-1.37572e-07
1.63328e-06
-2.02383e-07
1.89108e-06
-2.73275e-07
2.10033e-06
-3.47862e-07
2.27884e-06
-4.24323e-07
2.43867e-06
-5.01301e-07
2.5865e-06
-5.77765e-07
2.7248e-06
-6.52876e-07
2.85336e-06
-7.25906e-07
2.97052e-06
-7.96189e-07
3.07413e-06
-8.63117e-07
3.16207e-06
-9.26143e-07
3.23256e-06
-9.848e-07
3.28433e-06
-1.03872e-06
3.31662e-06
-1.08765e-06
3.32924e-06
-1.13147e-06
3.32251e-06
-1.17017e-06
3.29726e-06
-1.20389e-06
3.25472e-06
-1.2329e-06
3.19648e-06
-1.25754e-06
3.12441e-06
-1.27826e-06
3.04051e-06
-1.29556e-06
2.94685e-06
-1.30997e-06
2.84548e-06
-1.32202e-06
2.73831e-06
2.62706e-06
-8.60598e-09
3.47022e-07
-3.34981e-08
9.05246e-07
-7.28835e-08
1.34387e-06
-1.24157e-07
1.68456e-06
-1.84367e-07
1.95129e-06
-2.50692e-07
2.16665e-06
-3.20737e-07
2.34889e-06
-3.92632e-07
2.51057e-06
-4.64974e-07
2.65884e-06
-5.36709e-07
2.79653e-06
-6.07004e-07
2.92365e-06
-6.7516e-07
3.03868e-06
-7.40556e-07
3.13953e-06
-8.02635e-07
3.22414e-06
-8.60908e-07
3.29083e-06
-9.14968e-07
3.33839e-06
-9.64506e-07
3.36616e-06
-1.00932e-06
3.37405e-06
-1.04934e-06
3.36253e-06
-1.0846e-06
3.33252e-06
-1.11528e-06
3.28539e-06
-1.14164e-06
3.22285e-06
-1.16406e-06
3.14683e-06
-1.18298e-06
3.05942e-06
-1.19886e-06
2.96274e-06
-1.21223e-06
2.85885e-06
-1.22358e-06
2.74965e-06
2.63685e-06
-7.09774e-09
-2.85849e-08
-6.35547e-08
1.37884e-06
-1.10003e-07
1.731e-06
-1.6531e-07
2.00659e-06
-2.26783e-07
2.22813e-06
-2.92037e-07
2.41414e-06
-3.59158e-07
2.57769e-06
-4.267e-07
2.72638e-06
-4.93588e-07
2.86342e-06
-5.58994e-07
2.98906e-06
-6.22247e-07