/*--------------------------------*- C++ -*----------------------------------*\
  =========                 |
  \\      /  F ield         | OpenFOAM: The Open Source CFD Toolbox
   \\    /   O peration     | Website:  https://openfoam.org
    \\  /    A nd           | Version:  9
     \\/     M anipulation  |
\*---------------------------------------------------------------------------*/
FoamFile
{
    format      ascii;
    class       volVectorField;
    location    "3.25";
    object      U;
}
// * * * * * * * * * * * * * * * * * * * * * * * * * * * * * * * * * * * * * //

dimensions      [0 1 -1 0 0 0 0];

internalField   nonuniform List<vector> 
1250
(
(-8.38009e-06 8.24178e-06 0)
(3.17947e-05 -2.25067e-05 0)
(0.000160712 -5.02362e-05 0)
(0.000339588 -6.56618e-05 0)
(0.000543218 -7.12621e-05 0)
(0.000750832 -7.00679e-05 0)
(0.00094671 -6.44558e-05 0)
(0.00112014 -5.62093e-05 0)
(0.00126443 -4.66159e-05 0)
(0.00137593 -3.65843e-05 0)
(0.00145322 -2.67305e-05 0)
(0.00149642 -1.74361e-05 0)
(0.0015066 -8.90162e-06 0)
(0.00148527 -1.14528e-06 0)
(0.00143398 5.91815e-06 0)
(0.00135395 1.24638e-05 0)
(0.0012459 1.87238e-05 0)
(0.00110991 2.49556e-05 0)
(0.000945347 3.14156e-05 0)
(0.000750905 3.83376e-05 0)
(0.000524711 4.59169e-05 0)
(0.000264432 5.4311e-05 0)
(-3.25726e-05 6.3624e-05 0)
(-0.000369094 7.39159e-05 0)
(-0.00074793 8.52062e-05 0)
(-0.00117174 9.74773e-05 0)
(-0.00164291 0.000110678 0)
(-0.00216346 0.000124728 0)
(-0.00273491 0.000139516 0)
(2.22913e-05 -3.1722e-05 0)
(0.000174031 -0.000174156 0)
(0.00049411 -0.000290564 0)
(0.00090836 -0.000358661 0)
(0.00136697 -0.000383951 0)
(0.00182936 -0.000375883 0)
(0.0022617 -0.000343564 0)
(0.00263858 -0.000294847 0)
(0.00294251 -0.000236057 0)
(0.00316245 -0.000172059 0)
(0.00329244 -0.000106395 0)
(0.00333019 -4.14402e-05 0)
(0.00327589 2.14734e-05 0)
(0.00313099 8.18343e-05 0)
(0.00289724 0.000139852 0)
(0.00257599 0.00019625 0)
(0.00216764 0.000252093 0)
(0.0016713 0.000308612 0)
(0.00108465 0.000367058 0)
(0.000404039 0.000428575 0)
(-0.00037533 0.000494111 0)
(-0.00125912 0.000564356 0)
(-0.00225347 0.000639716 0)
(-0.00336463 0.000720306 0)
(-0.00459851 0.000805962 0)
(-0.00596037 0.000896262 0)
(-0.00745442 0.000990545 0)
(-0.0090835 0.00108792 0)
(-0.0108488 0.0011873 0)
(5.02878e-05 -0.00016037 0)
(0.000291839 -0.000494437 0)
(0.000748281 -0.000745569 0)
(0.00131387 -0.000891974 0)
(0.00192296 -0.000942728 0)
(0.00252436 -0.000914958 0)
(0.00307404 -0.00082713 0)
(0.00353746 -0.000696376 0)
(0.00388959 -0.000537308 0)
(0.00411347 -0.000361654 0)
(0.0041987 -0.000178266 0)
(0.00413977 6.71734e-06 0)
(0.00393449 0.000189629 0)
(0.00358253 0.000368872 0)
(0.00308423 0.000544621 0)
(0.00243951 0.000718356 0)
(0.00164722 0.000892426 0)
(0.000704697 0.00106962 0)
(-0.000392387 0.0012528 0)
(-0.00164992 0.00144455 0)
(-0.00307503 0.00164693 0)
(-0.00467565 0.00186135 0)
(-0.00645996 0.00208843 0)
(-0.00843576 0.00232799 0)
(-0.0106099 0.0025791 0)
(-0.0129877 0.00284007 0)
(-0.0155724 0.00310852 0)
(-0.0183646 0.00338146 0)
(-0.0213619 0.0036553 0)
(6.67139e-05 -0.000340595 0)
(0.000363965 -0.000911766 0)
(0.000902604 -0.00131285 0)
(0.00154893 -0.00153649 0)
(0.00222477 -0.00160087 0)
(0.00287204 -0.00153301 0)
(0.00344075 -0.00136185 0)
(0.00389098 -0.00111471 0)
(0.00419288 -0.000815418 0)
(0.00432526 -0.000483524 0)
(0.00427394 -0.00013405 0)
(0.00403016 0.00022238 0)
(0.00358884 0.0005792 0)
(0.00294702 0.000933441 0)
(0.00210261 0.00128507 0)
(0.00105316 0.00163629 0)
(-0.000204775 0.00199079 0)
(-0.00167614 0.002353 0)
(-0.00336743 0.00272741 0)
(-0.00528652 0.00311799 0)
(-0.00744221 0.00352776 0)
(-0.00984359 0.00395845 0)
(-0.0124994 0.00441035 0)
(-0.015417 0.00488227 0)
(-0.0186021 0.00537154 0)
(-0.0220572 0.0058741 0)
(-0.0257819 0.00638457 0)
(-0.0297715 0.00689644 0)
(-0.0340167 0.00740212 0)
(7.40653e-05 -0.00054867 0)
(0.000395356 -0.00137821 0)
(0.000963778 -0.00192804 0)
(0.00162619 -0.00221454 0)
(0.00229495 -0.00227054 0)
(0.00290712 -0.00213553 0)
(0.00340917 -0.00184999 0)
(0.00375816 -0.0014518 0)
(0.0039214 -0.000974157 0)
(0.00387479 -0.000444527 0)
(0.00360123 0.000115762 0)
(0.00308896 0.000691464 0)
(0.00232989 0.00127303 0)
(0.0013181 0.00185596 0)
(4.85264e-05 0.00243993 0)
(-0.00148411 0.00302777 0)
(-0.00328596 0.00362434 0)
(-0.00536438 0.00423551 0)
(-0.00772788 0.00486709 0)
(-0.0103858 0.00552395 0)
(-0.0133477 0.00620944 0)
(-0.0166226 0.00692484 0)
(-0.0202178 0.00766916 0)
(-0.0241385 0.00843904 0)
(-0.0283864 0.00922881 0)
(-0.0329589 0.0100306 0)
(-0.0378487 0.0108347 0)
(-0.0430428 0.0116293 0)
(-0.0485223 0.0124016 0)
(7.50462e-05 -0.000764742 0)
(0.000393472 -0.0018531 0)
(0.000943577 -0.00253786 0)
(0.00156266 -0.00286376 0)
(0.00215732 -0.00288223 0)
(0.00266151 -0.00264763 0)
(0.00301998 -0.00221296 0)
(0.00318843 -0.00162691 0)
(0.00313269 -0.000931936 0)
(0.00282683 -0.000163169 0)
(0.00225152 0.000652019 0)
(0.00139239 0.00149398 0)
(0.00023846 0.00235031 0)
(-0.00121924 0.00321504 0)
(-0.00298888 0.00408752 0)
(-0.00507871 0.00497101 0)
(-0.00749756 0.00587131 0)
(-0.010255 0.00679521 0)
(-0.013361 0.00774921 0)
(-0.0168255 0.00873831 0)
(-0.0206576 0.00976512 0)
(-0.0248644 0.0108293 0)
(-0.0294502 0.0119272 0)
(-0.0344153 0.013052 0)
(-0.0397549 0.0141932 0)
(-0.0454586 0.0153379 0)
(-0.0515095 0.01647 0)
(-0.0578837 0.0175717 0)
(-0.0645502 0.0186229 0)
(7.14394e-05 -0.000972634 0)
(0.00036432 -0.00229928 0)
(0.000852884 -0.00309163 0)
(0.00137421 -0.00342429 0)
(0.00183311 -0.00336965 0)
(0.00216256 -0.00299842 0)
(0.00230722 -0.0023768 0)
(0.00222279 -0.00156431 0)
(0.00187469 -0.000612281 0)
(0.001236 0.00043699 0)
(0.000285727 0.00155061 0)
(-0.000992745 0.00270496 0)
(-0.00261305 0.00388511 0)
(-0.0045871 0.00508377 0)
(-0.00692603 0.00629989 0)
(-0.00964086 0.00753695 0)
(-0.0127427 0.00880115 0)
(-0.0162427 0.0100995 0)
(-0.0201515 0.0114383 0)
(-0.0244782 0.0128214 0)
(-0.0292299 0.0142493 0)
(-0.0344099 0.0157186 0)
(-0.040017 0.0172213 0)
(-0.0460443 0.0187451 0)
(-0.0524781 0.0202737 0)
(-0.0592976 0.0217868 0)
(-0.066474 0.0232613 0)
(-0.0739707 0.0246716 0)
(-0.0817434 0.0259902 0)
(6.42728e-05 -0.00115925 0)
(0.000311997 -0.00268396 0)
(0.000700008 -0.00354283 0)
(0.00107351 -0.00384043 0)
(0.00133963 -0.00367091 0)
(0.00143265 -0.00312197 0)
(0.0012989 -0.00227308 0)
(0.000895353 -0.00119416 0)
(0.000187931 5.52003e-05 0)
(-0.000850659 0.00142627 0)
(-0.0022426 0.00288134 0)
(-0.00400638 0.00439341 0)
(-0.00615804 0.00594538 0)
(-0.0087121 0.0075288 0)
(-0.0116823 0.0091421 0)
(-0.015082 0.0107886 0)
(-0.0189237 0.0124741 0)
(-0.0232193 0.014205 0)
(-0.0279785 0.0159859 0)
(-0.0332082 0.0178181 0)
(-0.0389115 0.0196983 0)
(-0.0450856 0.0216181 0)
(-0.0517217 0.0235634 0)
(-0.0588031 0.0255149 0)
(-0.0663053 0.0274485 0)
(-0.0741949 0.0293357 0)
(-0.0824302 0.031145 0)
(-0.090961 0.0328427 0)
(-0.0997296 0.0343939 0)
(5.40265e-05 -0.00131338 0)
(0.000238901 -0.00297774 0)
(0.000490541 -0.00384896 0)
(0.000669851 -0.00406077 0)
(0.00069027 -0.0037289 0)
(0.000489851 -0.00295767 0)
(1.83753e-05 -0.00183915 0)
(-0.000764674 -0.000452849 0)
(-0.00189209 0.00113436 0)
(-0.00339098 0.00286828 0)
(-0.00528434 0.0047072 0)
(-0.0075922 0.00662134 0)
(-0.0103326 0.00859184 0)
(-0.0135224 0.0106091 0)
(-0.0171771 0.0126708 0)
(-0.0213116 0.0147795 0)
(-0.025939 0.0169397 0)
(-0.0310702 0.0191556 0)
(-0.0367125 0.0214287 0)
(-0.0428689 0.0237559 0)
(-0.0495358 0.0261283 0)
(-0.0567026 0.0285304 0)
(-0.0643504 0.0309405 0)
(-0.0724512 0.0333304 0)
(-0.0809678 0.035667 0)
(-0.0898535 0.0379131 0)
(-0.0990533 0.0400285 0)
(-0.108504 0.0419717 0)
(-0.118137 0.0437013 0)
(4.0839e-05 -0.00142468 0)
(0.00014623 -0.00315348 0)
(0.000227981 -0.00397054 0)
(0.000169844 -0.00403759 0)
(-0.000104508 -0.00349081 0)
(-0.000650807 -0.00244981 0)
(-0.00151401 -0.00101796 0)
(-0.00273098 0.000717062 0)
(-0.00433249 0.00268242 0)
(-0.00634504 0.00481957 0)
(-0.00879207 0.00708373 0)
(-0.0116948 0.00944294 0)
(-0.0150729 0.0118768 0)
(-0.0189447 0.0143746 0)
(-0.023327 0.0169327 0)
(-0.0282348 0.0195518 0)
(-0.0336805 0.0222341 0)
(-0.0396725 0.0249801 0)
(-0.0462138 0.0277861 0)
(-0.0533009 0.0306428 0)
(-0.0609222 0.0335335 0)
(-0.0690568 0.0364342 0)
(-0.0776742 0.0393134 0)
(-0.0867338 0.0421334 0)
(-0.0961851 0.0448516 0)
(-0.105969 0.0474217 0)
(-0.116017 0.0497956 0)
(-0.126256 0.0519256 0)
(-0.136608 0.0537656 0)
(2.46786e-05 -0.00148318 0)
(3.45015e-05 -0.00318536 0)
(-8.54446e-05 -0.00387049 0)
(-0.00042153 -0.00372648 0)
(-0.00103594 -0.00290795 0)
(-0.00197582 -0.00154768 0)
(-0.00327919 0.00024182 0)
(-0.00497819 0.00236662 0)
(-0.00710095 0.0047496 0)
(-0.00967297 0.00732918 0)
(-0.0127178 0.0100584 0)
(-0.0162574 0.0129037 0)
(-0.0203126 0.0158432 0)
(-0.0249023 0.0188647 0)
(-0.0300435 0.0219626 0)
(-0.0357503 0.0251347 0)
(-0.0420324 0.028379 0)
(-0.0488939 0.0316905 0)
(-0.0563314 0.0350587 0)
(-0.0643333 0.0384657 0)
(-0.0728777 0.0418855 0)
(-0.0819322 0.0452836 0)
(-0.0914538 0.0486184 0)
(-0.101389 0.0518418 0)
(-0.111674 0.0549018 0)
(-0.122238 0.0577442 0)
(-0.133004 0.0603146 0)
(-0.143891 0.0625611 0)
(-0.154814 0.0644357 0)
(5.46178e-06 -0.00147896 0)
(-9.60679e-05 -0.00304863 0)
(-0.000448039 -0.00351385 0)
(-0.00109978 -0.00308625 0)
(-0.00209561 -0.00193595 0)
(-0.00347177 -0.000205835 0)
(-0.00525782 0.00198539 0)
(-0.00748019 0.00454002 0)
(-0.0101639 0.0073786 0)
(-0.0133331 0.010438 0)
(-0.017011 0.0136699 0)
(-0.0212201 0.0170395 0)
(-0.0259813 0.0205235 0)
(-0.0313135 0.0241074 0)
(-0.0372324 0.0277825 0)
(-0.0437494 0.0315425 0)
(-0.0508701 0.0353793 0)
(-0.0585923 0.0392807 0)
(-0.0669044 0.043227 0)
(-0.0757848 0.0471903 0)
(-0.0852001 0.0511334 0)
(-0.0951056 0.0550109 0)
(-0.105446 0.0587701 0)
(-0.116154 0.0623533 0)
(-0.127157 0.0657003 0)
(-0.138374 0.0687505 0)
(-0.14972 0.0714459 0)
(-0.161111 0.073733 0)
(-0.172463 0.0755649 0)
(-1.69737e-05 -0.0014021 0)
(-0.000245248 -0.00271939 0)
(-0.000857906 -0.00286776 0)
(-0.00186008 -0.00207918 0)
(-0.00327442 -0.000535153 0)
(-0.00512412 0.00161546 0)
(-0.0074289 0.00425135 0)
(-0.0102088 0.00727408 0)
(-0.0134852 0.0106041 0)
(-0.0172806 0.0141781 0)
(-0.0216177 0.0179474 0)
(-0.0265186 0.0218759 0)
(-0.0320037 0.0259385 0)
(-0.0380905 0.0301177 0)
(-0.0447922 0.0344005 0)
(-0.052116 0.0387742 0)
(-0.0600612 0.0432234 0)
(-0.0686176 0.0477262 0)
(-0.0777641 0.0522524 0)
(-0.0874676 0.0567622 0)
(-0.0976827 0.0612068 0)
(-0.108352 0.0655291 0)
(-0.119409 0.0696662 0)
(-0.130776 0.0735518 0)
(-0.14237 0.0771195 0)
(-0.154106 0.080305 0)
(-0.165896 0.0830493 0)
(-0.177654 0.0853005 0)
(-0.189299 0.0870155 0)
(-4.2669e-05 -0.0012428 0)
(-0.000412524 -0.00217481 0)
(-0.00131258 -0.00190185 0)
(-0.00269653 -0.000671392 0)
(-0.00456165 0.00132907 0)
(-0.0069162 0.00394976 0)
(-0.00976891 0.00707125 0)
(-0.0131327 0.0105978 0)
(-0.0170252 0.0144522 0)
(-0.0214669 0.0185724 0)
(-0.0264794 0.0229099 0)
(-0.0320837 0.0274276 0)
(-0.0382989 0.0320974 0)
(-0.0451399 0.0368979 0)
(-0.0526156 0.0418099 0)
(-0.0607274 0.0468132 0)
(-0.0694668 0.0518825 0)
(-0.0788143 0.0569848 0)
(-0.0887377 0.0620778 0)
(-0.099192 0.0671092 0)
(-0.11012 0.072018 0)
(-0.121453 0.0767362 0)
(-0.133113 0.081192 0)
(-0.145016 0.0853127 0)
(-0.157072 0.0890278 0)
(-0.169194 0.0922724 0)
(-0.181293 0.0949893 0)
(-0.193286 0.097131 0)
(-0.205098 0.0986606 0)
(-7.15912e-05 -0.000991535 0)
(-0.000596982 -0.0013936 0)
(-0.00180863 -0.000588722 0)
(-0.00360163 0.00116666 0)
(-0.00594444 0.00368569 0)
(-0.00882874 0.00682396 0)
(-0.0122512 0.0104691 0)
(-0.0162174 0.0145319 0)
(-0.0207406 0.0189401 0)
(-0.0258392 0.0236342 0)
(-0.0315331 0.0285663 0)
(-0.0378418 0.0336977 0)
(-0.0447814 0.0389968 0)
(-0.0523631 0.0444364 0)
(-0.0605901 0.0499898 0)
(-0.0694565 0.055627 0)
(-0.0789446 0.0613115 0)
(-0.0890243 0.0669978 0)
(-0.099652 0.0726304 0)
(-0.110771 0.0781442 0)
(-0.122313 0.0834667 0)
(-0.134198 0.0885204 0)
(-0.146343 0.0932264 0)
(-0.158655 0.097508 0)
(-0.171045 0.101294 0)
(-0.183422 0.104521 0)
(-0.195703 0.107137 0)
(-0.207809 0.1091 0)
(-0.21967 0.110382 0)
(-0.000103617 -0.00063934 0)
(-0.000797195 -0.000356533 0)
(-0.00234139 0.00109553 0)
(-0.00456603 0.00345951 0)
(-0.0074076 0.00655747 0)
(-0.0108396 0.0102578 0)
(-0.014846 0.014461 0)
(-0.0194246 0.0190887 0)
(-0.0245843 0.0240758 0)
(-0.0303409 0.0293669 0)
(-0.0367121 0.0349147 0)
(-0.0437149 0.0406781 0)
(-0.0513616 0.0466208 0)
(-0.0596579 0.0527085 0)
(-0.0686003 0.0589049 0)
(-0.0781741 0.0651689 0)
(-0.0883515 0.0714511 0)
(-0.0990912 0.0776924 0)
(-0.110338 0.083824 0)
(-0.122025 0.0897687 0)
(-0.134073 0.0954436 0)
(-0.146396 0.100764 0)
(-0.158902 0.105645 0)
(-0.171499 0.110011 0)
(-0.184096 0.11379 0)
(-0.196605 0.116925 0)
(-0.208947 0.11937 0)
(-0.221048 0.121092 0)
(-0.232845 0.122069 0)
(-0.000138472 -0.000178165 0)
(-0.00101105 0.000953113 0)
(-0.00290496 0.00317049 0)
(-0.00557859 0.00622599 0)
(-0.00893344 0.00996049 0)
(-0.0129237 0.0142636 0)
(-0.0175203 0.0190551 0)
(-0.0227129 0.0242716 0)
(-0.0285059 0.0298581 0)
(-0.0349122 0.035764 0)
(-0.0419466 0.0419424 0)
(-0.0496225 0.0483491 0)
(-0.0579473 0.0549417 0)
(-0.0669204 0.0616768 0)
(-0.07653 0.0685072 0)
(-0.0867517 0.0753789 0)
(-0.0975471 0.0822289 0)
(-0.108864 0.0889841 0)
(-0.120636 0.0955629 0)
(-0.132787 0.101877 0)
(-0.145229 0.107835 0)
(-0.157871 0.113346 0)
(-0.170619 0.118326 0)
(-0.183378 0.122697 0)
(-0.196061 0.126394 0)
(-0.208583 0.129366 0)
(-0.22087 0.131573 0)
(-0.232854 0.132992 0)
(-0.244479 0.133611 0)
(-0.000175631 0.000399119 0)
(-0.00123588 0.00254877 0)
(-0.0034923 0.00565078 0)
(-0.00662626 0.00947879 0)
(-0.010502 0.0139037 0)
(-0.0150537 0.0188457 0)
(-0.0202386 0.0242509 0)
(-0.0260384 0.0300756 0)
(-0.0324528 0.0362767 0)
(-0.0394911 0.0428094 0)
(-0.0471648 0.0496269 0)
(-0.0554826 0.0566806 0)
(-0.0644462 0.0639204 0)
(-0.0740472 0.0712924 0)
(-0.0842648 0.078737 0)
(-0.0950646 0.0861862 0)
(-0.106397 0.0935628 0)
(-0.1182 0.10078 0)
(-0.130398 0.107745 0)
(-0.142904 0.114359 0)
(-0.155627 0.120524 0)
(-0.168472 0.126149 0)
(-0.181343 0.131147 0)
(-0.194148 0.135447 0)
(-0.2068 0.138989 0)
(-0.219222 0.141728 0)
(-0.231343 0.143634 0)
(-0.243101 0.144693 0)
(-0.254445 0.144901 0)
(-0.000214813 0.00109791 0)
(-0.0014688 0.00443993 0)
(-0.00409524 0.00854555 0)
(-0.00769441 0.013224 0)
(-0.0120915 0.0183888 0)
(-0.0172 0.024001 0)
(-0.0229635 0.0300402 0)
(-0.0293554 0.0364868 0)
(-0.0363707 0.0433122 0)
(-0.0440146 0.0504777 0)
(-0.0522945 0.0579356 0)
(-0.0612137 0.0656321 0)
(-0.0707669 0.0735075 0)
(-0.0809375 0.0814963 0)
(-0.091695 0.0895249 0)
(-0.102995 0.097511 0)
(-0.114777 0.105363 0)
(-0.12697 0.112982 0)
(-0.139489 0.120264 0)
(-0.152243 0.127103 0)
(-0.165135 0.133398 0)
(-0.178069 0.139056 0)
(-0.190949 0.143995 0)
(-0.203686 0.148148 0)
(-0.216199 0.151462 0)
(-0.228412 0.153901 0)
(-0.240261 0.155446 0)
(-0.251688 0.156088 0)
(-0.262647 0.155833 0)
(-0.000255283 0.00192164 0)
(-0.00170606 0.00663181 0)
(-0.00470456 0.011858 0)
(-0.00876716 0.0174607 0)
(-0.0136788 0.0234099 0)
(-0.0193319 0.0297181 0)
(-0.0256564 0.0364064 0)
(-0.0326177 0.0434834 0)
(-0.0402053 0.050937 0)
(-0.0484202 0.0587346 0)
(-0.0572648 0.0668273 0)
(-0.0667363 0.0751542 0)
(-0.0768218 0.083645 0)
(-0.0874957 0.0922208 0)
(-0.0987179 0.100794 0)
(-0.110434 0.109267 0)
(-0.122574 0.117536 0)
(-0.135057 0.125489 0)
(-0.147794 0.133014 0)
(-0.160688 0.14 0)
(-0.17364 0.146345 0)
(-0.186553 0.151957 0)
(-0.199335 0.156759 0)
(-0.2119 0.16069 0)
(-0.224168 0.163707 0)
(-0.236069 0.165782 0)
(-0.247544 0.166903 0)
(-0.258541 0.167073 0)
(-0.269016 0.166304 0)
(-0.000296286 0.002872 0)
(-0.00194361 0.00912501 0)
(-0.00531039 0.0155851 0)
(-0.00982773 0.022181 0)
(-0.0152398 0.0289536 0)
(-0.0214179 0.0359786 0)
(-0.0282787 0.0433256 0)
(-0.035779 0.0510358 0)
(-0.043903 0.0591155 0)
(-0.0526469 0.0675383 0)
(-0.0620075 0.0762527 0)
(-0.071975 0.0851898 0)
(-0.0825285 0.0942672 0)
(-0.0936334 0.103392 0)
(-0.10524 0.112462 0)
(-0.117284 0.121365 0)
(-0.129687 0.129984 0)
(-0.142363 0.138199 0)
(-0.155215 0.14589 0)
(-0.168145 0.152944 0)
(-0.181053 0.159258 0)
(-0.193843 0.164746 0)
(-0.206425 0.169335 0)
(-0.218716 0.172973 0)
(-0.230642 0.175625 0)
(-0.242137 0.177271 0)
(-0.253144 0.17791 0)
(-0.263618 0.177552 0)
(-0.00033701 0.00394834 0)
(-0.00217716 0.0119151 0)
(-0.00590244 0.0197174 0)
(-0.0108589 0.0273698 0)
(-0.0167503 0.0349996 0)
(-0.023427 0.0427566 0)
(-0.0307922 0.0507665 0)
(-0.0387946 0.0591075 0)
(-0.0474126 0.0678053 0)
(-0.0566369 0.0768397 0)
(-0.0664583 0.0861559 0)
(-0.0768597 0.0956754 0)
(-0.0878118 0.105303 0)
(-0.0992709 0.114931 0)
(-0.111178 0.124442 0)
(-0.123461 0.133712 0)
(-0.136034 0.142612 0)
(-0.148805 0.151013 0)
(-0.161674 0.158791 0)
(-0.17454 0.165832 0)
(-0.187306 0.172037 0)
(-0.199876 0.177323 0)
(-0.212164 0.181626 0)
(-0.22409 0.184901 0)
(-0.235584 0.187121 0)
(-0.246585 0.188278 0)
(-0.257041 0.188378 0)
(-0.26691 0.187441 0)
(-0.000376588 0.0051476 0)
(-0.00240228 0.0149926 0)
(-0.00647027 0.024239 0)
(-0.0118437 0.0330054 0)
(-0.0181864 0.0415205 0)
(-0.0253287 0.0500195 0)
(-0.0331605 0.0586916 0)
(-0.0416221 0.0676555 0)
(-0.0506858 0.0769578 0)
(-0.0603366 0.0865841 0)
(-0.0705586 0.0964755 0)
(-0.0813273 0.106543 0)
(-0.0926049 0.116677 0)
(-0.104339 0.126757 0)
(-0.116462 0.136649 0)
(-0.128895 0.146218 0)
(-0.141546 0.155324 0)
(-0.154318 0.163833 0)
(-0.167109 0.171619 0)
(-0.17982 0.178569 0)
(-0.192352 0.184588 0)
(-0.204614 0.189597 0)
(-0.216522 0.193542 0)
(-0.228 0.196387 0)
(-0.238983 0.198113 0)
(-0.249414 0.198723 0)
(-0.259248 0.198231 0)
(-0.268448 0.196668 0)
(-0.000414129 0.00646431 0)
(-0.00261453 0.0183428 0)
(-0.00700361 0.0291278 0)
(-0.0127654 0.0390596 0)
(-0.0195255 0.0484827 0)
(-0.0270946 0.057729 0)
(-0.0353496 0.0670576 0)
(-0.0442223 0.0766316 0)
(-0.0536788 0.0865193 0)
(-0.0636977 0.0967122 0)
(-0.0742564 0.107146 0)
(-0.0853226 0.117721 0)
(-0.0968506 0.128313 0)
(-0.10878 0.138786 0)
(-0.121035 0.148995 0)
(-0.133531 0.158792 0)
(-0.146171 0.16803 0)
(-0.158855 0.17657 0)
(-0.171482 0.184287 0)
(-0.183951 0.191068 0)
(-0.196167 0.196824 0)
(-0.208041 0.201486 0)
(-0.219493 0.205006 0)
(-0.230452 0.207356 0)
(-0.240856 0.20853 0)
(-0.250655 0.208538 0)
(-0.25981 0.207408 0)
(-0.268293 0.20518 0)
(-0.00044875 0.00789057 0)
(-0.00280961 0.0219462 0)
(-0.00749267 0.0343557 0)
(-0.0136084 0.0454979 0)
(-0.0207463 0.055847 0)
(-0.0286982 0.0658413 0)
(-0.0373284 0.0758165 0)
(-0.0465601 0.085983 0)
(-0.0563526 0.0964323 0)
(-0.0666781 0.107161 0)
(-0.077507 0.118099 0)
(-0.0887995 0.129135 0)
(-0.100502 0.140132 0)
(-0.112547 0.150938 0)
(-0.124852 0.161396 0)
(-0.137328 0.171349 0)
(-0.149874 0.180643 0)
(-0.162389 0.189139 0)
(-0.174771 0.196709 0)
(-0.186921 0.203248 0)
(-0.198747 0.208671 0)
(-0.210163 0.212917 0)
(-0.221094 0.215947 0)
(-0.231473 0.217744 0)
(-0.241246 0.218313 0)
(-0.250367 0.217674 0)
(-0.258805 0.215866 0)
(-0.266541 0.212943 0)
(-0.000479608 0.00941619 0)
(-0.00298347 0.0257788 0)
(-0.00792835 0.0398896 0)
(-0.0143582 0.0522808 0)
(-0.0218296 0.0635691 0)
(-0.030116 0.0743081 0)
(-0.0390697 0.0849161 0)
(-0.0486048 0.0956536 0)
(-0.0586739 0.106636 0)
(-0.0692424 0.117865 0)
(-0.0802738 0.129266 0)
(-0.0917209 0.140713 0)
(-0.103523 0.152057 0)
(-0.115606 0.163132 0)
(-0.127884 0.173771 0)
(-0.14026 0.183807 0)
(-0.152635 0.193085 0)
(-0.164905 0.201461 0)
(-0.17697 0.208812 0)
(-0.188733 0.215038 0)
(-0.200106 0.22006 0)
(-0.211006 0.223828 0)
(-0.221364 0.22631 0)
(-0.231117 0.227503 0)
(-0.240219 0.22742 0)
(-0.248633 0.226096 0)
(-0.256335 0.223581 0)
(-0.263316 0.219943 0)
(-0.000505929 0.0110288 0)
(-0.00313247 0.0298121 0)
(-0.00830252 0.045691 0)
(-0.0150024 0.0593641 0)
(-0.0227585 0.0716006 0)
(-0.0313279 0.0830778 0)
(-0.0405502 0.0943013 0)
(-0.050331 0.105585 0)
(-0.0606155 0.117068 0)
(-0.0713625 0.128759 0)
(-0.0825284 0.140576 0)
(-0.0940594 0.152382 0)
(-0.105889 0.164014 0)
(-0.117936 0.175294 0)
(-0.130111 0.186044 0)
(-0.142316 0.196094 0)
(-0.154449 0.205282 0)
(-0.166407 0.213467 0)
(-0.178092 0.220531 0)
(-0.189411 0.226377 0)
(-0.200277 0.230938 0)
(-0.210615 0.234169 0)
(-0.220359 0.236054 0)
(-0.229456 0.236597 0)
(-0.237865 0.235826 0)
(-0.245559 0.233789 0)
(-0.252523 0.230549 0)
(-0.258759 0.226188 0)
(-0.000527037 0.0127143 0)
(-0.00325344 0.0340141 0)
(-0.00860819 0.0517177 0)
(-0.01553 0.0666994 0)
(-0.0235192 0.0798896 0)
(-0.0323169 0.0920956 0)
(-0.0417511 0.103915 0)
(-0.0517184 0.115716 0)
(-0.0621565 0.127665 0)
(-0.0730173 0.139776 0)
(-0.0842509 0.15196 0)
(-0.0957972 0.16407 0)
(-0.107584 0.17593 0)
(-0.119526 0.18735 0)
(-0.131531 0.198145 0)
(-0.143498 0.208139 0)
(-0.155326 0.217169 0)
(-0.166914 0.225098 0)
(-0.178165 0.231809 0)
(-0.188991 0.237217 0)
(-0.19931 0.241259 0)
(-0.209051 0.243905 0)
(-0.218157 0.245148 0)
(-0.22658 0.245007 0)
(-0.234289 0.243521 0)
(-0.241267 0.240754 0)
(-0.247509 0.236783 0)
(-0.253026 0.231702 0)
(-0.000542374 0.0144567 0)
(-0.00334376 0.0383497 0)
(-0.00883966 0.0579239 0)
(-0.0159323 0.0742354 0)
(-0.0241002 0.0883818 0)
(-0.0330701 0.101305 0)
(-0.0426583 0.113698 0)
(-0.0527523 0.125987 0)
(-0.0632822 0.138364 0)
(-0.0741934 0.150851 0)
(-0.0854296 0.163352 0)
(-0.0969253 0.175711 0)
(-0.108603 0.187738 0)
(-0.120376 0.199235 0)
(-0.132148 0.21001 0)
(-0.143818 0.219882 0)
(-0.155287 0.228691 0)
(-0.166455 0.2363 0)
(-0.177229 0.242602 0)
(-0.187525 0.247516 0)
(-0.197267 0.250994 0)
(-0.20639 0.253013 0)
(-0.214844 0.25358 0)
(-0.222591 0.252728 0)
(-0.229609 0.250513 0)
(-0.235889 0.24701 0)
(-0.241439 0.242312 0)
(-0.246279 0.236527 0)
(-0.000551516 0.016239 0)
(-0.00340148 0.0427814 0)
(-0.00899264 0.0642611 0)
(-0.0162029 0.0819186 0)
(-0.0244935 0.097021 0)
(-0.0335781 0.110649 0)
(-0.0432619 0.123592 0)
(-0.0534231 0.136336 0)
(-0.0639843 0.149103 0)
(-0.0748841 0.16192 0)
(-0.0860607 0.174688 0)
(-0.0974438 0.18724 0)
(-0.108953 0.199375 0)
(-0.120497 0.210889 0)
(-0.13198 0.221581 0)
(-0.143303 0.231271 0)
(-0.154365 0.239799 0)
(-0.165073 0.247034 0)
(-0.175336 0.252874 0)
(-0.185076 0.257249 0)
(-0.194222 0.260121 0)
(-0.202718 0.26148 0)
(-0.210521 0.261348 0)
(-0.217602 0.259771 0)
(-0.223948 0.25682 0)
(-0.229563 0.252587 0)
(-0.234463 0.247178 0)
(-0.238679 0.240714 0)
(-0.000554185 0.018043 0)
(-0.00342527 0.0472699 0)
(-0.00906424 0.0706792 0)
(-0.0163374 0.0896937 0)
(-0.0246939 0.10575 0)
(-0.0338356 0.120068 0)
(-0.0435569 0.133538 0)
(-0.0537268 0.146705 0)
(-0.0642602 0.159822 0)
(-0.0750896 0.172924 0)
(-0.0861477 0.185908 0)
(-0.0973604 0.198598 0)
(-0.108644 0.210785 0)
(-0.119907 0.222257 0)
(-0.131054 0.232809 0)
(-0.141984 0.242261 0)
(-0.152604 0.250454 0)
(-0.162819 0.257265 0)
(-0.172548 0.262599 0)
(-0.181714 0.266397 0)
(-0.190257 0.268632 0)
(-0.198128 0.269309 0)
(-0.20529 0.268464 0)
(-0.211727 0.266157 0)
(-0.217435 0.262477 0)
(-0.222426 0.257528 0)
(-0.226727 0.251434 0)
(-0.230379 0.244324 0)
(-0.000550256 0.0198502 0)
(-0.00341448 0.0517748 0)
(-0.00905305 0.0771268 0)
(-0.0163339 0.0975047 0)
(-0.0246991 0.114512 0)
(-0.0338405 0.129506 0)
(-0.0435422 0.143477 0)
(-0.053664 0.157035 0)
(-0.0641131 0.170463 0)
(-0.0748159 0.183804 0)
(-0.0857007 0.196955 0)
(-0.09669 0.209731 0)
(-0.107699 0.221916 0)
(-0.118635 0.233292 0)
(-0.129402 0.243651 0)
(-0.139905 0.252814 0)
(-0.150051 0.260627 0)
(-0.159752 0.266972 0)
(-0.168931 0.271764 0)
(-0.177518 0.274955 0)
(-0.185461 0.276531 0)
(-0.192717 0.276512 0)
(-0.199261 0.274948 0)
(-0.205085 0.271918 0)
(-0.210194 0.267523 0)
(-0.214611 0.261884 0)
(-0.218371 0.255137 0)
(-0.221521 0.247423 0)
(-0.00053975 0.0216419 0)
(-0.00336914 0.0562555 0)
(-0.00895902 0.0835522 0)
(-0.0161924 0.105296 0)
(-0.0245097 0.123249 0)
(-0.0335944 0.138905 0)
(-0.0432209 0.153355 0)
(-0.0532399 0.167272 0)
(-0.0635511 0.18097 0)
(-0.0740749 0.194507 0)
(-0.0847357 0.207777 0)
(-0.0954538 0.22059 0)
(-0.106143 0.232724 0)
(-0.116711 0.243953 0)
(-0.127066 0.254073 0)
(-0.137113 0.262903 0)
(-0.146763 0.270295 0)
(-0.155936 0.276139 0)
(-0.164558 0.280361 0)
(-0.172569 0.282925 0)
(-0.179922 0.283829 0)
(-0.186584 0.28311 0)
(-0.19254 0.280833 0)
(-0.197788 0.277093 0)
(-0.202346 0.272007 0)
(-0.206242 0.26571 0)
(-0.209521 0.25835 0)
(-0.212235 0.250078 0)
(-0.000522834 0.0233994 0)
(-0.00328987 0.0606715 0)
(-0.00878347 0.0899042 0)
(-0.0159151 0.113012 0)
(-0.0241288 0.131906 0)
(-0.0331019 0.148211 0)
(-0.0425997 0.163117 0)
(-0.0524639 0.177361 0)
(-0.0625866 0.191294 0)
(-0.072883 0.204984 0)
(-0.0832739 0.218329 0)
(-0.093678 0.231132 0)
(-0.104009 0.243168 0)
(-0.114177 0.254208 0)
(-0.12409 0.264046 0)
(-0.133659 0.272505 0)
(-0.1428 0.279445 0)
(-0.151438 0.284762 0)
(-0.159505 0.288393 0)
(-0.166949 0.290317 0)
(-0.173731 0.290546 0)
(-0.179826 0.289131 0)
(-0.185228 0.286155 0)
(-0.189945 0.281728 0)
(-0.194001 0.275982 0)
(-0.197434 0.269065 0)
(-0.200292 0.261136 0)
(-0.202634 0.252354 0)
(-0.000499802 0.0251048 0)
(-0.00317791 0.0649834 0)
(-0.00852893 0.0961326 0)
(-0.0155058 0.120598 0)
(-0.023562 0.140428 0)
(-0.0323705 0.15737 0)
(-0.0416885 0.172711 0)
(-0.0513488 0.187254 0)
(-0.0612362 0.201385 0)
(-0.0712608 0.21519 0)
(-0.0813405 0.228567 0)
(-0.0913932 0.241319 0)
(-0.101333 0.253216 0)
(-0.111072 0.264027 0)
(-0.120523 0.273549 0)
(-0.1296 0.281607 0)
(-0.138224 0.288068 0)
(-0.146327 0.292839 0)
(-0.153847 0.295869 0)
(-0.16074 0.297149 0)
(-0.166975 0.296706 0)
(-0.172536 0.294609 0)
(-0.177424 0.290955 0)
(-0.181656 0.28587 0)
(-0.185262 0.279501 0)
(-0.188287 0.272007 0)
(-0.190784 0.263556 0)
(-0.192813 0.254314 0)
(-0.00047107 0.0267408 0)
(-0.00303499 0.0691531 0)
(-0.00819905 0.102189 0)
(-0.0149702 0.128002 0)
(-0.0228169 0.148763 0)
(-0.0314101 0.166331 0)
(-0.0404999 0.18209 0)
(-0.0499104 0.196904 0)
(-0.0595195 0.211201 0)
(-0.0692321 0.225084 0)
(-0.0789642 0.238456 0)
(-0.0886331 0.251119 0)
(-0.0981547 0.26284 0)
(-0.107444 0.273391 0)
(-0.116416 0.282567 0)
(-0.124992 0.290201 0)
(-0.133098 0.296166 0)
(-0.140671 0.30038 0)
(-0.147658 0.302805 0)
(-0.154022 0.303444 0)
(-0.159739 0.302342 0)
(-0.164801 0.299582 0)
(-0.169217 0.295278 0)
(-0.173011 0.28957 0)
(-0.176219 0.282618 0)
(-0.17889 0.274592 0)
(-0.18108 0.265668 0)
(-0.182852 0.256015 0)
(-0.000437149 0.0282914 0)
(-0.00286332 0.0731447 0)
(-0.00779843 0.108027 0)
(-0.0143153 0.135175 0)
(-0.021903 0.15686 0)
(-0.0302329 0.175047 0)
(-0.0390489 0.191206 0)
(-0.0481673 0.206269 0)
(-0.0574586 0.220703 0)
(-0.0668236 0.23463 0)
(-0.0761761 0.247963 0)
(-0.0854339 0.260504 0)
(-0.0945149 0.27202 0)
(-0.103337 0.282282 0)
(-0.111822 0.291091 0)
(-0.119893 0.298283 0)
(-0.127484 0.303742 0)
(-0.134538 0.307396 0)
(-0.14101 0.309218 0)
(-0.146869 0.309229 0)
(-0.1521 0.307487 0)
(-0.156701 0.30409 0)
(-0.160688 0.299169 0)
(-0.16409 0.292877 0)
(-0.166949 0.285385 0)
(-0.169317 0.276874 0)
(-0.171252 0.267524 0)
(-0.172816 0.257509 0)
(-0.000398633 0.0297417 0)
(-0.00266547 0.0769245 0)
(-0.0073325 0.113602 0)
(-0.0135494 0.142068 0)
(-0.0208313 0.164672 0)
(-0.0288527 0.183472 0)
(-0.0373526 0.200019 0)
(-0.0461397 0.21531 0)
(-0.0550778 0.229854 0)
(-0.0640635 0.243797 0)
(-0.073009 0.257061 0)
(-0.081833 0.269451 0)
(-0.090456 0.280737 0)
(-0.0988001 0.290691 0)
(-0.106791 0.299116 0)
(-0.114358 0.305858 0)
(-0.121443 0.310807 0)
(-0.127993 0.313903 0)
(-0.133971 0.315134 0)
(-0.139353 0.314533 0)
(-0.14413 0.312175 0)
(-0.148308 0.308174 0)
(-0.151908 0.302672 0)
(-0.154964 0.295837 0)
(-0.15752 0.287851 0)
(-0.159631 0.278901 0)
(-0.161356 0.269172 0)
(-0.162755 0.258841 0)
(-0.000356174 0.0310787 0)
(-0.00244431 0.0804616 0)
(-0.00680736 0.118875 0)
(-0.0126817 0.148637 0)
(-0.0196141 0.172156 0)
(-0.0272847 0.191563 0)
(-0.0354292 0.208488 0)
(-0.0438494 0.223991 0)
(-0.0524027 0.238623 0)
(-0.0609815 0.252557 0)
(-0.0694968 0.265727 0)
(-0.0778686 0.277944 0)
(-0.0860204 0.28898 0)
(-0.0938788 0.29861 0)
(-0.101374 0.306643 0)
(-0.108443 0.31293 0)
(-0.115032 0.317373 0)
(-0.121095 0.319921 0)
(-0.126602 0.320578 0)
(-0.131536 0.319388 0)
(-0.135893 0.316444 0)
(-0.139686 0.311872 0)
(-0.142939 0.30583 0)
(-0.145691 0.298495 0)
(-0.147987 0.290059 0)
(-0.149883 0.280715 0)
(-0.151437 0.270653 0)
(-0.152707 0.260048 0)
(-0.000310465 0.0322909 0)
(-0.00220294 0.0837284 0)
(-0.0062296 0.123807 0)
(-0.0117224 0.15484 0)
(-0.0182646 0.179268 0)
(-0.0255452 0.199281 0)
(-0.0332982 0.216578 0)
(-0.0413194 0.232279 0)
(-0.0494597 0.246982 0)
(-0.0576077 0.260886 0)
(-0.0656737 0.273942 0)
(-0.0735788 0.285969 0)
(-0.0812503 0.29674 0)
(-0.0886192 0.306038 0)
(-0.0956215 0.313675 0)
(-0.1022 0.31951 0)
(-0.108306 0.323455 0)
(-0.113902 0.325472 0)
(-0.118963 0.325575 0)
(-0.123477 0.323825 0)
(-0.127448 0.320328 0)
(-0.130891 0.315224 0)
(-0.133836 0.308682 0)
(-0.136321 0.300891 0)
(-0.138395 0.292049 0)
(-0.140113 0.282356 0)
(-0.141529 0.272002 0)
(-0.142702 0.261162 0)
(-0.000262218 0.0333683 0)
(-0.00194461 0.0867003 0)
(-0.00560623 0.128365 0)
(-0.010682 0.16064 0)
(-0.0167968 0.185971 0)
(-0.0236513 0.206591 0)
(-0.0309799 0.224258 0)
(-0.038573 0.240148 0)
(-0.0462757 0.254907 0)
(-0.0539727 0.268766 0)
(-0.0615735 0.281692 0)
(-0.0690012 0.293514 0)
(-0.0761864 0.304014 0)
(-0.0830651 0.312975 0)
(-0.089579 0.320218 0)
(-0.0956766 0.32561 0)
(-0.101316 0.329071 0)
(-0.106465 0.330577 0)
(-0.111104 0.330153 0)
(-0.115228 0.327875 0)
(-0.118844 0.323861 0)
(-0.121971 0.318264 0)
(-0.124641 0.311265 0)
(-0.126895 0.303061 0)
(-0.128781 0.293857 0)
(-0.13035 0.283855 0)
(-0.131658 0.273247 0)
(-0.132756 0.262207 0)
(-0.000212148 0.0343033 0)
(-0.00167263 0.0893563 0)
(-0.00494446 0.132518 0)
(-0.00957163 0.166002 0)
(-0.0152251 0.19223 0)
(-0.0216207 0.21346 0)
(-0.0284949 0.231496 0)
(-0.035634 0.247572 0)
(-0.0428775 0.262377 0)
(-0.0501066 0.276179 0)
(-0.0572297 0.288965 0)
(-0.064172 0.300575 0)
(-0.0708679 0.310798 0)
(-0.0772585 0.319424 0)
(-0.0832908 0.326281 0)
(-0.0889194 0.331242 0)
(-0.094108 0.33424 0)
(-0.0988306 0.335259 0)
(-0.103073 0.334339 0)
(-0.106834 0.331567 0)
(-0.110125 0.327074 0)
(-0.112967 0.321025 0)
(-0.115394 0.313611 0)