/*--------------------------------*- C++ -*----------------------------------*\
  =========                 |
  \\      /  F ield         | OpenFOAM: The Open Source CFD Toolbox
   \\    /   O peration     | Website:  https://openfoam.org
    \\  /    A nd           | Version:  9
     \\/     M anipulation  |
\*---------------------------------------------------------------------------*/
FoamFile
{
    format      ascii;
    class       volScalarField;
    location    "1.5";
    object      p;
}
// * * * * * * * * * * * * * * * * * * * * * * * * * * * * * * * * * * * * * //

dimensions      [0 2 -2 0 0 0 0];

internalField   nonuniform List<scalar> 
1240
(
-0.0521829
-0.0523248
-0.0523532
-0.0522689
-0.0520719
-0.0553544
-0.0555022
-0.0555376
-0.0554612
-0.0552738
-0.0549747
-0.0362074
-0.0339348
-0.0315558
-0.029092
-0.0265724
-0.0240343
-0.0215224
-0.0190878
-0.0167844
-0.0146659
-0.01278
-0.011164
-0.00984025
-0.00881365
-0.00807111
-0.00758399
-0.00731249
-0.00721112
-0.00723409
-0.00733966
-0.00749271
-0.00766571
-0.0078384
-0.00799639
-0.00812958
-0.00823327
-0.00830907
-0.058389
-0.0585406
-0.0585809
-0.0585104
-0.0583298
-0.0580395
-0.0576392
-0.0571288
-0.0565078
-0.0557753
-0.05493
-0.0539698
-0.0528924
-0.0516946
-0.0503727
-0.0489228
-0.0473405
-0.0456218
-0.0437634
-0.0417633
-0.0396216
-0.0373427
-0.0349356
-0.032416
-0.0298074
-0.0271424
-0.0244632
-0.0218205
-0.0192721
-0.0168788
-0.0146997
-0.0127862
-0.0111758
-0.00988784
-0.0089209
-0.00825334
-0.00784723
-0.0076542
-0.00762219
-0.0077014
-0.00784844
-0.00802848
-0.00821542
-0.00839063
-0.00854105
-0.00866091
-0.00875277
-0.0612936
-0.0614475
-0.0614909
-0.0614245
-0.0612489
-0.0609646
-0.060572
-0.0600712
-0.059462
-0.0587438
-0.0579157
-0.0569761
-0.0559228
-0.0547529
-0.0534627
-0.0520481
-0.050504
-0.0488252
-0.0470064
-0.0450431
-0.0429321
-0.0406729
-0.0382693
-0.0357307
-0.033074
-0.0303257
-0.0275226
-0.0247125
-0.0219533
-0.0193102
-0.0168509
-0.0146398
-0.0127306
-0.0111592
-0.00993921
-0.00906032
-0.00849025
-0.00818057
-0.00807433
-0.00811382
-0.00824665
-0.00842947
-0.00862915
-0.00882171
-0.0089904
-0.00912796
-0.00923794
-0.0640775
-0.064233
-0.0642784
-0.0642144
-0.0640418
-0.0637614
-0.0633736
-0.0628791
-0.0622779
-0.06157
-0.0607548
-0.0598314
-0.058798
-0.0576523
-0.0563909
-0.0550097
-0.0535036
-0.0518669
-0.0500931
-0.0481759
-0.0461093
-0.0438891
-0.0415141
-0.0389877
-0.0363199
-0.0335298
-0.0306472
-0.0277142
-0.0247855
-0.021927
-0.0192119
-0.0167152
-0.0145054
-0.0126364
-0.0111399
-0.0100208
-0.0092569
-0.00880343
-0.00860097
-0.00858478
-0.00869311
-0.00887303
-0.00908306
-0.0092927
-0.0094805
-0.00963727
-0.00976752
-0.0667514
-0.0669082
-0.0669548
-0.0668921
-0.066721
-0.0664423
-0.0660568
-0.0655653
-0.0649684
-0.0642666
-0.0634598
-0.0625476
-0.0615289
-0.0604021
-0.0591645
-0.0578124
-0.0563411
-0.0547447
-0.0530166
-0.0511491
-0.0491346
-0.0469658
-0.0446375
-0.0421475
-0.0394995
-0.0367046
-0.0337845
-0.0307737
-0.0277207
-0.0246884
-0.0217516
-0.0189923
-0.0164917
-0.0143211
-0.012532
-0.011148
-0.0101616
-0.00953618
-0.00921327
-0.00912289
-0.00919421
-0.00936392
-0.00958088
-0.00980674
-0.0100142
-0.0101916
-0.0103444
-0.0690559
-0.0693256
-0.0694837
-0.0695313
-0.0694692
-0.0692983
-0.0690195
-0.068634
-0.0681427
-0.0675467
-0.0668469
-0.0660438
-0.0651376
-0.0641282
-0.0630145
-0.0617946
-0.0604656
-0.0590236
-0.0574632
-0.0557776
-0.0539591
-0.0519988
-0.0498877
-0.0476172
-0.045181
-0.0425764
-0.0398075
-0.0368873
-0.0338413
-0.0307097
-0.0275491
-0.0244317
-0.0214425
-0.0186719
-0.0162067
-0.0141181
-0.0124509
-0.0112165
-0.0103915
-0.00992251
-0.00973723
-0.00975683
-0.00990724
-0.0101265
-0.010367
-0.0105945
-0.0107938
-0.0109712
-0.0715365
-0.0718086
-0.0719688
-0.0720175
-0.0719556
-0.071784
-0.0715038
-0.0711163
-0.0706227
-0.0700246
-0.069323
-0.0685194
-0.0676144
-0.0666087
-0.065502
-0.0642934
-0.0629809
-0.0615615
-0.0600306
-0.0583821
-0.0566084
-0.0547004
-0.052648
-0.0504407
-0.0480685
-0.0455241
-0.0428047
-0.0399153
-0.0368719
-0.0337048
-0.0304619
-0.0272092
-0.0240303
-0.0210205
-0.0182784
-0.0158935
-0.0139331
-0.0124306
-0.0113804
-0.0107395
-0.010437
-0.0103881
-0.0105083
-0.0107239
-0.0109767
-0.0112239
-0.0114462
-0.0116504
-0.0724234
-0.0730399
-0.073543
-0.0739323
-0.074208
-0.0743707
-0.0744208
-0.0743589
-0.0741861
-0.0739035
-0.0735125
-0.0730147
-0.0724118
-0.0717054
-0.0708974
-0.0699892
-0.0689821
-0.0678767
-0.0666731
-0.0653703
-0.0639663
-0.0624576
-0.0608391
-0.0591039
-0.0572432
-0.0552467
-0.0531027
-0.0507991
-0.0483247
-0.0456712
-0.0428363
-0.0398268
-0.0366628
-0.0333814
-0.0300398
-0.0267158
-0.023505
-0.0205136
-0.0178464
-0.015592
-0.0138082
-0.0125113
-0.0116737
-0.0112308
-0.011095
-0.0111724
-0.011377
-0.0116387
-0.0119049
-0.012151
-0.0123841
-0.0747194
-0.0753432
-0.0758529
-0.0762481
-0.0765285
-0.0766945
-0.0767463
-0.0766846
-0.0765103
-0.0762246
-0.0758291
-0.0753254
-0.0747157
-0.074002
-0.0731864
-0.0722712
-0.0712582
-0.070149
-0.0689445
-0.0676449
-0.0662493
-0.0647553
-0.0631591
-0.0614548
-0.0596345
-0.0576882
-0.0556041
-0.0533687
-0.0509683
-0.0483906
-0.0456268
-0.0426755
-0.0395467
-0.0362662
-0.0328801
-0.0294572
-0.0260888
-0.0228837
-0.0199577
-0.0174187
-0.0153486
-0.013789
-0.0127327
-0.0121267
-0.0118844
-0.0119046
-0.0120895
-0.0123558
-0.0126397
-0.0129102
-0.0131742
-0.0769334
-0.0775663
-0.0780842
-0.0784864
-0.0787726
-0.0789426
-0.0789967
-0.0789353
-0.0787595
-0.0784703
-0.0780695
-0.077559
-0.0769409
-0.0762178
-0.0753923
-0.074467
-0.0734445
-0.0723271
-0.0711166
-0.0698144
-0.0684205
-0.066934
-0.0653523
-0.0636709
-0.061883
-0.0599797
-0.0579493
-0.0557783
-0.0534514
-0.0509534
-0.0482707
-0.0453949
-0.0423266
-0.0390804
-0.0356901
-0.0322131
-0.0287327
-0.0253551
-0.0222024
-0.0193974
-0.0170453
-0.0152141
-0.0139214
-0.0131308
-0.0127621
-0.0127098
-0.0128649
-0.0131305
-0.0134301
-0.013725
-0.0140216
-0.0790664
-0.0797101
-0.0802376
-0.080648
-0.0809407
-0.0811155
-0.0811723
-0.0811117
-0.0809343
-0.0806416
-0.0802351
-0.0797169
-0.0790896
-0.0783557
-0.0775184
-0.0765806
-0.0755457
-0.0744165
-0.0731959
-0.071886
-0.0704882
-0.0690026
-0.0674282
-0.0657618
-0.0639981
-0.0621295
-0.0601453
-0.0580323
-0.0557749
-0.0533561
-0.0507589
-0.0479693
-0.0449797
-0.0417944
-0.0384347
-0.0349452
-0.0313977
-0.027892
-0.0245507
-0.021507
-0.018886
-0.0167823
-0.0152408
-0.0142474
-0.0137329
-0.0135919
-0.013706
-0.0139645
-0.014277
-0.0145961
-0.0149268
-0.081118
-0.0817736
-0.0823118
-0.0827314
-0.0830315
-0.0832116
-0.0832717
-0.083212
-0.0830334
-0.082737
-0.0823247
-0.0817986
-0.0811613
-0.0804158
-0.0795654
-0.0786136
-0.0775641
-0.0764206
-0.0751865
-0.0738649
-0.0724583
-0.070968
-0.0693944
-0.0677357
-0.0659883
-0.064146
-0.0621996
-0.0601369
-0.0579427
-0.0555992
-0.0530873
-0.0503889
-0.04749
-0.0443854
-0.0410847
-0.037619
-0.0340469
-0.0304577
-0.0269699
-0.0237216
-0.0208534
-0.0184844
-0.0166885
-0.0154776
-0.0147997
-0.0145538
-0.0146148
-0.0148589
-0.015181
-0.0155235
-0.0158895
-0.0830859
-0.0837545
-0.0843042
-0.0847337
-0.0850417
-0.0852277
-0.0852914
-0.085233
-0.0850533
-0.0847535
-0.0843353
-0.0838012
-0.0831537
-0.0823962
-0.0815321
-0.0805653
-0.0794999
-0.0783401
-0.0770902
-0.0757538
-0.0743345
-0.0728349
-0.0712565
-0.0695992
-0.0678608
-0.0660369
-0.06412
-0.0620992
-0.0599604
-0.057686
-0.0552559
-0.0526493
-0.0498472
-0.0468366
-0.0436166
-0.0402052
-0.0366465
-0.0330168
-0.029426
-0.0260118
-0.0229251
-0.0203063
-0.0182576
-0.0168199
-0.0159634
-0.0155968
-0.0155923
-0.015814
-0.0161416
-0.0165062
-0.0169084
-0.0849669
-0.0856491
-0.0862109
-0.0866507
-0.086967
-0.0871592
-0.0872268
-0.08717
-0.0869894
-0.0866863
-0.0862626
-0.0857205
-0.085063
-0.0842933
-0.0834152
-0.082433
-0.081351
-0.0801739
-0.0789064
-0.0775532
-0.0761185
-0.0746059
-0.0730183
-0.0713569
-0.0696213
-0.0678086
-0.0659132
-0.063926
-0.0618342
-0.0596213
-0.0572671
-0.0547494
-0.0520456
-0.0491368
-0.0460129
-0.0426797
-0.0391669
-0.0355362
-0.0318853
-0.0283466
-0.0250758
-0.0222296
-0.0199368
-0.0182688
-0.0172222
-0.0167209
-0.0166383
-0.016829
-0.0171573
-0.0175423
-0.0179811
-0.0867566
-0.0874528
-0.0880269
-0.0884772
-0.0888021
-0.0890006
-0.0890723
-0.0890172
-0.088836
-0.0885299
-0.0881009
-0.0875511
-0.0868838
-0.0861022
-0.0852103
-0.0842126
-0.0831138
-0.0819189
-0.0806332
-0.0792617
-0.0778097
-0.0762816
-0.0746813
-0.0730116
-0.0712734
-0.0694657
-0.0675847
-0.0656231
-0.0635701
-0.0614104
-0.0591248
-0.0566906
-0.0540832
-0.0512792
-0.048261
-0.0450238
-0.0415835
-0.0379864
-0.0343158
-0.0306945
-0.0272773
-0.0242323
-0.0217111
-0.0198155
-0.0185716
-0.0179235
-0.0177511
-0.0179018
-0.0182255
-0.0186287
-0.0191041
-0.08845
-0.0891602
-0.0897467
-0.0902075
-0.0905409
-0.0907458
-0.0908216
-0.0907684
-0.0905868
-0.090278
-0.0898439
-0.0892869
-0.0886101
-0.0878171
-0.0869119
-0.0858991
-0.0847837
-0.083571
-0.0822668
-0.0808765
-0.0794061
-0.0778608
-0.0762455
-0.0745641
-0.0728192
-0.0710113
-0.0691384
-0.0671953
-0.0651731
-0.0630585
-0.0608334
-0.0584759
-0.0559602
-0.0532603
-0.0503526
-0.0472234
-0.0438762
-0.0403419
-0.0366882
-0.0330248
-0.0295009
-0.0262899
-0.0235622
-0.0214478
-0.0200042
-0.0192002
-0.0189271
-0.0190289
-0.0193425
-0.0197611
-0.0202726
-0.0900416
-0.0907656
-0.0913643
-0.0918354
-0.0921772
-0.0923883
-0.0924683
-0.092417
-0.0922351
-0.0919238
-0.091485
-0.0909212
-0.0902355
-0.0894315
-0.0885136
-0.0874863
-0.0863549
-0.085125
-0.0838025
-0.0823934
-0.0809042
-0.0793408
-0.077709
-0.0760138
-0.0742589
-0.0724467
-0.0705767
-0.068646
-0.0666475
-0.06457
-0.0623974
-0.0601087
-0.0576786
-0.0550791
-0.0522829
-0.0492688
-0.0460294
-0.0425815
-0.0389764
-0.0353086
-0.0317173
-0.0283763
-0.0254687
-0.0231501
-0.0215096
-0.0205441
-0.0201611
-0.0202056
-0.0205032
-0.0209341
-0.0214809
-0.0915257
-0.0922632
-0.0928736
-0.0933547
-0.0937045
-0.0939216
-0.0940056
-0.0939563
-0.0937742
-0.0934606
-0.0930174
-0.0924472
-0.0917532
-0.090939
-0.090009
-0.0889681
-0.0878215
-0.086575
-0.0852349
-0.0838075
-0.0822997
-0.080718
-0.0790689
-0.0773584
-0.0755915
-0.0737717
-0.0719007
-0.069977
-0.0679959
-0.0659485
-0.0638205
-0.0615928
-0.0592409
-0.0567364
-0.0540494
-0.0511532
-0.0480314
-0.0446878
-0.0411579
-0.0375196
-0.0338988
-0.0304645
-0.0274074
-0.0249044
-0.0230747
-0.0219458
-0.0214459
-0.0214254
-0.0217011
-0.0221409
-0.0227215
-0.0928967
-0.093647
-0.0942686
-0.0947592
-0.0951166
-0.0953391
-0.0954273
-0.0953798
-0.0951976
-0.0948818
-0.0944346
-0.0938585
-0.0931567
-0.092333
-0.0913918
-0.090338
-0.0891771
-0.087915
-0.0865582
-0.0851133
-0.0835874
-0.0819877
-0.0803212
-0.0785948
-0.0768145
-0.0749851
-0.0731097
-0.071189
-0.0692201
-0.0671962
-0.0651057
-0.0629312
-0.0606498
-0.0582336
-0.0556514
-0.0528727
-0.0498738
-0.0466473
-0.0432137
-0.0396342
-0.036019
-0.032528
-0.0293542
-0.0266905
-0.0246839
-0.0233937
-0.0227724
-0.0226802
-0.0229285
-0.0233736
-0.0239861
-0.0941492
-0.0949115
-0.0955436
-0.0960431
-0.0964078
-0.0966366
-0.0967275
-0.0966815
-0.096499
-0.0961813
-0.0957303
-0.0951486
-0.0944396
-0.0936071
-0.0926554
-0.0915898
-0.0904156
-0.089139
-0.0877665
-0.0863051
-0.0847621
-0.083145
-0.0814615
-0.0797191
-0.0779247
-0.0760843
-0.0742024
-0.0722813
-0.0703202
-0.0683146
-0.066255
-0.0641264
-0.0619079
-0.0595727
-0.0570895
-0.0544252
-0.0515509
-0.0484496
-0.0451286
-0.0416322
-0.0380541
-0.0345414
-0.0312843
-0.0284867
-0.0263199
-0.0248743
-0.0241298
-0.0239606
-0.0241761
-0.0246229
-0.0252652
-0.0952779
-0.0960513
-0.0966932
-0.0972009
-0.0975721
-0.0978055
-0.0978999
-0.0978555
-0.0976728
-0.0973532
-0.0968987
-0.0963119
-0.0955962
-0.0947554
-0.0937942
-0.0927175
-0.0915311
-0.090241
-0.088854
-0.0873772
-0.0858181
-0.0841846
-0.0824848
-0.0807268
-0.0789182
-0.077066
-0.0751761
-0.0732523
-0.0712957
-0.0693038
-0.0672695
-0.0651802
-0.0630173
-0.0607556
-0.0583645
-0.0558099
-0.0530589
-0.0500872
-0.04689
-0.0434964
-0.0399827
-0.0364807
-0.0331736
-0.0302708
-0.0279636
-0.0263721
-0.0255055
-0.0252556
-0.0254338
-0.0258786
-0.026548
-0.0962782
-0.0970617
-0.0977125
-0.0982276
-0.0986048
-0.0988426
-0.0989399
-0.0988968
-0.0987139
-0.0983925
-0.0979347
-0.0973431
-0.0966211
-0.0957728
-0.0948027
-0.0937159
-0.0925181
-0.0912156
-0.0898152
-0.0883242
-0.0867502
-0.0851014
-0.0833862
-0.0816132
-0.0797907
-0.0779267
-0.0760279
-0.0740997
-0.072145
-0.0701631
-0.0681493
-0.0660935
-0.0639793
-0.0617838
-0.0594777
-0.0570268
-0.0543958
-0.0515546
-0.0484886
-0.0452127
-0.0417861
-0.0383241
-0.0349988
-0.0320203
-0.0295952
-0.0278706
-0.0268855
-0.0265531
-0.0266902
-0.0271293
-0.027823
-0.0971457
-0.0979385
-0.0985972
-0.099119
-0.0995015
-0.0997432
-0.0998431
-0.0998011
-0.0996178
-0.0992946
-0.0988336
-0.0982376
-0.0975099
-0.0966545
-0.0956761
-0.09458
-0.0933718
-0.0920579
-0.0906452
-0.089141
-0.0875533
-0.0858903
-0.0841608
-0.0823737
-0.0805379
-0.0786621
-0.0767542
-0.0748206
-0.0728657
-0.070891
-0.0688937
-0.0668662
-0.0647947
-0.0626585
-0.0604301
-0.0580762
-0.0555601
-0.0528479
-0.0499168
-0.0467692
-0.0434481
-0.0400513
-0.0367375
-0.0337126
-0.0311937
-0.0293514
-0.0282545
-0.0278397
-0.0279327
-0.028363
-0.029078
-0.0978769
-0.0986778
-0.0993436
-0.0998713
-0.100259
-0.100504
-0.100606
-0.100564
-0.100381
-0.100056
-0.0995918
-0.0989915
-0.0982584
-0.0973965
-0.0964105
-0.0953057
-0.0940879
-0.0927635
-0.0913395
-0.0898232
-0.0882228
-0.0865468
-0.084804
-0.0830037
-0.0811553
-0.0792682
-0.077351
-0.0754114
-0.0734551
-0.0714853
-0.0695013
-0.0674978
-0.0654634
-0.06338
-0.0612223
-0.0589583
-0.0565512
-0.0539644
-0.0511689
-0.0481565
-0.0449549
-0.0416448
-0.038369
-0.035326
-0.0327379
-0.0307956
-0.0295958
-0.0291007
-0.0291481
-0.0295668
-0.0303
-0.0984687
-0.0992768
-0.0999487
-0.100482
-0.100873
-0.101121
-0.101225
-0.101184
-0.101
-0.100673
-0.100206
-0.0996017
-0.0988634
-0.0979954
-0.0970024
-0.0958895
-0.0946629
-0.0933288
-0.0918942
-0.0903668
-0.0887548
-0.0870667
-0.0853116
-0.0834991
-0.081639
-0.0797411
-0.0778149
-0.075869
-0.0739104
-0.0719438
-0.0699705
-0.0679873
-0.0659852
-0.0639488
-0.0618551
-0.059674
-0.0573694
-0.0549031
-0.0522417
-0.0493679
-0.0462963
-0.0430904
-0.0398765
-0.0368418
-0.0342096
-0.0321859
-0.030894
-0.030322
-0.0303229
-0.0307276
-0.0314759
)
;

boundaryField
{
    movingWall
    {
        type            zeroGradient;
    }
    fixedWalls
    {
        type            zeroGradient;
    }
    frontAndBack
    {
        type            empty;
    }
    procBoundary6to1
    {
        type            processor;
        value           nonuniform List<scalar> 
26
(
-0.0488725
-0.0490058
-0.0490246
-0.0489297
-0.0487203
-0.051927
-0.0550935
-0.0581252
-0.061028
-0.0638108
-0.0664835
-0.0664835
-0.0686739
-0.0700425
-0.0706536
-0.0711516
-0.0711516
-0.0716933
-0.0739815
-0.0761858
-0.0783073
-0.0803459
-0.0822997
-0.0841658
-0.0859403
-0.0876183
)
;
    }
    procBoundary6to3
    {
        type            processor;
        value           nonuniform List<scalar> 9(-0.0891947 -0.0906639 -0.0920207 -0.0932599 -0.0943762 -0.0953651 -0.0962224 -0.0969445 -0.0975284);
    }
    procBoundary6to4
    {
        type            processor;
        value           nonuniform List<scalar> 
30
(
-0.0874467
-0.0856802
-0.0838563
-0.0819852
-0.0800771
-0.0781423
-0.0761901
-0.0742287
-0.0722642
-0.0702995
-0.0683335
-0.0663598
-0.0643651
-0.0623293
-0.0602242
-0.0580151
-0.0556635
-0.0531328
-0.0503986
-0.0474638
-0.0443761
-0.0412445
-0.0382428
-0.0355906
-0.0335052
-0.0321332
-0.0314892
-0.0314437
-0.0318322
-0.0325927
)
;
    }
    procBoundary6to5
    {
        type            processor;
        value           nonuniform List<scalar> 
21
(
-0.0989189
-0.099733
-0.10041
-0.100947
-0.101342
-0.101593
-0.101698
-0.101657
-0.101472
-0.101144
-0.100674
-0.100066
-0.0993228
-0.098449
-0.0974493
-0.096329
-0.095094
-0.0937508
-0.0923065
-0.0907688
-0.089146
)
;
    }
    procBoundary6to7
    {
        type            processor;
        value           nonuniform List<scalar> 
45
(
-0.0517611
-0.0517611
-0.0327312
-0.0304968
-0.0281826
-0.0258149
-0.0234267
-0.0210576
-0.0187525
-0.0165591
-0.0145253
-0.0126948
-0.0111032
-0.00977386
-0.00871579
-0.00792237
-0.0073728
-0.00703518
-0.0068708
-0.00683886
-0.00690047
-0.00702156
-0.00717426
-0.00733719
-0.00749478
-0.00763602
-0.00775309
-0.00784212
-0.00790384
-0.0545635
-0.0545635
-0.0540402
-0.0534042
-0.052654
-0.0517881
-0.0508044
-0.0497004
-0.0484731
-0.0471193
-0.0456357
-0.0440194
-0.042268
-0.0403809
-0.0383592
-0.0383592
)
;
    }
}


// ************************************************************************* //
