/*--------------------------------*- C++ -*----------------------------------*\
  =========                 |
  \\      /  F ield         | OpenFOAM: The Open Source CFD Toolbox
   \\    /   O peration     | Website:  https://openfoam.org
    \\  /    A nd           | Version:  9
     \\/     M anipulation  |
\*---------------------------------------------------------------------------*/
FoamFile
{
    format      ascii;
    class       volVectorField;
    location    "1.5";
    object      U;
}
// * * * * * * * * * * * * * * * * * * * * * * * * * * * * * * * * * * * * * //

dimensions      [0 1 -1 0 0 0 0];

internalField   nonuniform List<vector> 
1240
(
(-0.292809 -0.00289159 0)
(-0.293355 -0.0141098 0)
(-0.293938 -0.0253528 0)
(-0.294571 -0.0366247 0)
(-0.295264 -0.0479341 0)
(-0.281555 -0.00239944 0)
(-0.282029 -0.0135843 0)
(-0.282537 -0.0247828 0)
(-0.283092 -0.035999 0)
(-0.283705 -0.0472388 0)
(-0.284384 -0.0585134 0)
(-0.302117 -0.238941 0)
(-0.301277 -0.250569 0)
(-0.299247 -0.261322 0)
(-0.295729 -0.270821 0)
(-0.290423 -0.278629 0)
(-0.283045 -0.284263 0)
(-0.273356 -0.287219 0)
(-0.261195 -0.287007 0)
(-0.246508 -0.283202 0)
(-0.229381 -0.275493 0)
(-0.210061 -0.263738 0)
(-0.18896 -0.248014 0)
(-0.166642 -0.228647 0)
(-0.143789 -0.206209 0)
(-0.12114 -0.181494 0)
(-0.0994239 -0.155447 0)
(-0.079288 -0.129078 0)
(-0.061239 -0.10337 0)
(-0.0456095 -0.0792003 0)
(-0.0325512 -0.0572838 0)
(-0.0220527 -0.0381607 0)
(-0.0139711 -0.0222074 0)
(-0.00807006 -0.00967117 0)
(-0.00405367 -0.00071585 0)
(-0.00159045 0.00453293 0)
(-0.000339211 0.00595035 0)
(1.28913e-05 0.00338161 0)
(-0.270527 -0.00196605 0)
(-0.270956 -0.0131228 0)
(-0.271409 -0.0242841 0)
(-0.271896 -0.035453 0)
(-0.272428 -0.046635 0)
(-0.273016 -0.0578369 0)
(-0.273673 -0.0690695 0)
(-0.274414 -0.0803452 0)
(-0.275258 -0.09168 0)
(-0.276221 -0.103093 0)
(-0.277319 -0.114607 0)
(-0.278566 -0.126245 0)
(-0.279972 -0.138035 0)
(-0.281537 -0.150002 0)
(-0.28325 -0.162168 0)
(-0.285086 -0.174545 0)
(-0.286997 -0.187134 0)
(-0.288907 -0.199913 0)
(-0.290711 -0.212831 0)
(-0.292263 -0.225793 0)
(-0.293379 -0.238656 0)
(-0.293827 -0.251215 0)
(-0.293339 -0.26319 0)
(-0.291607 -0.274225 0)
(-0.288302 -0.283886 0)
(-0.283092 -0.29167 0)
(-0.275665 -0.297022 0)
(-0.265765 -0.299368 0)
(-0.253225 -0.298164 0)
(-0.238011 -0.292946 0)
(-0.220246 -0.283403 0)
(-0.200241 -0.269437 0)
(-0.17849 -0.251215 0)
(-0.15565 -0.2292 0)
(-0.132489 -0.204136 0)
(-0.109819 -0.176996 0)
(-0.0884053 -0.148893 0)
(-0.0688939 -0.120966 0)
(-0.0517537 -0.0942773 0)
(-0.0372525 -0.0697289 0)
(-0.0254626 -0.0480237 0)
(-0.0162921 -0.0296647 0)
(-0.00952533 -0.0149873 0)
(-0.00486433 -0.00420922 0)
(-0.00195963 0.00251451 0)
(-0.000446118 0.00504375 0)
(4.07372e-06 0.00321131 0)
(-0.259891 -0.00155933 0)
(-0.260303 -0.0126999 0)
(-0.260724 -0.0238386 0)
(-0.261161 -0.0349765 0)
(-0.261622 -0.0461171 0)
(-0.262119 -0.0572655 0)
(-0.262665 -0.0684289 0)
(-0.263276 -0.0796181 0)
(-0.263972 -0.0908473 0)
(-0.264773 -0.102135 0)
(-0.265701 -0.113504 0)
(-0.26678 -0.124981 0)
(-0.268028 -0.136597 0)
(-0.269462 -0.148385 0)
(-0.27109 -0.16038 0)
(-0.272905 -0.172611 0)
(-0.274887 -0.185101 0)
(-0.276989 -0.197857 0)
(-0.279138 -0.21086 0)
(-0.28122 -0.22406 0)
(-0.283082 -0.237355 0)
(-0.284522 -0.250587 0)
(-0.285289 -0.26352 0)
(-0.285084 -0.275836 0)
(-0.28357 -0.287126 0)
(-0.280382 -0.296887 0)
(-0.275156 -0.304539 0)
(-0.267554 -0.309449 0)
(-0.257306 -0.310968 0)
(-0.244252 -0.308494 0)
(-0.228386 -0.301537 0)
(-0.209889 -0.289805 0)
(-0.18915 -0.273274 0)
(-0.166763 -0.252241 0)
(-0.143487 -0.227349 0)
(-0.120181 -0.199545 0)
(-0.0977133 -0.170007 0)
(-0.0768692 -0.140018 0)
(-0.0582662 -0.110832 0)
(-0.0423084 -0.0835632 0)
(-0.0291759 -0.0591095 0)
(-0.0188474 -0.038135 0)
(-0.011144 -0.0210917 0)
(-0.0057754 -0.00827247 0)
(-0.00237953 0.000125012 0)
(-0.00056996 0.0039382 0)
(-6.8923e-06 0.00298475 0)
(-0.249727 -0.00114924 0)
(-0.250148 -0.0122899 0)
(-0.250559 -0.0234249 0)
(-0.250966 -0.0345531 0)
(-0.251374 -0.0456751 0)
(-0.251792 -0.0567931 0)
(-0.252233 -0.0679114 0)
(-0.252714 -0.0790372 0)
(-0.253254 -0.0901818 0)
(-0.253876 -0.101361 0)
(-0.254605 -0.112597 0)
(-0.255471 -0.123915 0)
(-0.2565 -0.135348 0)
(-0.25772 -0.146936 0)
(-0.259153 -0.158718 0)
(-0.260813 -0.17074 0)
(-0.2627 -0.18304 0)
(-0.264798 -0.19565 0)
(-0.267063 -0.208585 0)
(-0.269417 -0.221832 0)
(-0.271742 -0.235336 0)
(-0.273873 -0.248987 0)
(-0.275589 -0.262605 0)
(-0.276614 -0.275921 0)
(-0.276618 -0.288566 0)
(-0.275228 -0.300064 0)
(-0.272046 -0.309836 0)
(-0.266672 -0.317212 0)
(-0.258748 -0.321469 0)
(-0.247999 -0.321881 0)
(-0.234282 -0.317792 0)
(-0.217636 -0.308707 0)
(-0.198319 -0.29438 0)
(-0.176822 -0.274903 0)
(-0.15385 -0.250752 0)
(-0.130273 -0.222793 0)
(-0.107034 -0.192216 0)
(-0.0850434 -0.160414 0)
(-0.0650722 -0.128831 0)
(-0.0476792 -0.098807 0)
(-0.0331748 -0.0714711 0)
(-0.0216321 -0.0476846 0)
(-0.0129267 -0.0280501 0)
(-0.00678905 -0.0129618 0)
(-0.0028519 -0.00267759 0)
(-0.000711526 0.00260789 0)
(-2.01481e-05 0.00269314 0)
(-0.240046 -0.000709856 0)
(-0.240498 -0.0118691 0)
(-0.240921 -0.0230214 0)
(-0.241316 -0.0341632 0)
(-0.241689 -0.045292 0)
(-0.242045 -0.0564065 0)
(-0.242397 -0.0675074 0)
(-0.24276 -0.078598 0)
(-0.243152 -0.0896859 0)
(-0.243597 -0.100783 0)
(-0.244122 -0.111908 0)
(-0.244758 -0.123085 0)
(-0.245538 -0.134346 0)
(-0.246496 -0.14573 0)
(-0.247666 -0.157284 0)
(-0.249076 -0.169059 0)
(-0.250748 -0.18111 0)
(-0.252688 -0.193487 0)
(-0.254881 -0.206232 0)
(-0.257286 -0.219367 0)
(-0.259821 -0.232883 0)
(-0.262361 -0.246721 0)
(-0.264724 -0.260758 0)
(-0.266667 -0.274784 0)
(-0.267886 -0.288486 0)
(-0.268016 -0.301434 0)
(-0.266646 -0.313074 0)
(-0.263339 -0.32273 0)
(-0.257669 -0.329634 0)
(-0.249258 -0.332964 0)
(-0.237837 -0.331917 0)
(-0.223299 -0.325797 0)
(-0.205751 -0.314127 0)
(-0.185548 -0.296754 0)
(-0.163303 -0.273939 0)
(-0.139851 -0.246394 0)
(-0.11617 -0.215258 0)
(-0.0932718 -0.181988 0)
(-0.0720771 -0.148193 0)
(-0.0533095 -0.115449 0)
(-0.0374318 -0.0851417 0)
(-0.0246349 -0.0583691 0)
(-0.0148706 -0.0359233 0)
(-0.00790589 -0.018332 0)
(-0.00337797 -0.0059356 0)
(-0.000871505 0.00102631 0)
(-3.58481e-05 0.00232727 0)
(-0.230261 0.0109783 0)
(-0.230805 -0.000220879 0)
(-0.231305 -0.0114176 0)
(-0.231757 -0.0226084 0)
(-0.23216 -0.0337871 0)
(-0.232516 -0.0449481 0)
(-0.232831 -0.0560864 0)
(-0.233115 -0.0671987 0)
(-0.23338 -0.0782844 0)
(-0.233643 -0.0893466 0)
(-0.233928 -0.100393 0)
(-0.23426 -0.111437 0)
(-0.234672 -0.1225 0)
(-0.235198 -0.133611 0)
(-0.235878 -0.144808 0)
(-0.236752 -0.156138 0)
(-0.23786 -0.167656 0)
(-0.239238 -0.179426 0)
(-0.240912 -0.191513 0)
(-0.242894 -0.203981 0)
(-0.245174 -0.216883 0)
(-0.247706 -0.230249 0)
(-0.250407 -0.24407 0)
(-0.253138 -0.258281 0)
(-0.255698 -0.272737 0)
(-0.257819 -0.287192 0)
(-0.259163 -0.301278 0)
(-0.259326 -0.314486 0)
(-0.257855 -0.326166 0)
(-0.254278 -0.335534 0)
(-0.248141 -0.341706 0)
(-0.239059 -0.343757 0)
(-0.226787 -0.340815 0)
(-0.211271 -0.332166 0)
(-0.192713 -0.317395 0)
(-0.171595 -0.296497 0)
(-0.14867 -0.26997 0)
(-0.124909 -0.238827 0)
(-0.101391 -0.204523 0)
(-0.0791671 -0.168794 0)
(-0.0591287 -0.133443 0)
(-0.0419078 -0.10013 0)
(-0.0278374 -0.0702297 0)
(-0.0169691 -0.0447651 0)
(-0.00912469 -0.0244353 0)
(-0.0039583 -0.00969081 0)
(-0.00105046 -0.000833354 0)
(-5.41387e-05 0.00187763 0)
(-0.221304 0.0115804 0)
(-0.221925 0.000332094 0)
(-0.222485 -0.01092 0)
(-0.222979 -0.0221691 0)
(-0.223406 -0.0334064 0)
(-0.223764 -0.044623 0)
(-0.224059 -0.0558106 0)
(-0.224297 -0.066962 0)
(-0.224489 -0.0780725 0)
(-0.22465 -0.0891404 0)
(-0.224801 -0.100169 0)
(-0.224967 -0.111166 0)
(-0.225177 -0.122149 0)
(-0.225467 -0.133142 0)
(-0.225878 -0.144178 0)
(-0.226454 -0.155304 0)
(-0.227241 -0.166575 0)
(-0.228285 -0.178058 0)
(-0.22963 -0.189829 0)
(-0.231307 -0.201967 0)
(-0.233333 -0.21455 0)
(-0.235699 -0.227642 0)
(-0.238357 -0.241279 0)
(-0.241215 -0.255453 0)
(-0.244118 -0.270083 0)
(-0.246843 -0.284998 0)
(-0.24909 -0.299901 0)
(-0.250481 -0.314353 0)
(-0.250569 -0.327749 0)
(-0.248861 -0.339324 0)
(-0.244846 -0.348166 0)
(-0.238051 -0.353265 0)
(-0.228102 -0.353596 0)
(-0.214792 -0.348228 0)
(-0.198155 -0.336473 0)
(-0.178515 -0.318033 0)
(-0.156507 -0.293131 0)
(-0.133043 -0.26258 0)
(-0.109227 -0.227757 0)
(-0.0862128 -0.190464 0)
(-0.065051 -0.152703 0)
(-0.0465525 -0.116418 0)
(-0.031214 -0.0832899 0)
(-0.0192111 -0.0546195 0)
(-0.010442 -0.0313193 0)
(-0.00459251 -0.0139836 0)
(-0.00124875 -0.00299796 0)
(-7.5224e-05 0.0013344 0)
(-0.210153 0.046075 0)
(-0.211018 0.0348334 0)
(-0.211839 0.0235636 0)
(-0.212606 0.0122693 0)
(-0.213307 0.000957307 0)
(-0.213934 -0.0103659 0)
(-0.214481 -0.0216905 0)
(-0.214943 -0.033005 0)
(-0.21532 -0.0442977 0)
(-0.215613 -0.055557 0)
(-0.215829 -0.0667721 0)
(-0.215975 -0.0779342 0)
(-0.216064 -0.0890373 0)
(-0.216114 -0.10008 0)
(-0.216147 -0.111065 0)
(-0.21619 -0.122003 0)
(-0.216277 -0.132914 0)
(-0.216447 -0.143825 0)
(-0.216745 -0.154779 0)
(-0.217221 -0.165827 0)
(-0.217927 -0.177039 0)
(-0.218917 -0.188492 0)
(-0.220239 -0.200277 0)
(-0.221931 -0.21249 0)
(-0.224012 -0.225221 0)
(-0.226473 -0.238548 0)
(-0.229262 -0.25251 0)
(-0.232274 -0.267095 0)
(-0.235333 -0.282201 0)
(-0.238189 -0.297615 0)
(-0.240502 -0.312977 0)
(-0.241851 -0.327755 0)
(-0.241741 -0.341227 0)
(-0.239634 -0.352489 0)
(-0.234991 -0.360485 0)
(-0.227331 -0.364072 0)
(-0.216306 -0.36213 0)
(-0.201781 -0.353707 0)
(-0.183908 -0.338196 0)
(-0.163168 -0.315499 0)
(-0.140373 -0.286159 0)
(-0.116602 -0.251392 0)
(-0.0930746 -0.21299 0)
(-0.0709784 -0.173104 0)
(-0.0513047 -0.133954 0)
(-0.0347311 -0.097552 0)
(-0.021581 -0.065518 0)
(-0.011852 -0.0390254 0)
(-0.00527929 -0.0188521 0)
(-0.0014665 -0.00549392 0)
(-9.92407e-05 0.000687596 0)
(-0.201307 0.0470135 0)
(-0.202283 0.0357302 0)
(-0.203206 0.0244061 0)
(-0.204064 0.0130461 0)
(-0.204846 0.00165785 0)
(-0.205542 -0.00974932 0)
(-0.206146 -0.0211632 0)
(-0.206654 -0.03257 0)
(-0.207062 -0.0439553 0)
(-0.207372 -0.0553045 0)
(-0.207587 -0.0666037 0)
(-0.207714 -0.0778403 0)
(-0.207762 -0.0890045 0)
(-0.207746 -0.10009 0)
(-0.207684 -0.111094 0)
(-0.2076 -0.122023 0)
(-0.207525 -0.132889 0)
(-0.207496 -0.143714 0)
(-0.207554 -0.154534 0)
(-0.207751 -0.165397 0)
(-0.20814 -0.176365 0)
(-0.208782 -0.18752 0)
(-0.209734 -0.198955 0)
(-0.211053 -0.210778 0)
(-0.212781 -0.223099 0)
(-0.214938 -0.236026 0)
(-0.217512 -0.249646 0)
(-0.220443 -0.264002 0)
(-0.223608 -0.279068 0)
(-0.226808 -0.294712 0)
(-0.229754 -0.310665 0)
(-0.232062 -0.326479 0)
(-0.233261 -0.341506 0)
(-0.232806 -0.354883 0)
(-0.230117 -0.365542 0)
(-0.224632 -0.372267 0)
(-0.215882 -0.373782 0)
(-0.203574 -0.368897 0)
(-0.18768 -0.356693 0)
(-0.168506 -0.336726 0)
(-0.146726 -0.309207 0)
(-0.123348 -0.275107 0)
(-0.0996088 -0.23612 0)
(-0.0768034 -0.194482 0)
(-0.0560937 -0.152656 0)
(-0.0383474 -0.112995 0)
(-0.024058 -0.077477 0)
(-0.013346 -0.0475871 0)
(-0.00601613 -0.0243305 0)
(-0.00170349 -0.00834653 0)
(-0.00012632 -7.28003e-05 0)
(-0.192543 0.0480627 0)
(-0.19362 0.0367296 0)
(-0.194636 0.0253422 0)
(-0.195578 0.013907 0)
(-0.196436 0.002433 0)
(-0.197201 -0.00906789 0)
(-0.197865 -0.0205814 0)
(-0.198424 -0.0320915 0)
(-0.198875 -0.0435816 0)
(-0.199216 -0.0550344 0)
(-0.19945 -0.0664333 0)
(-0.199582 -0.0777627 0)
(-0.199618 -0.0890089 0)
(-0.199569 -0.100161 0)
(-0.199451 -0.111214 0)
(-0.199285 -0.122165 0)
(-0.199094 -0.133022 0)
(-0.198913 -0.1438 0)
(-0.198781 -0.154528 0)
(-0.198744 -0.165246 0)
(-0.198857 -0.176012 0)
(-0.199181 -0.186902 0)
(-0.199781 -0.198009 0)
(-0.200723 -0.209447 0)
(-0.202067 -0.221339 0)
(-0.203859 -0.233817 0)
(-0.206119 -0.247003 0)
(-0.208831 -0.260992 0)
(-0.211919 -0.275825 0)
(-0.215239 -0.291454 0)
(-0.218557 -0.307701 0)
(-0.221541 -0.324219 0)
(-0.223756 -0.340449 0)
(-0.224674 -0.355597 0)
(-0.223699 -0.368625 0)
(-0.220215 -0.378282 0)
(-0.213654 -0.383179 0)
(-0.203583 -0.381923 0)
(-0.1898 -0.373302 0)
(-0.172426 -0.356511 0)
(-0.151965 -0.331385 0)
(-0.129313 -0.298573 0)
(-0.105675 -0.25958 0)
(-0.0824141 -0.21664 0)
(-0.0608408 -0.172407 0)
(-0.0420147 -0.12957 0)
(-0.0266162 -0.0904959 0)
(-0.0149125 -0.0570275 0)
(-0.00679911 -0.0304484 0)
(-0.0019591 -0.0115794 0)
(-0.000156551 -0.000956647 0)
(-0.18378 0.0492106 0)
(-0.184944 0.0378203 0)
(-0.186041 0.0263625 0)
(-0.187058 0.0148449 0)
(-0.187986 0.00327862 0)
(-0.188815 -0.0083225 0)
(-0.189539 -0.0199423 0)
(-0.190153 -0.0315629 0)
(-0.190653 -0.0431656 0)
(-0.191037 -0.0547311 0)
(-0.191307 -0.0662405 0)
(-0.191464 -0.0776757 0)
(-0.191515 -0.0890198 0)
(-0.191466 -0.100259 0)
(-0.191329 -0.111382 0)
(-0.191121 -0.122383 0)
(-0.190863 -0.133264 0)
(-0.190581 -0.144032 0)
(-0.190311 -0.154708 0)
(-0.190095 -0.165325 0)
(-0.189985 -0.175933 0)
(-0.190039 -0.186601 0)
(-0.190325 -0.197418 0)
(-0.190915 -0.208496 0)
(-0.191879 -0.219967 0)
(-0.193283 -0.231976 0)
(-0.195175 -0.244675 0)
(-0.197573 -0.258201 0)
(-0.200449 -0.272653 0)
(-0.20371 -0.288062 0)
(-0.207181 -0.304344 0)
(-0.210585 -0.321254 0)
(-0.213539 -0.338341 0)
(-0.215548 -0.354903 0)
(-0.216024 -0.369962 0)
(-0.214322 -0.382277 0)
(-0.209803 -0.390392 0)
(-0.201916 -0.392751 0)
(-0.190298 -0.387877 0)
(-0.174884 -0.374613 0)
(-0.155994 -0.35239 0)
(-0.13437 -0.32147 0)
(-0.111144 -0.283079 0)
(-0.0876986 -0.23935 0)
(-0.0654629 -0.193062 0)
(-0.0456789 -0.147205 0)
(-0.0292252 -0.104555 0)
(-0.016537 -0.0673582 0)
(-0.00762292 -0.0372294 0)
(-0.00223227 -0.0152137 0)
(-0.000189975 -0.00197344 0)
(-0.174944 0.0504412 0)
(-0.17618 0.0389882 0)
(-0.177344 0.0274549 0)
(-0.178426 0.0158507 0)
(-0.179415 0.00418842 0)
(-0.180303 -0.00751626 0)
(-0.181085 -0.0192455 0)
(-0.181754 -0.0309798 0)
(-0.182308 -0.042699 0)
(-0.182745 -0.054382 0)
(-0.183063 -0.0660081 0)
(-0.183264 -0.0775571 0)
(-0.183352 -0.0890098 0)
(-0.18333 -0.100349 0)
(-0.183208 -0.111561 0)
(-0.182998 -0.122635 0)
(-0.182716 -0.133565 0)
(-0.182383 -0.144356 0)
(-0.18203 -0.155018 0)
(-0.181693 -0.165576 0)
(-0.181418 -0.176073 0)
(-0.181261 -0.186566 0)
(-0.181286 -0.197139 0)
(-0.181567 -0.207898 0)
(-0.182182 -0.218976 0)
(-0.183208 -0.230525 0)
(-0.184715 -0.242716 0)
(-0.186749 -0.255719 0)
(-0.189322 -0.269686 0)
(-0.192391 -0.284715 0)
(-0.195836 -0.300813 0)
(-0.199443 -0.317839 0)
(-0.202885 -0.335457 0)
(-0.205715 -0.353076 0)
(-0.207373 -0.369809 0)
(-0.20721 -0.384461 0)
(-0.204541 -0.395553 0)
(-0.198723 -0.401415 0)
(-0.189254 -0.400346 0)
(-0.175891 -0.390857 0)
(-0.158759 -0.371966 0)
(-0.138427 -0.343502 0)
(-0.115905 -0.306325 0)
(-0.0925518 -0.26237 0)
(-0.0698756 -0.214445 0)
(-0.0492822 -0.1658 0)
(-0.0318506 -0.119614 0)
(-0.0182022 -0.0785779 0)
(-0.00848076 -0.0446895 0)
(-0.00252143 -0.0192675 0)
(-0.000226562 -0.00313206 0)
(-0.165975 0.0517379 0)
(-0.167267 0.0402183 0)
(-0.168484 0.0286068 0)
(-0.169618 0.0169141 0)
(-0.170659 0.00515489 0)
(-0.1716 -0.00665373 0)
(-0.172436 -0.0184924 0)
(-0.173161 -0.0303404 0)
(-0.173772 -0.0421761 0)
(-0.174267 -0.0539774 0)
(-0.174644 -0.0657221 0)
(-0.174903 -0.0773885 0)
(-0.175046 -0.0889556 0)
(-0.175076 -0.100404 0)
(-0.174998 -0.111716 0)
(-0.174819 -0.122879 0)
(-0.174553 -0.133881 0)
(-0.174215 -0.14472 0)
(-0.173831 -0.155402 0)
(-0.173429 -0.165941 0)
(-0.173049 -0.17637 0)
(-0.172743 -0.186738 0)
(-0.172569 -0.197117 0)
(-0.1726 -0.207606 0)
(-0.172914 -0.218332 0)
(-0.173596 -0.229449 0)
(-0.17473 -0.24114 0)
(-0.176385 -0.253597 0)
(-0.178606 -0.267012 0)
(-0.181393 -0.281545 0)
(-0.18468 -0.297283 0)
(-0.188313 -0.314189 0)
(-0.192027 -0.332045 0)
(-0.195432 -0.350381 0)
(-0.198012 -0.368426 0)
(-0.199135 -0.385064 0)
(-0.198096 -0.398837 0)
(-0.194188 -0.40801 0)
(-0.186792 -0.410706 0)
(-0.175503 -0.405136 0)
(-0.160255 -0.389915 0)
(-0.141424 -0.364408 0)
(-0.11987 -0.329038 0)
(-0.0968797 -0.285445 0)
(-0.0739976 -0.236363 0)
(-0.0527646 -0.18523 0)
(-0.034455 -0.135613 0)
(-0.0198884 -0.0906707 0)
(-0.00936445 -0.0528367 0)
(-0.0028245 -0.023755 0)
(-0.000266212 -0.0044405 0)
(-0.156824 0.0530835 0)
(-0.158156 0.0414957 0)
(-0.159413 0.0298054 0)
(-0.160588 0.0180248 0)
(-0.161672 0.00617008 0)
(-0.162659 -0.00574025 0)
(-0.163544 -0.0176856 0)
(-0.164323 -0.0296443 0)
(-0.164993 -0.0415936 0)
(-0.16555 -0.0535106 0)
(-0.165993 -0.0653721 0)
(-0.166322 -0.0771553 0)
(-0.166536 -0.0888381 0)
(-0.166636 -0.100399 0)
(-0.166624 -0.111819 0)
(-0.166507 -0.123081 0)
(-0.166291 -0.134171 0)
(-0.16599 -0.14508 0)
(-0.165619 -0.155807 0)
(-0.165205 -0.166361 0)
(-0.16478 -0.176762 0)
(-0.164386 -0.187051 0)
(-0.164078 -0.197287 0)
(-0.163922 -0.207559 0)
(-0.163995 -0.217985 0)
(-0.164385 -0.228715 0)
(-0.165182 -0.239933 0)
(-0.166473 -0.251848 0)
(-0.168327 -0.264681 0)
(-0.170783 -0.278642 0)
(-0.173821 -0.293889 0)
(-0.177344 -0.310482 0)
(-0.181151 -0.328319 0)
(-0.184917 -0.347062 0)
(-0.188178 -0.366068 0)
(-0.190339 -0.384329 0)
(-0.190698 -0.400452 0)
(-0.188508 -0.412681 0)
(-0.183061 -0.419013 0)
(-0.173811 -0.417408 0)
(-0.160512 -0.406096 0)
(-0.14334 -0.383968 0)
(-0.122978 -0.350962 0)
(-0.100605 -0.308323 0)
(-0.0777541 -0.258608 0)
(-0.0560674 -0.205354 0)
(-0.0369994 -0.152472 0)
(-0.0215739 -0.103606 0)
(-0.0102645 -0.0616697 0)
(-0.00313893 -0.0286859 0)
(-0.000308745 -0.00590565 0)
(-0.147457 0.0544617 0)
(-0.148814 0.042806 0)
(-0.150098 0.0310384 0)
(-0.151303 0.0191727 0)
(-0.152422 0.00722616 0)
(-0.153448 -0.00478137 0)
(-0.154379 -0.0168284 0)
(-0.15521 -0.0288922 0)
(-0.155938 -0.0409495 0)
(-0.15656 -0.0529768 0)
(-0.157075 -0.0649502 0)
(-0.157481 -0.0768465 0)
(-0.157776 -0.0886426 0)
(-0.157961 -0.100316 0)
(-0.158036 -0.111846 0)
(-0.158003 -0.123213 0)
(-0.157867 -0.1344 0)
(-0.157635 -0.145394 0)
(-0.15732 -0.156188 0)
(-0.15694 -0.166783 0)
(-0.156521 -0.177192 0)
(-0.156099 -0.187443 0)
(-0.15572 -0.197585 0)
(-0.155443 -0.207694 0)
(-0.155342 -0.217874 0)
(-0.1555 -0.228269 0)
(-0.156012 -0.239059 0)
(-0.156975 -0.250458 0)
(-0.158477 -0.262707 0)
(-0.160584 -0.276055 0)
(-0.16332 -0.290721 0)
(-0.166639 -0.306853 0)
(-0.170402 -0.324457 0)
(-0.174348 -0.34333 0)
(-0.178077 -0.362969 0)
(-0.181043 -0.382498 0)
(-0.182567 -0.400617 0)
(-0.181887 -0.4156 0)
(-0.178232 -0.42537 0)
(-0.17094 -0.427683 0)
(-0.159597 -0.420424 0)
(-0.144186 -0.402016 0)
(-0.125199 -0.371871 0)
(-0.10367 -0.330764 0)
(-0.081081 -0.280967 0)
(-0.0591351 -0.226011 0)
(-0.0394446 -0.170095 0)
(-0.023236 -0.11734 0)
(-0.0111706 -0.0711775 0)
(-0.00346172 -0.034065 0)
(-0.000353901 -0.00753301 0)
(-0.137851 0.0558575 0)
(-0.139219 0.0441362 0)
(-0.140519 0.0322948 0)
(-0.141745 0.0203485 0)
(-0.14289 0.00831582 0)
(-0.143951 -0.00378249 0)
(-0.144922 -0.015924 0)
(-0.145802 -0.0280855 0)
(-0.146588 -0.0402432 0)
(-0.147276 -0.0523731 0)
(-0.147866 -0.0644512 0)
(-0.148355 -0.0764539 0)
(-0.14874 -0.0883577 0)
(-0.149021 -0.10014 0)
(-0.149197 -0.111778 0)
(-0.149267 -0.123251 0)
(-0.149233 -0.13454 0)
(-0.149099 -0.145628 0)
(-0.148873 -0.156504 0)
(-0.148568 -0.167162 0)
(-0.148202 -0.177606 0)
(-0.147804 -0.187856 0)
(-0.147412 -0.197947 0)
(-0.147079 -0.207942 0)
(-0.146869 -0.217933 0)
(-0.146863 -0.22805 0)
(-0.147152 -0.238465 0)
(-0.147839 -0.24939 0)
(-0.149023 -0.261078 0)
(-0.150792 -0.273804 0)
(-0.153205 -0.287836 0)
(-0.156262 -0.303398 0)
(-0.159879 -0.3206 0)
(-0.163863 -0.339367 0)
(-0.16788 -0.359342 0)
(-0.17144 -0.379797 0)
(-0.173907 -0.399555 0)
(-0.174524 -0.416962 0)
(-0.172481 -0.429917 0)
(-0.167027 -0.436024 0)
(-0.157603 -0.43287 0)
(-0.144005 -0.41843 0)
(-0.126529 -0.391576 0)
(-0.106038 -0.352547 0)
(-0.0839273 -0.303227 0)
(-0.0619185 -0.247032 0)
(-0.041753 -0.18837 0)
(-0.0248514 -0.131812 0)
(-0.0120715 -0.0813395 0)
(-0.00378948 -0.0398914 0)
(-0.000401339 -0.00932649 0)
(-0.127992 0.0572575 0)
(-0.129361 0.0454745 0)
(-0.130667 0.0335647 0)
(-0.131905 0.0215442 0)
(-0.13307 0.00943254 0)
(-0.134159 -0.00274854 0)
(-0.135168 -0.0149759 0)
(-0.136095 -0.027226 0)
(-0.136937 -0.0394747 0)
(-0.137692 -0.0516979 0)
(-0.138359 -0.0638715 0)
(-0.138934 -0.0759718 0)
(-0.139415 -0.0879754 0)
(-0.1398 -0.0998591 0)
(-0.140087 -0.1116 0)
(-0.140275 -0.123177 0)
(-0.140361 -0.134568 0)
(-0.140347 -0.145755 0)
(-0.140237 -0.156721 0)
(-0.140039 -0.167456 0)
(-0.139765 -0.177958 0)
(-0.139438 -0.188235 0)
(-0.139087 -0.198313 0)
(-0.138756 -0.208241 0)
(-0.138502 -0.218095 0)
(-0.138397 -0.227992 0)
(-0.13853 -0.23809 0)
(-0.139 -0.248595 0)
(-0.139916 -0.259761 0)
(-0.14138 -0.271879 0)
(-0.143476 -0.285257 0)
(-0.146243 -0.300179 0)
(-0.149651 -0.316851 0)
(-0.153565 -0.335317 0)
(-0.15772 -0.355367 0)
(-0.161693 -0.376432 0)
(-0.164897 -0.397483 0)
(-0.166602 -0.416968 0)
(-0.165984 -0.432813 0)
(-0.162224 -0.442529 0)
(-0.154642 -0.443449 0)
(-0.142864 -0.43314 0)
(-0.126988 -0.409931 0)
(-0.107696 -0.373479 0)
(-0.0862571 -0.325186 0)
(-0.0643765 -0.268245 0)
(-0.0438903 -0.207173 0)
(-0.0263974 -0.146953 0)
(-0.0129558 -0.0921251 0)
(-0.00411857 -0.0461587 0)
(-0.000450646 -0.0112882 0)
(-0.117879 0.0586502 0)
(-0.119238 0.0468113 0)
(-0.120542 0.0348397 0)
(-0.121785 0.0227527 0)
(-0.122965 0.0105707 0)
(-0.124077 -0.00168388 0)
(-0.12512 -0.0139872 0)
(-0.126091 -0.0263156 0)
(-0.126988 -0.0386447 0)
(-0.12781 -0.0509505 0)
(-0.128554 -0.0632089 0)
(-0.129218 -0.0753966 0)
(-0.129799 -0.0874902 0)
(-0.130294 -0.0994666 0)
(-0.1307 -0.111303 0)
(-0.131015 -0.122977 0)
(-0.131234 -0.134467 0)
(-0.131358 -0.145752 0)
(-0.131385 -0.156813 0)
(-0.13132 -0.167634 0)
(-0.131171 -0.178209 0)
(-0.130953 -0.188536 0)
(-0.130688 -0.198632 0)
(-0.130412 -0.208531 0)
(-0.130172 -0.218296 0)
(-0.130033 -0.228028 0)
(-0.130075 -0.237868 0)
(-0.130394 -0.248011 0)
(-0.131101 -0.258706 0)
(-0.132306 -0.270251 0)
(-0.134111 -0.28298 0)
(-0.136588 -0.297227 0)
(-0.139751 -0.313277 0)
(-0.143522 -0.331289 0)
(-0.147701 -0.351195 0)
(-0.151934 -0.372586 0)
(-0.155694 -0.394599 0)
(-0.158291 -0.415817 0)
(-0.158907 -0.434235 0)
(-0.156681 -0.447321 0)
(-0.150836 -0.452216 0)
(-0.140847 -0.446118 0)
(-0.126621 -0.426829 0)
(-0.108648 -0.393395 0)
(-0.0880506 -0.34666 0)
(-0.0664779 -0.289478 0)
(-0.0458266 -0.226374 0)
(-0.027853 -0.162681 0)
(-0.0138121 -0.103495 0)
(-0.00444516 -0.0528549 0)
(-0.000501343 -0.0134185 0)
(-0.107515 0.0600261 0)
(-0.108856 0.048138 0)
(-0.11015 0.0361126 0)
(-0.111393 0.0239681 0)
(-0.112582 0.0117257 0)
(-0.113714 -0.000591664 0)
(-0.114788 -0.0129605 0)
(-0.115801 -0.025356 0)
(-0.116753 -0.0377541 0)
(-0.117641 -0.0501308 0)
(-0.118463 -0.0624625 0)
(-0.119216 -0.0747259 0)
(-0.119899 -0.0868983 0)
(-0.120508 -0.0989568 0)
(-0.121038 -0.110879 0)
(-0.121487 -0.122642 0)
(-0.121849 -0.134224 0)
(-0.122122 -0.145603 0)
(-0.122303 -0.156758 0)
(-0.122392 -0.16767 0)
(-0.122393 -0.178326 0)
(-0.122316 -0.18872 0)
(-0.122175 -0.198856 0)
(-0.121998 -0.20876 0)
(-0.121825 -0.218478 0)
(-0.12171 -0.228094 0)
(-0.121724 -0.237734 0)
(-0.121959 -0.247576 0)
(-0.122519 -0.257857 0)
(-0.12352 -0.268877 0)
(-0.125077 -0.280982 0)
(-0.127285 -0.294545 0)
(-0.130193 -0.309919 0)
(-0.133777 -0.327362 0)
(-0.137896 -0.346942 0)
(-0.142266 -0.368412 0)
(-0.146425 -0.391083 0)
(-0.149736 -0.413698 0)
(-0.151403 -0.434359 0)
(-0.150546 -0.450542 0)
(-0.146314 -0.459253 0)
(-0.13805 -0.457372 0)
(-0.125487 -0.442202 0)
(-0.108919 -0.412164 0)
(-0.0893035 -0.367483 0)
(-0.0682024 -0.310568 0)
(-0.0475381 -0.245839 0)
(-0.0291991 -0.178906 0)
(-0.0146296 -0.115401 0)
(-0.00476539 -0.0599624 0)
(-0.000552902 -0.0157155 0)
(-0.0969105 0.0613767 0)
(-0.0982269 0.0494476 0)
(-0.0995052 0.0373775 0)
(-0.100742 0.0251854 0)
(-0.101936 0.0128931 0)
(-0.103085 0.000523926 0)
(-0.104187 -0.0118984 0)
(-0.105241 -0.0243491 0)
(-0.106245 -0.0368039 0)
(-0.107198 -0.0492392 0)
(-0.108098 -0.0616317 0)
(-0.108943 -0.0739586 0)
(-0.109729 -0.0861975 0)
(-0.110453 -0.0983264 0)
(-0.111111 -0.110323 0)
(-0.111698 -0.122165 0)
(-0.11221 -0.133831 0)
(-0.112641 -0.145297 0)
(-0.112987 -0.156542 0)
(-0.113246 -0.167544 0)
(-0.113417 -0.178286 0)
(-0.113504 -0.188755 0)
(-0.113519 -0.19895 0)
(-0.11348 -0.208883 0)
(-0.113418 -0.218588 0)
(-0.113378 -0.228133 0)
(-0.113424 -0.237624 0)
(-0.113635 -0.247223 0)
(-0.114113 -0.257152 0)
(-0.114972 -0.267701 0)
(-0.116332 -0.279224 0)
(-0.118305 -0.292118 0)
(-0.120971 -0.30679 0)
(-0.124348 -0.323585 0)
(-0.128353 -0.342696 0)
(-0.132766 -0.364035 0)
(-0.137196 -0.387091 0)
(-0.141062 -0.410785 0)
(-0.14361 -0.433359 0)
(-0.143957 -0.452345 0)
(-0.141202 -0.464667 0)
(-0.134579 -0.466943 0)
(-0.12366 -0.456017 0)
(-0.108549 -0.429689 0)
(-0.0900262 -0.387511 0)
(-0.0695406 -0.33136 0)
(-0.0490076 -0.265437 0)
(-0.03042 -0.195535 0)
(-0.0153985 -0.127791 0)
(-0.00507551 -0.0674586 0)
(-0.000604758 -0.0181757 0)
(-0.0860798 0.0626947 0)
(-0.0873652 0.0507339 0)
(-0.0886227 0.0386292 0)
(-0.08985 0.0264005 0)
(-0.0910455 0.0140696 0)
(-0.0922081 0.00166022 0)
(-0.0933363 -0.010803 0)
(-0.094429 -0.0232962 0)
(-0.0954848 -0.0357951 0)
(-0.0965025 -0.0482762 0)
(-0.09748 -0.0607165 0)
(-0.0984151 -0.073094 0)
(-0.0993048 -0.0853868 0)
(-0.100145 -0.0975734 0)
(-0.100933 -0.109632 0)
(-0.101662 -0.121542 0)
(-0.102327 -0.133281 0)
(-0.102922 -0.144825 0)
(-0.103442 -0.156152 0)
(-0.103881 -0.16724 0)
(-0.104236 -0.178067 0)
(-0.104508 -0.188618 0)
(-0.104703 -0.198882 0)
(-0.104832 -0.208862 0)
(-0.104919 -0.218582 0)
(-0.105 -0.228092 0)
(-0.105129 -0.237481 0)
(-0.105375 -0.246892 0)
(-0.105833 -0.256528 0)
(-0.10661 -0.266666 0)
(-0.10783 -0.277657 0)
(-0.109615 -0.289914 0)
(-0.112067 -0.303882 0)
(-0.115239 -0.319983 0)
(-0.119099 -0.338519 0)
(-0.123488 -0.359553 0)
(-0.128085 -0.382755 0)
(-0.132374 -0.407234 0)
(-0.135647 -0.4314 0)
(-0.13704 -0.452881 0)
(-0.135621 -0.468575 0)
(-0.130538 -0.474895 0)
(-0.12122 -0.468272 0)
(-0.107589 -0.445899 0)
(-0.0902417 -0.40663 0)
(-0.0704942 -0.351719 0)
(-0.0502251 -0.28504 0)
(-0.0315035 -0.21247 0)
(-0.0161102 -0.140604 0)
(-0.00537202 -0.0753163 0)
(-0.000656336 -0.0207935 0)
(-0.0750403 0.0639741 0)
(-0.0762895 0.0519918 0)
(-0.0775218 0.0398636 0)
(-0.0787357 0.0276098 0)
(-0.07993 0.0152526 0)
(-0.0811038 0.0028159 0)
(-0.0822562 -0.00967599 0)
(-0.083386 -0.0221988 0)
(-0.0844923 -0.0347287 0)
(-0.0855736 -0.0472424 0)
(-0.0866281 -0.0597174 0)
(-0.0876535 -0.0721322 0)
(-0.088647 -0.0844656 0)
(-0.0896048 -0.0966968 0)
(-0.0905225 -0.108805 0)
(-0.0913948 -0.12077 0)
(-0.0922158 -0.132569 0)
(-0.0929788 -0.144181 0)
(-0.093677 -0.155582 0)
(-0.0943039 -0.166748 0)
(-0.0948544 -0.177657 0)
(-0.0953256 -0.188288 0)
(-0.0957185 -0.198627 0)
(-0.0960404 -0.208667 0)
(-0.0963073 -0.218422 0)
(-0.0965473 -0.227926 0)
(-0.0968035 -0.237253 0)
(-0.0971375 -0.246524 0)
(-0.0976316 -0.255924 0)
(-0.0983885 -0.265712 0)
(-0.099528 -0.276227 0)
(-0.101177 -0.28789 0)
(-0.103453 -0.301174 0)
(-0.106439 -0.316558 0)
(-0.110144 -0.334446 0)
(-0.114467 -0.355038 0)
(-0.119152 -0.37818 0)
(-0.123752 -0.403179 0)
(-0.127614 -0.428631 0)
(-0.129906 -0.452298 0)
(-0.129684 -0.471102 0)
(-0.126032 -0.48131 0)
(-0.118252 -0.478988 0)
(-0.106098 -0.460755 0)
(-0.0899834 -0.424745 0)
(-0.0710743 -0.371525 0)
(-0.0511876 -0.304528 0)
(-0.0324414 -0.229616 0)
(-0.0167577 -0.153777 0)
(-0.00565172 -0.0835049 0)
(-0.000707051 -0.0235617 0)
(-0.0638117 0.0652096 0)
(-0.0650203 0.0532169 0)
(-0.0662237 0.0410769 0)
(-0.067421 0.0288102 0)
(-0.0686113 0.0164394 0)
(-0.0697942 0.00398818 0)
(-0.0709688 -0.00851913 0)
(-0.0721344 -0.0210584 0)
(-0.0732898 -0.0336059 0)
(-0.0744337 -0.0461387 0)
(-0.0755644 -0.058635 0)
(-0.0766796 -0.0710735 0)
(-0.0777765 -0.083434 0)
(-0.0788513 -0.0956964 0)
(-0.0798995 -0.107841 0)
(-0.0809159 -0.119847 0)
(-0.081894 -0.131695 0)
(-0.082827 -0.143362 0)
(-0.0837072 -0.154826 0)
(-0.0845272 -0.166061 0)
(-0.08528 -0.177045 0)
(-0.0859603 -0.187753 0)
(-0.0865658 -0.198167 0)
(-0.0870992 -0.208274 0)
(-0.0875705 -0.218076 0)
(-0.0880003 -0.227598 0)
(-0.0884227 -0.236894 0)
(-0.0888896 -0.246068 0)
(-0.0894727 -0.255283 0)
(-0.090266 -0.264777 0)
(-0.0913834 -0.274877 0)
(-0.0929523 -0.285998 0)
(-0.0950996 -0.29863 0)
(-0.0979286 -0.313299 0)
(-0.101486 -0.330492 0)
(-0.105721 -0.350538 0)
(-0.110439 -0.37345 0)
(-0.115261 -0.398734 0)
(-0.119596 -0.425187 0)
(-0.122653 -0.450738 0)
(-0.123495 -0.472375 0)
(-0.121158 -0.486278 0)
(-0.114841 -0.488208 0)
(-0.104142 -0.47424 0)
(-0.0892928 -0.441788 0)
(-0.0713008 -0.390673 0)
(-0.0518992 -0.323792 0)
(-0.0332299 -0.24688 0)
(-0.017336 -0.167248 0)
(-0.0059118 -0.0919907 0)
(-0.000756298 -0.0264715 0)
(-0.0524155 0.0663969 0)
(-0.0535795 0.0544053 0)
(-0.0547507 0.0422658 0)
(-0.0559284 0.0299991 0)
(-0.0571123 0.0176276 0)
(-0.058302 0.00517521 0)
(-0.059497 -0.00733403 0)
(-0.0606966 -0.0198761 0)
(-0.0618997 -0.0324276 0)
(-0.0631052 -0.044966 0)
(-0.0643111 -0.0574697 0)
(-0.0655154 -0.0699184 0)
(-0.066715 -0.0822922 0)
(-0.0679063 -0.0945721 0)
(-0.0690848 -0.106739 0)
(-0.0702451 -0.118774 0)
(-0.0713808 -0.130657 0)
(-0.0724847 -0.142366 0)
(-0.0735488 -0.15388 0)
(-0.0745648 -0.165174 0)
(-0.0755247 -0.176223 0)
(-0.0764212 -0.187002 0)
(-0.0772495 -0.197487 0)
(-0.0780086 -0.207663 0)
(-0.0787035 -0.217521 0)
(-0.0793482 -0.227075 0)
(-0.0799688 -0.236366 0)
(-0.0806074 -0.245478 0)
(-0.0813258 -0.254553 0)
(-0.0822077 -0.263807 0)
(-0.083359 -0.273549 0)
(-0.0849037 -0.284182 0)
(-0.0869728 -0.296206 0)
(-0.0896847 -0.310179 0)
(-0.0931152 -0.326656 0)
(-0.0972568 -0.346081 0)
(-0.101972 -0.368625 0)
(-0.106947 -0.39399 0)
(-0.111658 -0.421185 0)
(-0.115362 -0.448327 0)
(-0.117142 -0.472518 0)
(-0.116007 -0.4899 0)
(-0.11107 -0.495986 0)
(-0.101788 -0.486356 0)
(-0.0882171 -0.45771 0)
(-0.0712006 -0.40908 0)
(-0.0523705 -0.342733 0)
(-0.0338696 -0.264173 0)
(-0.017842 -0.180951 0)
(-0.00615008 -0.100738 0)
(-0.000803489 -0.0295125 0)
(-0.0408739 0.0675322 0)
(-0.0419898 0.0555539 0)
(-0.0431254 0.0434275 0)
(-0.0442805 0.0311738 0)
(-0.0454553 0.0188151 0)
(-0.0466494 0.00637497 0)
(-0.0478627 -0.0061225 0)
(-0.0490944 -0.0186536 0)
(-0.0503437 -0.0311953 0)
(-0.0516092 -0.0437254 0)
(-0.0528892 -0.0562228 0)