/*--------------------------------*- C++ -*----------------------------------*\
  =========                 |
  \\      /  F ield         | OpenFOAM: The Open Source CFD Toolbox
   \\    /   O peration     | Website:  https://openfoam.org
    \\  /    A nd           | Version:  9
     \\/     M anipulation  |
\*---------------------------------------------------------------------------*/
FoamFile
{
    format      ascii;
    class       volVectorField;
    location    "3.25";
    object      U;
}
// * * * * * * * * * * * * * * * * * * * * * * * * * * * * * * * * * * * * * //

dimensions      [0 1 -1 0 0 0 0];

internalField   nonuniform List<vector> 
1240
(
(-0.260191 -0.027143 0)
(-0.260753 -0.0378415 0)
(-0.261366 -0.0485776 0)
(-0.262037 -0.0593596 0)
(-0.262775 -0.0701968 0)
(-0.249433 -0.0266039 0)
(-0.249993 -0.0372615 0)
(-0.250591 -0.0479507 0)
(-0.251231 -0.0586784 0)
(-0.251921 -0.069452 0)
(-0.252671 -0.0802804 0)
(-0.280059 -0.262529 0)
(-0.282486 -0.276598 0)
(-0.284428 -0.290535 0)
(-0.285599 -0.304033 0)
(-0.285661 -0.31668 0)
(-0.284229 -0.327951 0)
(-0.280891 -0.337218 0)
(-0.275237 -0.343759 0)
(-0.266897 -0.346807 0)
(-0.25559 -0.345602 0)
(-0.241179 -0.339478 0)
(-0.223719 -0.327954 0)
(-0.203495 -0.310839 0)
(-0.181041 -0.288315 0)
(-0.157116 -0.260988 0)
(-0.132646 -0.229875 0)
(-0.108621 -0.196321 0)
(-0.0859864 -0.16186 0)
(-0.0655282 -0.128043 0)
(-0.0477997 -0.0962741 0)
(-0.0330922 -0.0677049 0)
(-0.0214516 -0.0431924 0)
(-0.0127249 -0.0233201 0)
(-0.00661666 -0.00846251 0)
(-0.00273691 0.00113403 0)
(-0.00066001 0.00527379 0)
(-9.52209e-06 0.00374322 0)
(-0.239082 -0.0260549 0)
(-0.239652 -0.0366848 0)
(-0.240245 -0.0473418 0)
(-0.240865 -0.0580311 0)
(-0.241521 -0.0687582 0)
(-0.242218 -0.0795301 0)
(-0.242969 -0.0903553 0)
(-0.243785 -0.101245 0)
(-0.244682 -0.112212 0)
(-0.245677 -0.123274 0)
(-0.24679 -0.134452 0)
(-0.248043 -0.145771 0)
(-0.24946 -0.157263 0)
(-0.251064 -0.168963 0)
(-0.252876 -0.180911 0)
(-0.254915 -0.193148 0)
(-0.257187 -0.205716 0)
(-0.259689 -0.21865 0)
(-0.262395 -0.231972 0)
(-0.265253 -0.245683 0)
(-0.268173 -0.259747 0)
(-0.271022 -0.274075 0)
(-0.27361 -0.288511 0)
(-0.275689 -0.302806 0)
(-0.276947 -0.316606 0)
(-0.277011 -0.329433 0)
(-0.275462 -0.340683 0)
(-0.271856 -0.349631 0)
(-0.265756 -0.355459 0)
(-0.256784 -0.357306 0)
(-0.244674 -0.354349 0)
(-0.229329 -0.345896 0)
(-0.210884 -0.33151 0)
(-0.189732 -0.311117 0)
(-0.166535 -0.285098 0)
(-0.142183 -0.254318 0)
(-0.117704 -0.220081 0)
(-0.0941507 -0.184002 0)
(-0.0724614 -0.147816 0)
(-0.0533577 -0.113182 0)
(-0.0372833 -0.0815204 0)
(-0.0244005 -0.0539292 0)
(-0.0146297 -0.0311819 0)
(-0.00770882 -0.0137831 0)
(-0.00325037 -0.00205888 0)
(-0.000815791 0.0037511 0)
(-2.47014e-05 0.00340646 0)
(-0.229084 -0.0254868 0)
(-0.229671 -0.0361011 0)
(-0.230269 -0.0467392 0)
(-0.230883 -0.0574046 0)
(-0.231516 -0.0681014 0)
(-0.232177 -0.0788344 0)
(-0.232872 -0.0896099 0)
(-0.233614 -0.100436 0)
(-0.234416 -0.111325 0)
(-0.235294 -0.12229 0)
(-0.236267 -0.133349 0)
(-0.237358 -0.144527 0)
(-0.23859 -0.155852 0)
(-0.239991 -0.16736 0)
(-0.241587 -0.179091 0)
(-0.243405 -0.191093 0)
(-0.245466 -0.203414 0)
(-0.247783 -0.216105 0)
(-0.250352 -0.22921 0)
(-0.253151 -0.242757 0)
(-0.256124 -0.256749 0)
(-0.259176 -0.271147 0)
(-0.26216 -0.28585 0)
(-0.264871 -0.300675 0)
(-0.267032 -0.315333 0)
(-0.2683 -0.329409 0)
(-0.268268 -0.342346 0)
(-0.266477 -0.353441 0)
(-0.262452 -0.361861 0)
(-0.255736 -0.366678 0)
(-0.245951 -0.36694 0)
(-0.232863 -0.361767 0)
(-0.216442 -0.350474 0)
(-0.196925 -0.332711 0)
(-0.17484 -0.308587 0)
(-0.150996 -0.278749 0)
(-0.126416 -0.244384 0)
(-0.102221 -0.207118 0)
(-0.0794871 -0.168836 0)
(-0.0591061 -0.131441 0)
(-0.0416918 -0.0966451 0)
(-0.0275462 -0.0658288 0)
(-0.016686 -0.0399973 0)
(-0.00890057 -0.0198231 0)
(-0.00381669 -0.00573839 0)
(-0.000990012 0.00195688 0)
(-4.23928e-05 0.00298816 0)
(-0.21937 -0.0248925 0)
(-0.219982 -0.0355012 0)
(-0.220595 -0.0461317 0)
(-0.221213 -0.056786 0)
(-0.221839 -0.0674665 0)
(-0.222478 -0.0781764 0)
(-0.223136 -0.08892 0)
(-0.223824 -0.0997032 0)
(-0.224552 -0.110534 0)
(-0.225335 -0.121425 0)
(-0.226189 -0.13239 0)
(-0.227136 -0.143451 0)
(-0.228199 -0.154632 0)
(-0.229407 -0.165968 0)
(-0.230788 -0.177498 0)
(-0.232374 -0.18927 0)
(-0.234195 -0.201339 0)
(-0.236277 -0.213763 0)
(-0.238634 -0.226602 0)
(-0.241268 -0.239908 0)
(-0.244154 -0.253715 0)
(-0.247233 -0.268029 0)
(-0.250401 -0.282802 0)
(-0.253496 -0.297917 0)
(-0.256287 -0.313154 0)
(-0.258471 -0.328171 0)
(-0.259666 -0.342478 0)
(-0.259424 -0.355419 0)
(-0.25725 -0.366175 0)
(-0.252637 -0.373789 0)
(-0.245117 -0.377217 0)
(-0.23433 -0.375418 0)
(-0.220093 -0.367477 0)
(-0.202472 -0.352764 0)
(-0.181837 -0.33108 0)
(-0.158877 -0.302794 0)
(-0.134559 -0.268899 0)
(-0.110034 -0.230957 0)
(-0.086484 -0.190939 0)
(-0.0649649 -0.15097 0)
(-0.0462703 -0.113063 0)
(-0.0308641 -0.0789159 0)
(-0.018883 -0.0498103 0)
(-0.0101883 -0.0266292 0)
(-0.00443528 -0.00994395 0)
(-0.00118287 -0.000134953 0)
(-6.27232e-05 0.00247885 0)
(-0.209875 -0.0242666 0)
(-0.210517 -0.0348779 0)
(-0.211153 -0.0455098 0)
(-0.211785 -0.056163 0)
(-0.212415 -0.0668389 0)
(-0.213047 -0.077539 0)
(-0.213687 -0.0882659 0)
(-0.21434 -0.0990232 0)
(-0.215017 -0.109817 0)
(-0.215729 -0.120655 0)
(-0.21649 -0.131551 0)
(-0.21732 -0.142519 0)
(-0.21824 -0.153584 0)
(-0.219277 -0.164774 0)
(-0.22046 -0.176126 0)
(-0.221823 -0.187688 0)
(-0.223401 -0.199514 0)
(-0.225227 -0.211668 0)
(-0.227332 -0.224219 0)
(-0.229734 -0.237236 0)
(-0.232435 -0.250781 0)
(-0.235409 -0.264894 0)
(-0.23859 -0.279578 0)
(-0.241861 -0.294775 0)
(-0.24504 -0.310339 0)
(-0.247869 -0.326007 0)
(-0.250007 -0.341365 0)
(-0.251032 -0.355827 0)
(-0.250451 -0.368618 0)
(-0.247732 -0.378785 0)
(-0.242342 -0.385231 0)
(-0.233818 -0.386792 0)
(-0.221834 -0.382352 0)
(-0.20629 -0.371006 0)
(-0.187381 -0.352236 0)
(-0.165644 -0.326087 0)
(-0.141948 -0.29328 0)
(-0.117423 -0.255231 0)
(-0.0933215 -0.213922 0)
(-0.0708427 -0.171653 0)
(-0.0509623 -0.130731 0)
(-0.0343232 -0.0931957 0)
(-0.0212061 -0.0606531 0)
(-0.0115665 -0.0342426 0)
(-0.00510482 -0.0147127 0)
(-0.00139445 -0.00254995 0)
(-8.58371e-05 0.00186894 0)
(-0.199851 -0.0130055 0)
(-0.200536 -0.0236058 0)
(-0.201211 -0.0342256 0)
(-0.201875 -0.0448655 0)
(-0.202529 -0.0555254 0)
(-0.203175 -0.0662057 0)
(-0.203814 -0.0769065 0)
(-0.20445 -0.087629 0)
(-0.205089 -0.098375 0)
(-0.205737 -0.109148 0)
(-0.206403 -0.119954 0)
(-0.207099 -0.130802 0)
(-0.207841 -0.141704 0)
(-0.208648 -0.152679 0)
(-0.209544 -0.163751 0)
(-0.210557 -0.174955 0)
(-0.21172 -0.186333 0)
(-0.21307 -0.197938 0)
(-0.214646 -0.209835 0)
(-0.216486 -0.222097 0)
(-0.218623 -0.234805 0)
(-0.221079 -0.24804 0)
(-0.223855 -0.261871 0)
(-0.226921 -0.276344 0)
(-0.230202 -0.291456 0)
(-0.233564 -0.307131 0)
(-0.236798 -0.323184 0)
(-0.239613 -0.339289 0)
(-0.241625 -0.354944 0)
(-0.242365 -0.369442 0)
(-0.241295 -0.381866 0)
(-0.237846 -0.391106 0)
(-0.231473 -0.395915 0)
(-0.221731 -0.395013 0)
(-0.208363 -0.387246 0)
(-0.191385 -0.371775 0)
(-0.171159 -0.34829 0)
(-0.148419 -0.317183 0)
(-0.124229 -0.279634 0)
(-0.0998648 -0.237548 0)
(-0.0766396 -0.193335 0)
(-0.0557023 -0.149571 0)
(-0.0378859 -0.108651 0)
(-0.0236367 -0.0725444 0)
(-0.0130276 -0.042697 0)
(-0.00582314 -0.0200784 0)
(-0.00162462 -0.00531272 0)
(-0.000111869 0.00114881 0)
(-0.190576 -0.0122962 0)
(-0.191299 -0.0229083 0)
(-0.192009 -0.0335406 0)
(-0.192705 -0.0441929 0)
(-0.193388 -0.0548648 0)
(-0.194057 -0.0655556 0)
(-0.194714 -0.0762649 0)
(-0.195362 -0.0869924 0)
(-0.196003 -0.0977386 0)
(-0.196642 -0.108505 0)
(-0.197285 -0.119295 0)
(-0.197943 -0.130115 0)
(-0.198627 -0.140973 0)
(-0.199353 -0.151884 0)
(-0.200141 -0.162868 0)
(-0.201018 -0.173953 0)
(-0.202013 -0.185178 0)
(-0.203164 -0.196592 0)
(-0.20451 -0.208256 0)
(-0.206094 -0.220245 0)
(-0.207959 -0.232645 0)
(-0.210142 -0.24555 0)
(-0.212665 -0.259051 0)
(-0.215529 -0.273228 0)
(-0.218695 -0.288126 0)
(-0.222076 -0.303732 0)
(-0.225514 -0.31994 0)
(-0.228768 -0.336515 0)
(-0.231506 -0.353046 0)
(-0.233294 -0.368915 0)
(-0.233611 -0.383269 0)
(-0.231875 -0.395021 0)
(-0.227487 -0.402884 0)
(-0.219906 -0.405457 0)
(-0.208734 -0.40137 0)
(-0.193816 -0.389482 0)
(-0.175328 -0.369113 0)
(-0.153841 -0.34028 0)
(-0.130307 -0.303848 0)
(-0.105982 -0.261554 0)
(-0.0822509 -0.215832 0)
(-0.0604179 -0.169478 0)
(-0.0415082 -0.125241 0)
(-0.0261514 -0.0854868 0)
(-0.0145612 -0.0520168 0)
(-0.00658692 -0.0260707 0)
(-0.0018729 -0.00844639 0)
(-0.000140926 0.000308921 0)
(-0.179001 0.0202045 0)
(-0.179798 0.0096404 0)
(-0.180584 -0.000943418 0)
(-0.181358 -0.011548 0)
(-0.182118 -0.0221737 0)
(-0.182864 -0.0328205 0)
(-0.183595 -0.0434878 0)
(-0.18431 -0.0541746 0)
(-0.18501 -0.06488 0)
(-0.185694 -0.0756028 0)
(-0.186365 -0.0863419 0)
(-0.187022 -0.0970967 0)
(-0.18767 -0.107867 0)
(-0.188312 -0.118655 0)
(-0.188955 -0.129462 0)
(-0.189608 -0.140296 0)
(-0.190284 -0.151166 0)
(-0.190999 -0.162089 0)
(-0.191775 -0.173086 0)
(-0.192639 -0.18419 0)
(-0.193626 -0.195445 0)
(-0.194774 -0.206908 0)
(-0.196128 -0.218651 0)
(-0.197735 -0.23076 0)
(-0.199642 -0.243336 0)
(-0.201889 -0.256486 0)
(-0.204497 -0.270314 0)
(-0.207464 -0.284906 0)
(-0.21074 -0.300305 0)
(-0.214218 -0.316479 0)
(-0.217711 -0.333278 0)
(-0.220939 -0.350392 0)
(-0.223518 -0.367304 0)
(-0.22496 -0.383249 0)
(-0.224689 -0.397193 0)
(-0.222081 -0.407852 0)
(-0.216523 -0.413748 0)
(-0.2075 -0.413341 0)
(-0.194697 -0.405212 0)
(-0.178109 -0.388321 0)
(-0.158119 -0.362277 0)
(-0.135537 -0.327566 0)
(-0.11155 -0.285662 0)
(-0.0875718 -0.23893 0)
(-0.0650318 -0.190316 0)
(-0.0451405 -0.142901 0)
(-0.0287229 -0.0994653 0)
(-0.0161547 -0.062216 0)
(-0.00739159 -0.0327136 0)
(-0.00213847 -0.011972 0)
(-0.000173069 -0.000659994 0)
(-0.169699 0.0210247 0)
(-0.170532 0.0104504 0)
(-0.171353 -0.000145208 0)
(-0.172162 -0.0107628 0)
(-0.172958 -0.0214027 0)
(-0.17374 -0.0320645 0)
(-0.174507 -0.0427474 0)
(-0.175258 -0.0534504 0)
(-0.175993 -0.0641722 0)
(-0.176711 -0.0749112 0)
(-0.177413 -0.0856659 0)
(-0.178098 -0.0964347 0)
(-0.178769 -0.107217 0)
(-0.179427 -0.118011 0)
(-0.180077 -0.12882 0)
(-0.180724 -0.139646 0)
(-0.181378 -0.150495 0)
(-0.182051 -0.161379 0)
(-0.182762 -0.172315 0)
(-0.183533 -0.18333 0)
(-0.184394 -0.194461 0)
(-0.185382 -0.205758 0)
(-0.186541 -0.217288 0)
(-0.187918 -0.229134 0)
(-0.189566 -0.2414 0)
(-0.191536 -0.254198 0)
(-0.193868 -0.267654 0)
(-0.196583 -0.281882 0)
(-0.199669 -0.296974 0)
(-0.203063 -0.312961 0)
(-0.206631 -0.329779 0)
(-0.210148 -0.347217 0)
(-0.213286 -0.364864 0)
(-0.215601 -0.382061 0)
(-0.216545 -0.397859 0)
(-0.215489 -0.411011 0)
(-0.211775 -0.420009 0)
(-0.204797 -0.423187 0)
(-0.1941 -0.418891 0)
(-0.179503 -0.40574 0)
(-0.161198 -0.382923 0)
(-0.139826 -0.350498 0)
(-0.116461 -0.309591 0)
(-0.0925019 -0.262395 0)
(-0.0694652 -0.211923 0)
(-0.0487295 -0.161538 0)
(-0.0313199 -0.114446 0)
(-0.0177925 -0.0732966 0)
(-0.00823124 -0.0400249 0)
(-0.00242003 -0.015908 0)
(-0.000208304 -0.00176672 0)
(-0.160406 0.0218784 0)
(-0.161269 0.0112939 0)
(-0.162123 0.000686885 0)
(-0.162964 -0.00994325 0)
(-0.163794 -0.0205965 0)
(-0.16461 -0.0312725 0)
(-0.165413 -0.0419704 0)
(-0.166202 -0.0526892 0)
(-0.166975 -0.0634274 0)
(-0.167732 -0.0741834 0)
(-0.168472 -0.0849554 0)
(-0.169194 -0.0957413 0)
(-0.169899 -0.106539 0)
(-0.170588 -0.117348 0)
(-0.171261 -0.128167 0)
(-0.171923 -0.138997 0)
(-0.172579 -0.149841 0)
(-0.17324 -0.160707 0)
(-0.173917 -0.171606 0)
(-0.174631 -0.18256 0)
(-0.175406 -0.193599 0)
(-0.176275 -0.204765 0)
(-0.177277 -0.216119 0)
(-0.178461 -0.227739 0)
(-0.179881 -0.239722 0)
(-0.181592 -0.252188 0)
(-0.183648 -0.26527 0)
(-0.18609 -0.279106 0)
(-0.188935 -0.293824 0)
(-0.192159 -0.309512 0)
(-0.195675 -0.326183 0)
(-0.199315 -0.34372 0)
(-0.202809 -0.361826 0)
(-0.205769 -0.379955 0)
(-0.207684 -0.397264 0)
(-0.207944 -0.412578 0)
(-0.205869 -0.424403 0)
(-0.200788 -0.430993 0)
(-0.192131 -0.430509 0)
(-0.179555 -0.421258 0)
(-0.163066 -0.402019 0)
(-0.143113 -0.372388 0)
(-0.120629 -0.33307 0)
(-0.0969508 -0.285987 0)
(-0.0736406 -0.234115 0)
(-0.0522193 -0.181042 0)
(-0.0339081 -0.130377 0)
(-0.019457 -0.0852474 0)
(-0.00909869 -0.0480145 0)
(-0.00271582 -0.0202692 0)
(-0.000246567 -0.00301932 0)
(-0.151103 0.0227605 0)
(-0.151993 0.0121666 0)
(-0.152874 0.00154933 0)
(-0.153745 -0.00909182 0)
(-0.154606 -0.0197568 0)
(-0.155456 -0.0304452 0)
(-0.156295 -0.0411564 0)
(-0.157121 -0.0518893 0)
(-0.157934 -0.0626426 0)
(-0.158733 -0.0734147 0)
(-0.159516 -0.0842038 0)
(-0.160282 -0.0950076 0)
(-0.16103 -0.105824 0)
(-0.161759 -0.116651 0)
(-0.16247 -0.127486 0)
(-0.163164 -0.138328 0)
(-0.163843 -0.14918 0)
(-0.164515 -0.160043 0)
(-0.165188 -0.170926 0)
(-0.165877 -0.181843 0)
(-0.166603 -0.192819 0)
(-0.167392 -0.203889 0)
(-0.16828 -0.215104 0)
(-0.169312 -0.226535 0)
(-0.17054 -0.238274 0)
(-0.172023 -0.250436 0)
(-0.173822 -0.26316 0)
(-0.175992 -0.276598 0)
(-0.178572 -0.290907 0)
(-0.181571 -0.30622 0)
(-0.184946 -0.322616 0)
(-0.18858 -0.340069 0)
(-0.192263 -0.35839 0)
(-0.195663 -0.377156 0)
(-0.198325 -0.395644 0)
(-0.199667 -0.412781 0)
(-0.199014 -0.427121 0)
(-0.195653 -0.436891 0)
(-0.188926 -0.440112 0)
(-0.178347 -0.434826 0)
(-0.163743 -0.419422 0)
(-0.14537 -0.393019 0)
(-0.123991 -0.355846 0)
(-0.100842 -0.30946 0)
(-0.0774861 -0.256696 0)
(-0.0555544 -0.201277 0)
(-0.0364514 -0.147187 0)
(-0.0211286 -0.0980436 0)
(-0.00998553 -0.0566844 0)
(-0.00302365 -0.0250667 0)
(-0.000287725 -0.0044249 0)
(-0.141777 0.0236662 0)
(-0.142689 0.0130645 0)
(-0.143594 0.00243883 0)
(-0.144492 -0.00821115 0)
(-0.145383 -0.0188854 0)
(-0.146265 -0.0295837 0)
(-0.147138 -0.0403055 0)
(-0.148003 -0.0510499 0)
(-0.148857 -0.0618159 0)
(-0.149699 -0.0726021 0)
(-0.150528 -0.0834066 0)
(-0.151342 -0.0942275 0)
(-0.152139 -0.105062 0)
(-0.152918 -0.115908 0)
(-0.153676 -0.126763 0)
(-0.154415 -0.137624 0)
(-0.155135 -0.14849 0)
(-0.155838 -0.159363 0)
(-0.156531 -0.170245 0)
(-0.157224 -0.181147 0)
(-0.157932 -0.192086 0)
(-0.158678 -0.20309 0)
(-0.159492 -0.214202 0)
(-0.160415 -0.225482 0)
(-0.161494 -0.237015 0)
(-0.162787 -0.248911 0)
(-0.16436 -0.261306 0)
(-0.166275 -0.27436 0)
(-0.168589 -0.288248 0)
(-0.171337 -0.30314 0)
(-0.174511 -0.319171 0)
(-0.178045 -0.336395 0)
(-0.181781 -0.354727 0)
(-0.185451 -0.373866 0)
(-0.188657 -0.393223 0)
(-0.190862 -0.411844 0)
(-0.191413 -0.428368 0)
(-0.189578 -0.441038 0)
(-0.184636 -0.44779 0)
(-0.175985 -0.446447 0)
(-0.163284 -0.43504 0)
(-0.146601 -0.41222 0)
(-0.12651 -0.377697 0)
(-0.104115 -0.332583 0)
(-0.0809383 -0.279462 0)
(-0.0586815 -0.222095 0)
(-0.038913 -0.164788 0)
(-0.0227861 -0.111647 0)
(-0.0108823 -0.0660274 0)
(-0.00334087 -0.030307 0)
(-0.00033157 -0.00598937 0)
(-0.13242 0.0245914 0)
(-0.133351 0.013984 0)
(-0.134277 0.00335238 0)
(-0.135199 -0.00730369 0)
(-0.136117 -0.0179843 0)
(-0.137029 -0.0286894 0)
(-0.137937 -0.0394185 0)
(-0.138838 -0.0501711 0)
(-0.139733 -0.0609466 0)
(-0.14062 -0.0717437 0)
(-0.141497 -0.082561 0)
(-0.142361 -0.0933966 0)
(-0.143212 -0.104248 0)
(-0.144046 -0.115113 0)
(-0.14486 -0.125988 0)
(-0.145654 -0.136871 0)
(-0.146427 -0.147757 0)
(-0.147177 -0.158647 0)
(-0.14791 -0.169541 0)
(-0.148631 -0.180444 0)
(-0.14935 -0.191367 0)
(-0.150087 -0.202331 0)
(-0.150864 -0.213371 0)
(-0.151717 -0.224537 0)
(-0.152689 -0.235905 0)
(-0.153835 -0.247575 0)
(-0.155219 -0.259677 0)
(-0.15691 -0.272374 0)
(-0.158974 -0.285849 0)
(-0.161466 -0.300301 0)
(-0.164409 -0.315908 0)
(-0.167778 -0.332795 0)
(-0.171466 -0.350972 0)
(-0.175266 -0.370259 0)
(-0.178841 -0.390201 0)
(-0.18171 -0.409982 0)
(-0.183253 -0.428354 0)
(-0.182745 -0.443617 0)
(-0.179424 -0.453668 0)
(-0.172593 -0.456169 0)
(-0.16177 -0.448835 0)
(-0.146837 -0.429865 0)
(-0.128175 -0.398433 0)
(-0.10673 -0.355136 0)
(-0.0839447 -0.302207 0)
(-0.0615522 -0.243337 0)
(-0.0412569 -0.183075 0)
(-0.024408 -0.126005 0)
(-0.011779 -0.0760272 0)
(-0.00366448 -0.0359915 0)
(-0.00037782 -0.00771726 0)
(-0.123026 0.0255326 0)
(-0.123972 0.014922 0)
(-0.124918 0.00428735 0)
(-0.125861 -0.00637163 0)
(-0.126804 -0.0170552 0)
(-0.127746 -0.0277634 0)
(-0.128686 -0.0384962 0)
(-0.129624 -0.0492533 0)
(-0.13056 -0.0600343 0)
(-0.131491 -0.0708386 0)
(-0.132417 -0.0816651 0)
(-0.133334 -0.0925122 0)
(-0.13424 -0.103378 0)
(-0.135133 -0.11426 0)
(-0.136009 -0.125154 0)
(-0.136866 -0.136058 0)
(-0.1377 -0.146968 0)
(-0.138511 -0.15788 0)
(-0.139299 -0.168793 0)
(-0.140067 -0.179708 0)
(-0.140822 -0.190632 0)
(-0.141577 -0.201579 0)
(-0.14235 -0.212574 0)
(-0.143171 -0.22366 0)
(-0.144078 -0.2349 0)
(-0.145119 -0.246385 0)
(-0.146357 -0.258236 0)
(-0.14786 -0.27061 0)
(-0.149702 -0.283697 0)
(-0.151951 -0.297709 0)
(-0.154654 -0.312861 0)
(-0.157819 -0.329337 0)
(-0.161388 -0.34723 0)
(-0.16521 -0.366475 0)
(-0.169009 -0.386752 0)
(-0.172364 -0.407392 0)
(-0.174704 -0.427282 0)
(-0.175326 -0.444813 0)
(-0.173448 -0.457895 0)
(-0.168307 -0.464076 0)
(-0.159298 -0.46081 0)
(-0.146132 -0.445874 0)
(-0.128998 -0.417902 0)
(-0.108666 -0.376926 0)
(-0.0864665 -0.324733 0)
(-0.0641245 -0.264835 0)
(-0.0434495 -0.201935 0)
(-0.0259727 -0.141054 0)
(-0.0126648 -0.0866583 0)
(-0.00399119 -0.0421166 0)
(-0.000426124 -0.00961151 0)
(-0.113593 0.0264866 0)
(-0.114552 0.0158759 0)
(-0.115514 0.00524149 0)
(-0.116478 -0.00541692 0)
(-0.117444 -0.0160997 0)
(-0.118413 -0.0268072 0)
(-0.119385 -0.0375396 0)
(-0.120359 -0.0482971 0)
(-0.121335 -0.0590795 0)
(-0.122311 -0.0698868 0)
(-0.123285 -0.0807182 0)
(-0.124256 -0.0915728 0)
(-0.12522 -0.102449 0)
(-0.126174 -0.113344 0)
(-0.127115 -0.124256 0)
(-0.128039 -0.13518 0)
(-0.128943 -0.146112 0)
(-0.129823 -0.157048 0)
(-0.130679 -0.167985 0)
(-0.13151 -0.178921 0)
(-0.13232 -0.189858 0)
(-0.133116 -0.200804 0)
(-0.133915 -0.211778 0)
(-0.134737 -0.222813 0)
(-0.135615 -0.23396 0)
(-0.136593 -0.245299 0)
(-0.137727 -0.256941 0)
(-0.139084 -0.269034 0)
(-0.14074 -0.281764 0)
(-0.14277 -0.295355 0)
(-0.145241 -0.310044 0)
(-0.148187 -0.326062 0)
(-0.151592 -0.343577 0)
(-0.155355 -0.362627 0)
(-0.159261 -0.383024 0)
(-0.162953 -0.40425 0)
(-0.165915 -0.425343 0)
(-0.167478 -0.444816 0)
(-0.166865 -0.460632 0)
(-0.163267 -0.470281 0)
(-0.155978 -0.471008 0)
(-0.144559 -0.460209 0)
(-0.129013 -0.43599 0)
(-0.109922 -0.397786 0)
(-0.0884788 -0.346858 0)
(-0.0663652 -0.286424 0)
(-0.0454607 -0.221244 0)
(-0.0274595 -0.156721 0)
(-0.0135291 -0.0978866 0)
(-0.00431749 -0.0486733 0)
(-0.000476069 -0.0116733 0)
(-0.104119 0.0274511 0)
(-0.10509 0.0168435 0)
(-0.106066 0.00621287 0)
(-0.107048 -0.00444121 0)
(-0.108037 -0.0151193 0)
(-0.109032 -0.025822 0)
(-0.110035 -0.0365498 0)
(-0.111044 -0.0473032 0)
(-0.112059 -0.0580827 0)
(-0.113079 -0.0688883 0)
(-0.114102 -0.0797201 0)
(-0.115126 -0.0905776 0)
(-0.116148 -0.10146 0)
(-0.117165 -0.112364 0)
(-0.118174 -0.123289 0)
(-0.119169 -0.13423 0)
(-0.120147 -0.145183 0)
(-0.121104 -0.156144 0)
(-0.122036 -0.167107 0)
(-0.122942 -0.178068 0)
(-0.123822 -0.189026 0)
(-0.12468 -0.199984 0)
(-0.125527 -0.210955 0)
(-0.12638 -0.221962 0)
(-0.127263 -0.233046 0)
(-0.128216 -0.244276 0)
(-0.129287 -0.255749 0)
(-0.13054 -0.267603 0)
(-0.132049 -0.280017 0)
(-0.133895 -0.293214 0)
(-0.136154 -0.30745 0)
(-0.138884 -0.322989 0)
(-0.142102 -0.340061 0)
(-0.145751 -0.358798 0)
(-0.149676 -0.379137 0)
(-0.15358 -0.400708 0)
(-0.157009 -0.422712 0)
(-0.159341 -0.443806 0)
(-0.159818 -0.462046 0)
(-0.157607 -0.474913 0)
(-0.151927 -0.479498 0)
(-0.142204 -0.472867 0)
(-0.128269 -0.452621 0)
(-0.110512 -0.417579 0)
(-0.089971 -0.368412 0)
(-0.0682501 -0.307943 0)
(-0.0472652 -0.240874 0)
(-0.0288496 -0.17292 0)
(-0.0143615 -0.10967 0)
(-0.0046398 -0.0556473 0)
(-0.000527188 -0.0139022 0)
(-0.0946058 0.0284238 0)
(-0.0955857 0.0178229 0)
(-0.0965746 0.00719987 0)
(-0.0975736 -0.00344596 0)
(-0.0985832 -0.0141153 0)
(-0.0996039 -0.024809 0)
(-0.100636 -0.0355278 0)
(-0.101679 -0.0462726 0)
(-0.102733 -0.0570443 0)
(-0.103796 -0.0678436 0)
(-0.104868 -0.0786709 0)
(-0.105945 -0.0895263 0)
(-0.107026 -0.100409 0)
(-0.108107 -0.111319 0)
(-0.109184 -0.122252 0)
(-0.110252 -0.133206 0)
(-0.111308 -0.144177 0)
(-0.112346 -0.155159 0)
(-0.113361 -0.166147 0)
(-0.114351 -0.177135 0)
(-0.115313 -0.18812 0)
(-0.116249 -0.199099 0)
(-0.117165 -0.21008 0)
(-0.118071 -0.221078 0)
(-0.11899 -0.232126 0)
(-0.119951 -0.243278 0)
(-0.120998 -0.25462 0)
(-0.122188 -0.266276 0)
(-0.123592 -0.278415 0)
(-0.125291 -0.291256 0)
(-0.127369 -0.305061 0)
(-0.129898 -0.320119 0)
(-0.132923 -0.336711 0)
(-0.136428 -0.355049 0)
(-0.140306 -0.375184 0)
(-0.144323 -0.396892 0)
(-0.148089 -0.419542 0)
(-0.151036 -0.441952 0)
(-0.152438 -0.462303 0)
(-0.151459 -0.478114 0)
(-0.14726 -0.486376 0)
(-0.139161 -0.483878 0)
(-0.126828 -0.46775 0)
(-0.110468 -0.436199 0)
(-0.0909463 -0.389252 0)
(-0.0697653 -0.329238 0)
(-0.0488435 -0.260695 0)
(-0.0301264 -0.189564 0)
(-0.0151521 -0.121959 0)
(-0.00495453 -0.0630195 0)
(-0.000578975 -0.0162956 0)
(-0.0850524 0.029403 0)
(-0.0860398 0.0188126 0)
(-0.0870403 0.00820106 0)
(-0.0880549 -0.00243241 0)
(-0.0890844 -0.0130887 0)
(-0.0901293 -0.023769 0)
(-0.0911901 -0.0344743 0)
(-0.0922667 -0.0452059 0)
(-0.0933586 -0.0559651 0)
(-0.094465 -0.0667531 0)
(-0.0955845 -0.0775709 0)
(-0.0967152 -0.0884191 0)
(-0.0978545 -0.0992978 0)
(-0.0989992 -0.110206 0)
(-0.100145 -0.121143 0)
(-0.101289 -0.132106 0)
(-0.102424 -0.14309 0)
(-0.103546 -0.15409 0)
(-0.10465 -0.165101 0)
(-0.105731 -0.176116 0)
(-0.106784 -0.187128 0)
(-0.10781 -0.198133 0)
(-0.108809 -0.209134 0)
(-0.109791 -0.220138 0)
(-0.110769 -0.231169 0)
(-0.111768 -0.242271 0)
(-0.112825 -0.253516 0)
(-0.113991 -0.265013 0)
(-0.115331 -0.276919 0)
(-0.116923 -0.289443 0)
(-0.118855 -0.302849 0)
(-0.12121 -0.31744 0)
(-0.124051 -0.333536 0)
(-0.127397 -0.351415 0)
(-0.131186 -0.371233 0)
(-0.135243 -0.392905 0)
(-0.139238 -0.415964 0)
(-0.142665 -0.439407 0)
(-0.14484 -0.461561 0)
(-0.14494 -0.480026 0)
(-0.142092 -0.491749 0)
(-0.135525 -0.493293 0)
(-0.124762 -0.481366 0)
(-0.109831 -0.453569 0)
(-0.0914199 -0.409253 0)
(-0.0709065 -0.350171 0)
(-0.050182 -0.280582 0)
(-0.0312764 -0.20656 0)
(-0.0158922 -0.134699 0)
(-0.00525826 -0.070766 0)
(-0.000630899 -0.0188495 0)
(-0.0754597 0.030387 0)
(-0.0764533 0.0198111 0)
(-0.077464 0.00921521 0)
(-0.0784931 -0.00140164 0)
(-0.0795415 -0.0120406 0)
(-0.0806098 -0.0227029 0)
(-0.0816986 -0.0333901 0)
(-0.0828078 -0.0441038 0)
(-0.0839373 -0.0548457 0)
(-0.0850862 -0.0656174 0)
(-0.0862533 -0.0764204 0)
(-0.087437 -0.087256 0)
(-0.0886346 -0.098125 0)
(-0.0898433 -0.109027 0)
(-0.0910593 -0.119962 0)
(-0.0922781 -0.130927 0)
(-0.0934948 -0.141919 0)
(-0.0947037 -0.152933 0)
(-0.095899 -0.163963 0)
(-0.0970751 -0.175001 0)
(-0.0982271 -0.18604 0)
(-0.0993516 -0.197074 0)
(-0.100448 -0.2081 0)
(-0.10152 -0.21912 0)
(-0.102579 -0.23015 0)
(-0.103642 -0.241224 0)
(-0.10474 -0.2524 0)
(-0.105917 -0.263774 0)
(-0.107231 -0.275488 0)
(-0.108758 -0.287738 0)
(-0.110582 -0.300781 0)
(-0.112794 -0.31493 0)
(-0.115471 -0.33053 0)
(-0.118659 -0.347915 0)
(-0.122336 -0.367332 0)
(-0.126379 -0.388825 0)
(-0.130518 -0.41209 0)
(-0.134311 -0.436304 0)
(-0.137124 -0.459966 0)
(-0.138159 -0.480793 0)
(-0.136529 -0.495733 0)
(-0.131392 -0.501185 0)
(-0.122147 -0.493479 0)
(-0.108652 -0.469639 0)
(-0.0914173 -0.428316 0)
(-0.0716788 -0.370616 0)
(-0.051274 -0.300414 0)
(-0.0322895 -0.223813 0)
(-0.0165743 -0.14783 0)
(-0.0055478 -0.0788592 0)
(-0.000682422 -0.021558 0)
(-0.0658281 0.0313744 0)
(-0.0668264 0.0208172 0)
(-0.0678462 0.0102412 0)
(-0.0688888 -0.000354652 0)
(-0.0699552 -0.0109717 0)
(-0.0710461 -0.0216116 0)
(-0.0721622 -0.032276 0)
(-0.0733035 -0.0429669 0)
(-0.0744699 -0.0536865 0)
(-0.0756609 -0.0644367 0)
(-0.0768754 -0.0752198 0)
(-0.0781117 -0.0860374 0)
(-0.0793676 -0.096891 0)
(-0.0806403 -0.107781 0)
(-0.0819262 -0.118708 0)
(-0.0832211 -0.12967 0)
(-0.0845199 -0.140664 0)
(-0.0858169 -0.151685 0)
(-0.0871063 -0.162729 0)
(-0.0883816 -0.173787 0)
(-0.0896371 -0.184851 0)
(-0.0908678 -0.195912 0)
(-0.092071 -0.206965 0)
(-0.0932475 -0.218008 0)
(-0.0944033 -0.229049 0)
(-0.0955521 -0.240111 0)
(-0.0967178 -0.251243 0)
(-0.0979374 -0.262525 0)
(-0.0992626 -0.274082 0)
(-0.100762 -0.286099 0)
(-0.102518 -0.29882 0)
(-0.104622 -0.312558 0)
(-0.107163 -0.327677 0)
(-0.110206 -0.344554 0)
(-0.113763 -0.363511 0)
(-0.117757 -0.384712 0)
(-0.121976 -0.408008 0)
(-0.126039 -0.43276 0)
(-0.129371 -0.457654 0)
(-0.13121 -0.480551 0)
(-0.130668 -0.498449 0)
(-0.126855 -0.507637 0)
(-0.119061 -0.504122 0)
(-0.106989 -0.484383 0)
(-0.0909724 -0.446365 0)
(-0.0720953 -0.390466 0)
(-0.0521186 -0.320079 0)
(-0.0331592 -0.24123 0)
(-0.0171924 -0.161292 0)
(-0.00582034 -0.0872683 0)
(-0.000733013 -0.0244135 0)
(-0.0561576 0.0323638 0)
(-0.0571594 0.0218295 0)
(-0.0581871 0.0112779 0)
(-0.0592421 0.000707606 0)
(-0.0603256 -0.00988296 0)
(-0.0614384 -0.0204956 0)
(-0.0625811 -0.0311324 0)
(-0.063754 -0.0417957 0)
(-0.064957 -0.0524879 0)
(-0.0661897 -0.0632116 0)
(-0.0674512 -0.0739693 0)
(-0.06874 -0.0847635 0)
(-0.070054 -0.095596 0)
(-0.0713908 -0.106468 0)
(-0.0727468 -0.117381 0)
(-0.074118 -0.128333 0)
(-0.0754996 -0.139323 0)
(-0.076886 -0.150346 0)
(-0.0782711 -0.161398 0)
(-0.0796483 -0.17247 0)
(-0.0810111 -0.183554 0)
(-0.0823536 -0.19464 0)
(-0.0836714 -0.20572 0)
(-0.0849626 -0.216788 0)
(-0.08623 -0.227846 0)
(-0.0874827 -0.238911 0)
(-0.0887389 -0.250017 0)
(-0.0900288 -0.261232 0)
(-0.0913974 -0.272667 0)
(-0.0929059 -0.284488 0)
(-0.0946322 -0.296927 0)
(-0.0966668 -0.310292 0)
(-0.0991037 -0.324953 0)
(-0.102023 -0.341321 0)
(-0.105464 -0.359783 0)
(-0.10939 -0.380606 0)
(-0.113642 -0.403788 0)
(-0.117902 -0.428873 0)
(-0.121651 -0.454741 0)
(-0.124175 -0.479426 0)
(-0.124599 -0.500016 0)
(-0.122 -0.512741 0)
(-0.11558 -0.513344 0)
(-0.104901 -0.497797 0)
(-0.090125 -0.463343 0)
(-0.0721761 -0.409631 0)
(-0.0527212 -0.339476 0)
(-0.0338829 -0.258723 0)
(-0.0177422 -0.175022 0)
(-0.00607351 -0.0959598 0)
(-0.000782168 -0.0274073 0)
(-0.046448 0.0333537 0)
(-0.0474518 0.0228469 0)
(-0.0484863 0.0123243 0)
(-0.0495528 0.0017842 0)
(-0.0506525 -0.00877513 0)
(-0.0517864 -0.0193558 0)
(-0.0529551 -0.0299601 0)
(-0.054159 -0.0405907 0)
(-0.0553982 -0.0512504 0)
(-0.0566724 -0.0619422 0)
(-0.0579806 -0.0726692 0)
(-0.0593217 -0.0834342 0)
(-0.0606939 -0.0942398 0)
(-0.0620947 -0.105088 0)
(-0.063521 -0.11598 0)
(-0.064969 -0.126916 0)
(-0.0664339 -0.137895 0)
(-0.0679105 -0.148913 0)
(-0.0693927 -0.159966 0)
(-0.0708738 -0.171046 0)
(-0.072347 -0.182145 0)
(-0.0738057 -0.193252 0)
(-0.0752441 -0.204356 0)
(-0.0766585 -0.215449 0)
(-0.0780489 -0.226529 0)
(-0.0794205 -0.237603 0)
(-0.0807866 -0.248698 0)
(-0.0821712 -0.259869 0)
(-0.0836121 -0.271209 0)
(-0.0851635 -0.282869 0)
(-0.0868971 -0.295065 0)
(-0.0888998 -0.308094 0)
(-0.0912677 -0.322329 0)
(-0.0940906 -0.3382 0)
(-0.0974296 -0.356148 0)
(-0.101282 -0.376531 0)
(-0.105538 -0.399482 0)
(-0.109935 -0.424722 0)
(-0.114018 -0.451332 0)
(-0.117121 -0.477535 0)
(-0.118398 -0.500548 0)
(-0.116907 -0.516594 0)
(-0.111779 -0.521204 0)
(-0.10245 -0.509891 0)
(-0.0889189 -0.479214 0)
(-0.071947 -0.428036 0)
(-0.0530921 -0.358515 0)
(-0.0344614 -0.276208 0)
(-0.0182213 -0.188957 0)
(-0.00630546 -0.104899 0)
(-0.000829424 -0.0305295 0)
(-0.0366984 0.0343428 0)
(-0.037703 0.0238682 0)
(-0.038743 0.0133792 0)
(-0.0398199 0.00287414 0)
(-0.0409349 -0.00764905 0)
(-0.0420891 -0.0181927 0)
(-0.0432832 -0.0287595 0)
(-0.0445176 -0.0393522 0)
(-0.0457926 -0.0499743 0)
(-0.0471079 -0.0606289 0)
(-0.0484628 -0.0713196 0)
(-0.0498562 -0.0820498 0)
(-0.0512865 -0.0928226 0)
(-0.0527515 -0.103641 0)
(-0.0542483 -0.114506 0)
(-0.0557734 -0.12542 0)
(-0.0573222 -0.136381 0)
(-0.0588898 -0.147387 0)
(-0.0604702 -0.158434 0)
(-0.0620569 -0.169515 0)
(-0.0636429 -0.180621 0)
(-0.0652211 -0.191742 0)
(-0.066785 -0.202866 0)
(-0.0683295 -0.213983 0)
(-0.0698523 -0.225084 0)
(-0.0713554 -0.236173 0)
(-0.0728477 -0.247267 0)
(-0.0743478 -0.258409 0)
(-0.0758867 -0.269678 0)
(-0.0775116 -0.281207 0)
(-0.0792869 -0.293197 0)
(-0.0812946 -0.305928 0)
(-0.0836295 -0.31977 0)
(-0.0863876 -0.335166 0)
(-0.0896456 -0.352597 0)
(-0.0934294 -0.372498 0)
(-0.097672 -0.395125 0)
(-0.102165 -0.420368 0)
(-0.106513 -0.447511 0)
(-0.110106 -0.474982 0)
(-0.112131 -0.500154 0)
(-0.111646 -0.51929 0)
(-0.107726 -0.527768 0)
(-0.0996961 -0.520691 0)
(-0.0874 -0.493959 0)
(-0.0714378 -0.445626 0)
(-0.0532462 -0.377119 0)
(-0.0348992 -0.293609 0)
(-0.0186291 -0.203037 0)
(-0.00651492 -0.114051 0)
(-0.000874379 -0.0337692 0)
(-0.026908 0.0353295 0)
(-0.0279118 0.0248918 0)
(-0.028956 0.0144415 0)
(-0.030042 0.0039764 0)
(-0.0311713 -0.00650561 0)
(-0.032345 -0.0170072 0)
(-0.0335637 -0.0275312 0)
(-0.0348282 -0.0380809 0)
(-0.0361385 -0.0486598 0)
(-0.0374946 -0.0592717 0)
(-0.038896 -0.0699205 0)
(-0.0403418 -0.0806101 0)
(-0.0418303 -0.0913441 0)
(-0.0433597 -0.102126 0)
(-0.0449274 -0.112958 0)
(-0.0465299 -0.123842 0)
(-0.0481632 -0.134778 0)
(-0.0498226 -0.145765 0)
(-0.0515023 -0.156799 0)
(-0.053196 -0.167873 0)
(-0.0548967 -0.17898 0)
(-0.0565974 -0.190109 0)
(-0.0582909 -0.201247 0)
(-0.0599711 -0.212381 0)
(-0.0616339 -0.223503 0)
(-0.0632789 -0.234608 0)
(-0.0649113 -0.245707 0)
(-0.0665448 -0.256831 0)
(-0.0682043 -0.268048 0)
(-0.0699299 -0.279473 0)
(-0.0717788 -0.291287 0)
(-0.0738266 -0.303758 0)
(-0.0761647 -0.317243 0)
(-0.0788915 -0.332192 0)
(-0.0820948 -0.349113 0)
(-0.0858236 -0.368507 0)
(-0.0900474 -0.39074 0)
(-0.0946076 -0.415861 0)
(-0.0991671 -0.443352 0)
(-0.103173 -0.471857 0)
(-0.105856 -0.498932 0)
(-0.10628 -0.520923 0)
(-0.103484 -0.533107 0)
(-0.0966956 -0.530234 0)
(-0.0856148 -0.507571 0)
(-0.0706807 -0.462357 0)
(-0.053202 -0.395223 0)
(-0.0352037 -0.310855 0)
(-0.0189668 -0.217207 0)
(-0.00670123 -0.12338 0)
(-0.000916696 -0.0371152 0)
(-0.017075 0.0363123 0)
(-0.0180765 0.0259165 0)
(-0.0191234 0.0155098 0)
(-0.0202174 0.00508984 0)
(-0.0213598 -0.0053458 0)
(-0.022552 -0.0158 0)
(-0.0237946 -0.0262759 0)
(-0.0250884 -0.0367771 0)