/*--------------------------------*- C++ -*----------------------------------*\
  =========                 |
  \\      /  F ield         | OpenFOAM: The Open Source CFD Toolbox
   \\    /   O peration     | Website:  https://openfoam.org
    \\  /    A nd           | Version:  9
     \\/     M anipulation  |
\*---------------------------------------------------------------------------*/
FoamFile
{
    format      ascii;
    class       volScalarField;
    location    "0.5";
    object      p;
}
// * * * * * * * * * * * * * * * * * * * * * * * * * * * * * * * * * * * * * //

dimensions      [0 2 -2 0 0 0 0];

internalField   nonuniform List<scalar> 
1240
(
0.00147901
0.00159461
0.00170898
0.0018217
0.00193212
0.00139978
0.0015196
0.00163823
0.00175518
0.00186988
0.00198132
0.00275136
0.00272829
0.00269732
0.00265956
0.00261606
0.00256786
0.00251609
0.00246184
0.00240622
0.00235026
0.00229491
0.00224099
0.00218922
0.0021402
0.00209438
0.00205212
0.00201366
0.00197918
0.00194882
0.00192269
0.00190089
0.00188355
0.00187082
0.00186284
0.00185966
0.00186235
0.00187337
0.00130592
0.0014297
0.00155244
0.00167364
0.00179253
0.00190815
0.00201952
0.0021255
0.00222526
0.00231798
0.00240286
0.00247919
0.0025463
0.00260368
0.00265088
0.00268763
0.00271376
0.00272929
0.00273447
0.00272953
0.00271477
0.00269068
0.00265828
0.00261864
0.00257281
0.0025219
0.00246713
0.0024097
0.0023508
0.00229159
0.00223309
0.00217623
0.00212179
0.0020704
0.00202254
0.00197856
0.00193869
0.00190308
0.00187183
0.00184501
0.00182269
0.00180498
0.00179204
0.001784
0.00178096
0.00178409
0.00179609
0.00119475
0.00132208
0.0014485
0.00157352
0.00169625
0.00181573
0.00193088
0.00204068
0.00214419
0.00224055
0.00232898
0.00240874
0.00247919
0.00253977
0.00259005
0.00262969
0.00265848
0.00267639
0.00268352
0.00268007
0.00266631
0.00264281
0.00261047
0.00257026
0.00252323
0.00247059
0.00241359
0.00235356
0.00229181
0.0022296
0.00216808
0.0021083
0.00205113
0.00199725
0.00194721
0.00190135
0.0018599
0.00182299
0.00179068
0.00176298
0.00173994
0.00172165
0.00170826
0.00169993
0.00169676
0.00170005
0.00171274
0.00106309
0.00119318
0.00132249
0.0014505
0.00157625
0.00169872
0.00181688
0.00192972
0.0020363
0.0021358
0.00222745
0.00231054
0.00238446
0.00244868
0.00250276
0.00254633
0.00257915
0.00260106
0.00261205
0.0026122
0.00260173
0.0025811
0.00255099
0.00251226
0.00246593
0.00241318
0.00235534
0.00229378
0.00222996
0.00216526
0.002101
0.00203838
0.00197839
0.00192185
0.00186935
0.00182131
0.00177797
0.00173942
0.00170571
0.0016768
0.00165271
0.00163351
0.00161933
0.00161035
0.00160673
0.00160985
0.00162285
0.00090674
0.00103842
0.00116938
0.00129905
0.00142643
0.00155047
0.0016702
0.00178466
0.001893
0.00199447
0.00208839
0.00217416
0.00225127
0.00231927
0.00237775
0.00242636
0.0024648
0.00249282
0.00251024
0.00251696
0.00251299
0.00249853
0.00247401
0.00244005
0.00239749
0.00234742
0.00229111
0.00222999
0.00216558
0.00209944
0.0020331
0.00196792
0.00190513
0.00184572
0.00179042
0.00173974
0.00169399
0.00165327
0.00161761
0.00158697
0.00156131
0.00154068
0.00152522
0.00151514
0.00151061
0.00151313
0.00152595
0.000588978
0.000720756
0.000852119
0.000982799
0.00111203
0.00123876
0.001362
0.00148083
0.00159443
0.0017021
0.00180325
0.00189742
0.00198423
0.00206338
0.0021346
0.00219764
0.00225221
0.002298
0.00233466
0.00236182
0.00237909
0.00238614
0.00238276
0.00236892
0.00234483
0.00231097
0.00226813
0.00221738
0.0021601
0.00209785
0.00203233
0.00196529
0.00189837
0.00183309
0.00177072
0.00171223
0.00165833
0.00160945
0.00156579
0.0015274
0.00149422
0.00146623
0.00144345
0.00142603
0.00141419
0.00140817
0.00140954
0.00142158
0.000369891
0.000498791
0.000627306
0.000754798
0.0008803
0.0010028
0.00112138
0.00123526
0.00134382
0.00144661
0.00154338
0.00163402
0.00171856
0.0017971
0.00186974
0.00193652
0.00199739
0.00205211
0.00210027
0.00214126
0.00217432
0.0021986
0.00221326
0.00221758
0.00221104
0.00219346
0.00216505
0.00212646
0.00207877
0.00202346
0.00196233
0.00189734
0.00183049
0.0017637
0.00169866
0.00163675
0.00157901
0.00152614
0.00147851
0.00143629
0.00139951
0.00136812
0.00134219
0.00132186
0.00130741
0.00129914
0.00129866
0.00130923
-0.000254676
-0.000134659
-1.22756e-05
0.000111013
0.000233902
0.000355483
0.000475317
0.000592141
0.000704953
0.000812914
0.000915471
0.00101231
0.00110341
0.00118903
0.00126969
0.00134609
0.001419
0.00148919
0.00155729
0.00162365
0.0016883
0.00175084
0.00181045
0.00186589
0.00191561
0.00195787
0.00199089
0.00201304
0.00202302
0.00202004
0.0020039
0.00197507
0.00193469
0.00188447
0.00182657
0.00176339
0.00169736
0.0016308
0.00156571
0.00150368
0.00144589
0.00139309
0.00134568
0.00130386
0.00126768
0.00123727
0.00121281
0.00119465
0.00118317
0.00118002
0.00118832
-0.000534266
-0.000421997
-0.000308632
-0.000195294
-8.33738e-05
2.60593e-05
0.000131703
0.00023262
0.000327639
0.000416143
0.000497811
0.00057277
0.000641688
0.000705644
0.000766113
0.00082486
0.000883769
0.000944673
0.00100915
0.00107834
0.00115276
0.00123221
0.00131569
0.00140143
0.00148697
0.00156934
0.0016453
0.00171156
0.00176515
0.00180362
0.00182534
0.00182963
0.00181681
0.00178823
0.00174605
0.00169303
0.00163229
0.00156697
0.00149997
0.00143379
0.00137038
0.00131112
0.00125693
0.00120833
0.00116561
0.00112903
0.00109891
0.00107567
0.00105978
0.00105297
0.00105812
-0.000855132
-0.000754884
-0.000655335
-0.000557606
-0.000463377
-0.0003742
-0.000291553
-0.000216951
-0.000151406
-9.49872e-05
-4.8019e-05
-9.62792e-06
2.18734e-05
4.87478e-05
7.39614e-05
0.000100889
0.000133067
0.000173944
0.000226569
0.000293293
0.0003755
0.000473421
0.000586011
0.00071094
0.000844685
0.000982735
0.00111988
0.00125061
0.00136949
0.00147165
0.00155316
0.00161139
0.00164516
0.00165484
0.00164225
0.00161038
0.00156304
0.00150442
0.0014387
0.0013697
0.00130059
0.00123384
0.0011712
0.00111383
0.00106249
0.00101771
0.000980028
0.000950081
0.000928247
0.00091667
0.000917718
-0.0012232
-0.00114039
-0.00106099
-0.000986482
-0.000919038
-0.00086081
-0.000813747
-0.000779402
-0.000758642
-0.000752267
-0.000759301
-0.000777741
-0.000804632
-0.000836021
-0.000866789
-0.000891287
-0.000903633
-0.000898098
-0.000869551
-0.000813889
-0.000728418
-0.000612138
-0.000465934
-0.000292623
-9.68855e-05
0.000114957
0.000335301
0.000555728
0.000767581
0.000962578
0.00113344
0.00127446
0.00138191
0.00145431
0.00149241
0.00149901
0.00147848
0.00143624
0.00137812
0.00130977
0.00123623
0.00116162
0.0010891
0.00102091
0.00095859
0.000903229
0.00085573
0.000816968
0.000787847
0.000770013
0.00076588
-0.00164487
-0.00158652
-0.00153561
-0.0014943
-0.00146552
-0.0014522
-0.0014569
-0.00148159
-0.00152726
-0.00159375
-0.0016793
-0.00178094
-0.00189388
-0.00201092
-0.00212434
-0.00222549
-0.00230537
-0.00235524
-0.00236722
-0.00233489
-0.00225375
-0.00212165
-0.001939
-0.00170894
-0.00143727
-0.00113222
-0.000804117
-0.000464807
-0.000126969
0.0001967
0.000494347
0.000755832
0.000973459
0.00114254
0.00126163
0.00133247
0.00135958
0.00134952
0.00131007
0.00124932
0.00117492
0.00109348
0.00101032
0.00092945
0.000853715
0.000785149
0.000725291
0.00067546
0.000636963
0.000611494
0.000600973
-0.0021272
-0.00210215
-0.00209032
-0.00209491
-0.00211994
-0.00216933
-0.00224645
-0.00235374
-0.0024922
-0.00266091
-0.00285675
-0.00307424
-0.00330561
-0.00354138
-0.00376983
-0.00397778
-0.00415269
-0.00428211
-0.00435485
-0.0043616
-0.00429564
-0.00415324
-0.00393401
-0.00364109
-0.00328119
-0.00286435
-0.00240365
-0.00191465
-0.00141458
-0.000921433
-0.000452839
-2.48768e-05
0.000349068
0.000659292
0.000900454
0.00107181
0.00117698
0.0012232
0.00122026
0.00117923
0.0011112
0.00102633
0.000933158
0.00083838
0.00074696
0.000662452
0.000587445
0.00052398
0.000473902
0.00043903
0.000420819
-0.00267769
-0.00269679
-0.00273712
-0.00280332
-0.00290086
-0.00303495
-0.0032099
-0.00342854
-0.00369158
-0.00399699
-0.0043396
-0.00471091
-0.00509932
-0.00549074
-0.00586908
-0.00621733
-0.00651748
-0.00675304
-0.00690912
-0.00697322
-0.00693603
-0.00679196
-0.00653947
-0.00618135
-0.00572475
-0.00518117
-0.0045661
-0.00389861
-0.00320062
-0.00249583
-0.00180857
-0.00116223
-0.000577724
-7.1915e-05
0.000343644
0.000663549
0.000888725
0.00102589
0.00108636
0.0010844
0.00103539
0.000954196
0.000853936
0.000745308
0.000636485
0.000533408
0.000440329
0.00036042
0.000296314
0.000250065
0.000222573
-0.00330405
-0.00338032
-0.00348847
-0.00363507
-0.00382744
-0.00407227
-0.00437485
-0.00473822
-0.00516228
-0.0056431
-0.00617255
-0.00673822
-0.00732375
-0.00790971
-0.00847458
-0.00899582
-0.00945092
-0.00981884
-0.0100808
-0.0102211
-0.0102277
-0.0100931
-0.00981434
-0.00939348
-0.00883761
-0.00815895
-0.00737468
-0.00650663
-0.0055808
-0.00462638
-0.0036746
-0.00275703
-0.00190365
-0.00114073
-0.000488732
3.9346e-05
0.000438968
0.000714085
0.000876136
0.000942139
0.000932253
0.000867256
0.000766422
0.000646131
0.000519284
0.000395437
0.000281399
0.000182069
0.000101246
4.13563e-05
2.75399e-06
-0.00401414
-0.00416245
-0.00435655
-0.00460526
-0.00491801
-0.00530312
-0.00576667
-0.00631141
-0.00693567
-0.00763264
-0.00839004
-0.00919034
-0.0100115
-0.0108279
-0.0116122
-0.012336
-0.0129716
-0.0134941
-0.0138814
-0.0141145
-0.0141793
-0.0140663
-0.0137712
-0.0132951
-0.0126445
-0.0118314
-0.0108736
-0.00979439
-0.00862244
-0.00739127
-0.00613822
-0.00490291
-0.00372515
-0.00264231
-0.00168648
-0.000881686
-0.000241646
0.000231312
0.000545994
0.000720576
0.000779671
0.000750818
0.000661104
0.000534607
0.000390948
0.000244989
0.000107367
-1.442e-05
-0.000114864
-0.00019094
-0.000242928
-0.00481511
-0.00505205
-0.00535228
-0.00572717
-0.00618838
-0.00674566
-0.00740545
-0.0081694
-0.0090332
-0.00998588
-0.0110097
-0.0120809
-0.0131707
-0.0142468
-0.0152756
-0.0162234
-0.0170577
-0.0177482
-0.0182739
-0.0186117
-0.0187457
-0.0186652
-0.0183651
-0.0178454
-0.0171115
-0.0161745
-0.0150513
-0.0137651
-0.0123453
-0.0108276
-0.0092533
-0.00766872
-0.0061228
-0.00466462
-0.00333983
-0.00218674
-0.00123259
-0.000490712
4.06699e-05
0.000377582
0.000547354
0.000584213
0.000524397
0.000401863
0.000245407
7.7433e-05
-8.58263e-05
-0.000233034
-0.000356178
-0.000451311
-0.000519487
-0.00571213
-0.00605594
-0.00648406
-0.00701075
-0.00764975
-0.00841184
-0.00930296
-0.0103225
-0.0114623
-0.0127056
-0.0140279
-0.0153982
-0.0167801
-0.0181344
-0.0194216
-0.0206029
-0.0216418
-0.0225027
-0.0231735
-0.0236198
-0.0238278
-0.0237871
-0.0234922
-0.0229422
-0.0221416
-0.0210997
-0.0198317
-0.0183585
-0.0167079
-0.0149151
-0.0130225
-0.01108
-0.00914332
-0.00727195
-0.00552543
-0.00395856
-0.00261615
-0.00152795
-0.000705131
-0.000139192
0.000196062
0.000339812
0.000337803
0.000235831
7.46198e-05
-0.000113069
-0.000303033
-0.000478362
-0.000627415
-0.000744863
-0.000832594
-0.00670806
-0.00717787
-0.0077565
-0.00846099
-0.00930683
-0.010305
-0.0114599
-0.0127673
-0.0142132
-0.015774
-0.0174173
-0.0191034
-0.0207884
-0.0224265
-0.0239723
-0.0253834
-0.0266229
-0.027661
-0.0284573
-0.0290038
-0.0292828
-0.0292836
-0.0290007
-0.0284332
-0.0275845
-0.0264622
-0.0250786
-0.0234514
-0.0216046
-0.0195698
-0.0173868
-0.0151051
-0.0127833
-0.0104878
-0.00828992
-0.00626108
-0.00446613
-0.00295621
-0.00176218
-0.000890388
-0.00032214
-1.75395e-05
7.71676e-05
2.06358e-05
-0.000131801
-0.000333729
-0.000549932
-0.000755561
-0.00093375
-0.0010771
-0.00118846
-0.00780287
-0.00841805
-0.00916944
-0.0100766
-0.0111562
-0.0124183
-0.0138643
-0.0154847
-0.0172583
-0.019153
-0.0211273
-0.0231329
-0.0251183
-0.0270314
-0.0288226
-0.030447
-0.0318665
-0.0330495
-0.0339668
-0.0346025
-0.0349435
-0.0349815
-0.0347128
-0.0341371
-0.0332574
-0.0320798
-0.0306139
-0.0288733
-0.0268767
-0.0246497
-0.0222263
-0.0196511
-0.0169803
-0.0142821
-0.0116351
-0.00912409
-0.00683388
-0.00483996
-0.00319902
-0.00194052
-0.00106205
-0.000530302
-0.000287826
-0.000264027
-0.00038705
-0.000593383
-0.000833102
-0.00107032
-0.00128076
-0.00145389
-0.00159364
-0.0089939
-0.00977256
-0.0107171
-0.0118492
-0.0131854
-0.0147337
-0.0164909
-0.0184405
-0.0205527
-0.0227858
-0.0250886
-0.0274042
-0.0296741
-0.0318412
-0.033853
-0.0356639
-0.0372362
-0.0385399
-0.0395514
-0.0402559
-0.0406435
-0.0407091
-0.0404513
-0.0398716
-0.0389733
-0.037762
-0.036245
-0.0344319
-0.0323358
-0.0299751
-0.0273755
-0.0245729
-0.021616
-0.0185684
-0.0155093
-0.0125313
-0.00973502
-0.00721977
-0.00507171
-0.00335101
-0.0020816
-0.00124691
-0.000793746
-0.000643511
-0.000707751
-0.000902903
-0.00116022
-0.00142891
-0.00167433
-0.00188131
-0.00205455
-0.0102746
-0.0112326
-0.0123877
-0.0137625
-0.0153726
-0.0172224
-0.0193022
-0.0215872
-0.0240378
-0.026602
-0.029219
-0.0318238
-0.034352
-0.0367428
-0.0389427
-0.0409069
-0.0425998
-0.0439948
-0.045073
-0.0458229
-0.0462385
-0.0463182
-0.0460636
-0.0454785
-0.0445678
-0.0433374
-0.0417933
-0.0399423
-0.0377928
-0.0353557
-0.0326477
-0.0296935
-0.0265304
-0.0232115
-0.0198093
-0.0164157
-0.01314
-0.0101004
-0.0074121
-0.00517045
-0.00343508
-0.00221815
-0.00148206
-0.00114818
-0.00111441
-0.00127566
-0.00154038
-0.00183831
-0.00212069
-0.00236557
-0.00257827
-0.0116341
-0.0127844
-0.0141631
-0.0157932
-0.0176878
-0.019846
-0.0222508
-0.0248674
-0.0276459
-0.0305237
-0.0334311
-0.0362962
-0.0390498
-0.0416295
-0.0439822
-0.0460651
-0.0478463
-0.0493032
-0.0504219
-0.0511947
-0.0516198
-0.0516986
-0.0514365
-0.0508402
-0.0499167
-0.0486733
-0.0471163
-0.0452514
-0.0430834
-0.0406177
-0.0378621
-0.0348302
-0.0315454
-0.0280462
-0.0243912
-0.0206635
-0.016971
-0.0134422
-0.0102156
-0.00742164
-0.00516189
-0.00348869
-0.00239381
-0.00181049
-0.00163
-0.00172693
-0.0019838
-0.00230606
-0.00262624
-0.00291282
-0.00317097
-0.013058
-0.0144091
-0.0160196
-0.0179113
-0.0200936
-0.0225593
-0.0252823
-0.0282178
-0.031305
-0.0344716
-0.0376397
-0.0407317
-0.0436758
-0.0464092
-0.0488806
-0.0510507
-0.0528914
-0.0543849
-0.0555218
-0.056299
-0.0567174
-0.0567813
-0.0565
-0.0558834
-0.0549413
-0.0536834
-0.0521177
-0.0502503
-0.0480849
-0.0456233
-0.0428669
-0.0398191
-0.0364894
-0.0328997
-0.0290905
-0.0251279
-0.0211087
-0.0171605
-0.013435
-0.010092
-0.00727603
-0.00508787
-0.00356252
-0.00266019
-0.00227689
-0.00227184
-0.00250047
-0.00283929
-0.00319698
-0.00352879
-0.00383861
-0.0145285
-0.0160844
-0.0179291
-0.020082
-0.022548
-0.0253122
-0.0283392
-0.0315736
-0.0349443
-0.03837
-0.0417661
-0.0450512
-0.0481521
-0.0510073
-0.0535684
-0.0557999
-0.057678
-0.0591891
-0.0603284
-0.0610967
-0.0614966
-0.0615347
-0.0612234
-0.0605766
-0.059607
-0.0583273
-0.0567484
-0.0548786
-0.0527227
-0.0502815
-0.0475527
-0.0445322
-0.041218
-0.0376157
-0.0337457
-0.0296526
-0.0254134
-0.0211432
-0.0169942
-0.0131446
-0.00977541
-0.00703872
-0.00502355
-0.00373322
-0.00308437
-0.00293089
-0.00310354
-0.00344655
-0.00383916
-0.00421891
-0.00458666
)
;

boundaryField
{
    movingWall
    {
        type            zeroGradient;
    }
    fixedWalls
    {
        type            zeroGradient;
    }
    frontAndBack
    {
        type            empty;
    }
    procBoundary6to1
    {
        type            processor;
        value           nonuniform List<scalar> 
26
(
0.00154612
0.00165735
0.00176741
0.00187586
0.00198213
0.00136294
0.00127943
0.00118159
0.00106687
0.000932395
0.000774648
0.000774648
0.000457438
-1.08116e-05
0.000113542
0.000240989
0.000240989
-0.000371831
-0.000645008
-0.00095565
-0.00130873
-0.00170946
-0.00216347
-0.00267664
-0.00325507
-0.00390504
)
;
    }
    procBoundary6to3
    {
        type            processor;
        value           nonuniform List<scalar> 9(-0.00463226 -0.00544071 -0.00633162 -0.00730493 -0.00835902 -0.00948872 -0.0106856 -0.011938 -0.0132323);
    }
    procBoundary6to4
    {
        type            processor;
        value           nonuniform List<scalar> 
30
(
-0.0659547
-0.0656054
-0.0649193
-0.0639118
-0.0625992
-0.0609963
-0.0591152
-0.0569636
-0.0545441
-0.0518536
-0.0488842
-0.0456255
-0.0420695
-0.0382179
-0.0340918
-0.029743
-0.025264
-0.0207941
-0.0165149
-0.0126326
-0.00934548
-0.00680198
-0.00506294
-0.00408384
-0.00372836
-0.00380965
-0.00413871
-0.00456019
-0.00498887
-0.0054202
)
;
    }
    procBoundary6to5
    {
        type            processor;
        value           nonuniform List<scalar> 
21
(
-0.0160283
-0.0177882
-0.0198634
-0.0222705
-0.0250087
-0.0280552
-0.0313649
-0.0348725
-0.0384974
-0.0421506
-0.0457424
-0.0491891
-0.0524175
-0.0553686
-0.0579973
-0.0602723
-0.0621737
-0.0636911
-0.064823
-0.0655754
-0.0659504
)
;
    }
    procBoundary6to7
    {
        type            processor;
        value           nonuniform List<scalar> 
45
(
0.00203927
0.00203927
0.00277907
0.00275777
0.00272914
0.00269408
0.00265359
0.00260864
0.00256029
0.00250954
0.0024574
0.00240482
0.00235266
0.00230168
0.00225256
0.00220586
0.00216203
0.00212141
0.0020843
0.00205089
0.00202135
0.00199582
0.00197443
0.00195732
0.00194466
0.00193656
0.00193307
0.00193514
0.00194497
0.00208838
0.00208838
0.00219019
0.00228596
0.00237488
0.00245622
0.00252924
0.00259333
0.00264798
0.00269279
0.00272749
0.00275197
0.00276626
0.00277076
0.00276573
0.00276573
)
;
    }
}


// ************************************************************************* //
