/*--------------------------------*- C++ -*----------------------------------*\
  =========                 |
  \\      /  F ield         | OpenFOAM: The Open Source CFD Toolbox
   \\    /   O peration     | Website:  https://openfoam.org
    \\  /    A nd           | Version:  9
     \\/     M anipulation  |
\*---------------------------------------------------------------------------*/
FoamFile
{
    format      ascii;
    class       volVectorField;
    location    "0.5";
    object      U;
}
// * * * * * * * * * * * * * * * * * * * * * * * * * * * * * * * * * * * * * //

dimensions      [0 1 -1 0 0 0 0];

internalField   nonuniform List<vector> 
1240
(
(-0.0633194 -0.00628667 0)
(-0.0632303 -0.00871948 0)
(-0.0629758 -0.0111835 0)
(-0.062551 -0.0136626 0)
(-0.0619543 -0.016142 0)
(-0.066024 -0.00624722 0)
(-0.0660498 -0.0088436 0)
(-0.0659104 -0.0114762 0)
(-0.0656021 -0.0141277 0)
(-0.0651206 -0.0167796 0)
(-0.0644689 -0.019416 0)
(-0.034783 -0.0431157 0)
(-0.0317961 -0.0429136 0)
(-0.0287902 -0.0424443 0)
(-0.0257984 -0.0417142 0)
(-0.0228549 -0.0407344 0)
(-0.0199935 -0.0395196 0)
(-0.0172466 -0.038088 0)
(-0.0146442 -0.0364604 0)
(-0.0122124 -0.0346597 0)
(-0.00997292 -0.0327095 0)
(-0.00794232 -0.0306336 0)
(-0.00613165 -0.028455 0)
(-0.00454649 -0.0261955 0)
(-0.0031872 -0.0238751 0)
(-0.00204947 -0.0215122 0)
(-0.0011249 -0.0191246 0)
(-0.000401723 -0.0167298 0)
(0.000134518 -0.0143471 0)
(0.00050048 -0.0119988 0)
(0.000714693 -0.0097127 0)
(0.000797503 -0.00752386 0)
(0.00077131 -0.00547687 0)
(0.000661099 -0.00362756 0)
(0.000494833 -0.00204446 0)
(0.000303459 -0.000809684 0)
(0.000126171 -1.9354e-05 0)
(2.33999e-05 0.000217577 0)
(-0.0689983 -0.00607665 0)
(-0.0691797 -0.00883316 0)
(-0.069203 -0.0116306 0)
(-0.0690655 -0.0144508 0)
(-0.0687644 -0.0172738 0)
(-0.0682972 -0.0200793 0)
(-0.0676658 -0.0228481 0)
(-0.0668666 -0.0255571 0)
(-0.0658961 -0.0281843 0)
(-0.06475 -0.0307091 0)
(-0.0634229 -0.0331114 0)
(-0.0619093 -0.0353715 0)
(-0.0602035 -0.0374698 0)
(-0.0583009 -0.0393868 0)
(-0.0561985 -0.0411031 0)
(-0.0538962 -0.0425995 0)
(-0.051398 -0.0438573 0)
(-0.0487124 -0.0448589 0)
(-0.0458531 -0.0455885 0)
(-0.0428398 -0.0460334 0)
(-0.0396989 -0.0461842 0)
(-0.0364604 -0.0460348 0)
(-0.0331596 -0.0455837 0)
(-0.0298369 -0.0448353 0)
(-0.0265341 -0.0437995 0)
(-0.0232942 -0.0424914 0)
(-0.0201592 -0.0409312 0)
(-0.0171686 -0.0391429 0)
(-0.014358 -0.0371536 0)
(-0.0117574 -0.0349926 0)
(-0.00939067 -0.0326894 0)
(-0.0072745 -0.0302732 0)
(-0.00541856 -0.0277719 0)
(-0.00382557 -0.0252112 0)
(-0.00249189 -0.0226146 0)
(-0.00140834 -0.020004 0)
(-0.000561105 -0.0174007 0)
(6.73035e-05 -0.0148265 0)
(0.000497248 -0.0123061 0)
(0.000751385 -0.00986918 0)
(0.000854379 -0.00755288 0)
(0.000832975 -0.00540401 0)
(0.000716438 -0.00348122 0)
(0.000536872 -0.00185664 0)
(0.000329168 -0.000616877 0)
(0.000136695 0.000136518 0)
(2.529e-05 0.000288194 0)
(-0.0722847 -0.00573162 0)
(-0.0726754 -0.00863801 0)
(-0.0729236 -0.011589 0)
(-0.0730279 -0.0145653 0)
(-0.0729861 -0.0175467 0)
(-0.0727958 -0.0205129 0)
(-0.0724539 -0.0234435 0)
(-0.0719555 -0.0263187 0)
(-0.0712923 -0.0291185 0)
(-0.0704533 -0.0318237 0)
(-0.0694254 -0.0344153 0)
(-0.0681938 -0.0368742 0)
(-0.0667434 -0.0391806 0)
(-0.0650594 -0.0413138 0)
(-0.0631294 -0.0432516 0)
(-0.0609448 -0.044971 0)
(-0.0585021 -0.0464485 0)
(-0.0558043 -0.0476605 0)
(-0.0528617 -0.0485847 0)
(-0.0496929 -0.0492014 0)
(-0.0463253 -0.0494944 0)
(-0.0427932 -0.0494515 0)
(-0.0391389 -0.0490661 0)
(-0.0354103 -0.0483385 0)
(-0.0316592 -0.0472763 0)
(-0.0279399 -0.045894 0)
(-0.0243068 -0.0442132 0)
(-0.0208121 -0.0422615 0)
(-0.0175034 -0.0400708 0)
(-0.0144224 -0.0376769 0)
(-0.0116028 -0.0351167 0)
(-0.00906968 -0.0324273 0)
(-0.00683878 -0.0296446 0)
(-0.00491679 -0.0268019 0)
(-0.00330181 -0.0239296 0)
(-0.00198441 -0.0210555 0)
(-0.000948773 -0.0182056 0)
(-0.00017403 -0.0154055 0)
(0.000364569 -0.012683 0)
(0.000694701 -0.0100699 0)
(0.000846359 -0.00760546 0)
(0.000851679 -0.00533881 0)
(0.000745211 -0.00333128 0)
(0.00056412 -0.00165842 0)
(0.000348058 -0.000411195 0)
(0.000145184 0.000303527 0)
(2.69906e-05 0.000363987 0)
(-0.0759363 -0.00515583 0)
(-0.0766055 -0.00819282 0)
(-0.0771584 -0.0112763 0)
(-0.077595 -0.0143866 0)
(-0.0779138 -0.0175042 0)
(-0.0781113 -0.0206101 0)
(-0.0781808 -0.0236865 0)
(-0.0781116 -0.0267165 0)
(-0.0778882 -0.0296841 0)
(-0.0774905 -0.0325732 0)
(-0.076894 -0.0353677 0)
(-0.0760718 -0.0380501 0)
(-0.0749957 -0.0406005 0)
(-0.0736381 -0.0429968 0)
(-0.0719745 -0.0452135 0)
(-0.0699852 -0.0472225 0)
(-0.0676573 -0.0489934 0)
(-0.064987 -0.0504948 0)
(-0.0619801 -0.0516953 0)
(-0.0586534 -0.0525657 0)
(-0.0550353 -0.05308 0)
(-0.0511647 -0.0532173 0)
(-0.0470908 -0.0529634 0)
(-0.0428709 -0.0523124 0)
(-0.0385689 -0.0512677 0)
(-0.0342529 -0.0498421 0)
(-0.0299925 -0.0480578 0)
(-0.0258557 -0.0459455 0)
(-0.021906 -0.0435428 0)
(-0.0182 -0.040893 0)
(-0.0147849 -0.0380421 0)
(-0.0116973 -0.0350375 0)
(-0.00896181 -0.0319251 0)
(-0.00659129 -0.0287485 0)
(-0.00458717 -0.0255474 0)
(-0.00294064 -0.0223575 0)
(-0.00163421 -0.0192115 0)
(-0.000643352 -0.0161403 0)
(6.17572e-05 -0.0131752 0)
(0.000514827 -0.0103514 0)
(0.000752381 -0.00771024 0)
(0.000813221 -0.00530308 0)
(0.000738431 -0.00319378 0)
(0.000571404 -0.00146106 0)
(0.000357598 -0.000199937 0)
(0.000150776 0.000477677 0)
(2.83748e-05 0.000443778 0)
(-0.0800154 -0.00427743 0)
(-0.0810495 -0.00741428 0)
(-0.0820061 -0.0105974 0)
(-0.0828873 -0.0138078 0)
(-0.0836916 -0.0170281 0)
(-0.0844128 -0.0202432 0)
(-0.0850389 -0.0234401 0)
(-0.0855511 -0.0266077 0)
(-0.0859231 -0.0297356 0)
(-0.0861217 -0.0328133 0)
(-0.086108 -0.0358287 0)
(-0.0858392 -0.0387667 0)
(-0.0852707 -0.0416081 0)
(-0.0843593 -0.0443282 0)
(-0.0830657 -0.0468975 0)
(-0.0813571 -0.0492809 0)
(-0.0792099 -0.0514392 0)
(-0.0766117 -0.0533302 0)
(-0.0735629 -0.0549109 0)
(-0.0700781 -0.0561391 0)
(-0.0661863 -0.0569764 0)
(-0.0619307 -0.0573899 0)
(-0.0573677 -0.0573546 0)
(-0.0525654 -0.0568558 0)
(-0.0476011 -0.0558902 0)
(-0.0425592 -0.054467 0)
(-0.037527 -0.0526079 0)
(-0.0325919 -0.0503461 0)
(-0.0278369 -0.0477252 0)
(-0.0233376 -0.0447971 0)
(-0.0191592 -0.0416188 0)
(-0.0153533 -0.0382502 0)
(-0.0119574 -0.0347507 0)
(-0.00899316 -0.0311768 0)
(-0.00646778 -0.0275806 0)
(-0.00437455 -0.0240089 0)
(-0.00269494 -0.0205033 0)
(-0.00140076 -0.0171019 0)
(-0.000456468 -0.0138416 0)
(0.000178739 -0.0107609 0)
(0.000549286 -0.00790424 0)
(0.000702146 -0.00532508 0)
(0.000686458 -0.00308958 0)
(0.000553285 -0.00127922 0)
(0.000355212 7.36757e-06 0)
(0.000152641 0.000653701 0)
(2.93376e-05 0.00052592 0)
(-0.0830589 0.000122016 0)
(-0.0845912 -0.00300788 0)
(-0.0860937 -0.00620031 0)
(-0.087573 -0.009436 0)
(-0.0890327 -0.0126987 0)
(-0.0904693 -0.0159759 0)
(-0.0918721 -0.0192594 0)
(-0.093221 -0.0225441 0)
(-0.0944855 -0.0258276 0)
(-0.0956247 -0.0291079 0)
(-0.0965886 -0.0323819 0)
(-0.0973198 -0.0356431 0)
(-0.0977563 -0.0388794 0)
(-0.0978346 -0.0420716 0)
(-0.0974935 -0.0451923 0)
(-0.0966768 -0.0482056 0)
(-0.0953375 -0.0510678 0)
(-0.0934398 -0.053728 0)
(-0.0909619 -0.0561308 0)
(-0.0878982 -0.058218 0)
(-0.0842599 -0.0599317 0)
(-0.0800761 -0.0612173 0)
(-0.0753936 -0.0620265 0)
(-0.070276 -0.0623202 0)
(-0.0648022 -0.0620713 0)
(-0.059064 -0.0612671 0)
(-0.0531631 -0.0599104 0)
(-0.0472074 -0.0580204 0)
(-0.0413062 -0.0556318 0)
(-0.0355662 -0.0527941 0)
(-0.0300866 -0.0495685 0)
(-0.0249548 -0.0460249 0)
(-0.0202429 -0.0422383 0)
(-0.0160051 -0.0382847 0)
(-0.0122764 -0.0342378 0)
(-0.00907271 -0.030166 0)
(-0.00639171 -0.0261305 0)
(-0.00421515 -0.0221855 0)
(-0.00251154 -0.018379 0)
(-0.00123922 -0.014755 0)
(-0.000349211 -0.0113575 0)
(0.000212279 -0.00823395 0)
(0.00050212 -0.0054404 0)
(0.000579301 -0.00304496 0)
(0.000504295 -0.00113141 0)
(0.000338437 0.000198687 0)
(0.000150069 0.000824952 0)
(2.98188e-05 0.000608339 0)
(-0.0876774 0.00189173 0)
(-0.089733 -0.00124228 0)
(-0.0918248 -0.00443001 0)
(-0.0939643 -0.00765558 0)
(-0.0961542 -0.0109086 0)
(-0.0983874 -0.014185 0)
(-0.100645 -0.0174871 0)
(-0.102896 -0.0208216 0)
(-0.105092 -0.0241979 0)
(-0.107176 -0.0276253 0)
(-0.109075 -0.0311099 0)
(-0.110712 -0.0346516 0)
(-0.112002 -0.0382413 0)
(-0.112862 -0.0418592 0)
(-0.113209 -0.0454734 0)
(-0.112972 -0.04904 0)
(-0.112088 -0.0525038 0)
(-0.110509 -0.0558 0)
(-0.108203 -0.0588567 0)
(-0.105158 -0.0615979 0)
(-0.10138 -0.0639464 0)
(-0.0968979 -0.0658284 0)
(-0.0917605 -0.0671763 0)
(-0.0860372 -0.0679332 0)
(-0.0798166 -0.0680561 0)
(-0.0732045 -0.0675188 0)
(-0.0663202 -0.0663146 0)
(-0.0592932 -0.0644571 0)
(-0.0522577 -0.0619808 0)
(-0.0453473 -0.0589395 0)
(-0.038689 -0.0554044 0)
(-0.0323981 -0.0514595 0)
(-0.0265724 -0.0471978 0)
(-0.0212888 -0.0427157 0)
(-0.0166007 -0.0381081 0)
(-0.0125371 -0.0334647 0)
(-0.00910348 -0.0288662 0)
(-0.00628401 -0.0243834 0)
(-0.00404495 -0.020078 0)
(-0.00233846 -0.0160041 0)
(-0.00110653 -0.0122127 0)
(-0.000284465 -0.00875583 0)
(0.000196399 -0.00569223 0)
(0.000406956 -0.00309179 0)
(0.000419152 -0.00103992 0)
(0.000305027 0.000359648 0)
(0.000142482 0.000983596 0)
(2.9796e-05 0.00068866 0)
(-0.0852639 0.0129875 0)
(-0.0877078 0.0101483 0)
(-0.0902152 0.007215 0)
(-0.0928085 0.00420631 0)
(-0.0955041 0.00114046 0)
(-0.0983209 -0.00196603 0)
(-0.101271 -0.0051035 0)
(-0.104355 -0.008272 0)
(-0.107557 -0.0114803 0)
(-0.110848 -0.0147458 0)
(-0.114178 -0.0180907 0)
(-0.117481 -0.0215397 0)
(-0.120676 -0.0251157 0)
(-0.123668 -0.0288352 0)
(-0.126355 -0.0327045 0)
(-0.128629 -0.0367169 0)
(-0.130385 -0.0408502 0)
(-0.131524 -0.045066 0)
(-0.131957 -0.0493101 0)
(-0.131606 -0.0535134 0)
(-0.130412 -0.0575946 0)
(-0.128334 -0.061463 0)
(-0.12535 -0.0650218 0)
(-0.121463 -0.0681723 0)
(-0.116698 -0.0708181 0)
(-0.111102 -0.0728691 0)
(-0.104749 -0.0742469 0)
(-0.097735 -0.074888 0)
(-0.0901759 -0.0747489 0)
(-0.0822082 -0.0738086 0)
(-0.0739823 -0.0720714 0)
(-0.0656582 -0.069568 0)
(-0.0573991 -0.0663547 0)
(-0.0493642 -0.0625111 0)
(-0.0417017 -0.0581364 0)
(-0.0345419 -0.0533436 0)
(-0.0279911 -0.0482535 0)
(-0.0221277 -0.0429875 0)
(-0.0169997 -0.0376618 0)
(-0.0126253 -0.0323827 0)
(-0.00899448 -0.0272436 0)
(-0.0060733 -0.0223244 0)
(-0.00380836 -0.0176935 0)
(-0.00213206 -0.0134116 0)
(-0.000967377 -0.00953705 0)
(-0.000231839 -0.00613189 0)
(0.000159669 -0.00326773 0)
(0.000292946 -0.00103096 0)
(0.000253062 0.000473577 0)
(0.000129484 0.00112073 0)
(2.92919e-05 0.000764282 0)
(-0.0891733 0.0156279 0)
(-0.0921276 0.0128768 0)
(-0.0952224 0.0100546 0)
(-0.0984893 0.00718116 0)
(-0.101954 0.00427306 0)
(-0.105639 0.00134004 0)
(-0.109556 -0.00161915 0)
(-0.113697 -0.00461888 0)
(-0.118036 -0.00768665 0)
(-0.122527 -0.0108601 0)
(-0.127098 -0.0141802 0)
(-0.13166 -0.0176904 0)
(-0.136106 -0.0214278 0)
(-0.140316 -0.0254197 0)
(-0.144162 -0.029678 0)
(-0.147518 -0.034196 0)
(-0.150257 -0.0389472 0)
(-0.152265 -0.043884 0)
(-0.153437 -0.0489395 0)
(-0.153686 -0.0540286 0)
(-0.15294 -0.0590517 0)
(-0.151149 -0.0638973 0)
(-0.148284 -0.0684465 0)
(-0.14434 -0.072577 0)
(-0.139336 -0.0761675 0)
(-0.133316 -0.079103 0)
(-0.126351 -0.0812796 0)
(-0.11854 -0.0826096 0)
(-0.110006 -0.0830268 0)
(-0.100898 -0.082491 0)
(-0.0913843 -0.0809917 0)
(-0.0816499 -0.0785505 0)
(-0.0718885 -0.075222 0)
(-0.0622946 -0.0710921 0)
(-0.0530548 -0.0662739 0)
(-0.0443383 -0.0609021 0)
(-0.0362889 -0.0551251 0)
(-0.0290182 -0.049096 0)
(-0.0226015 -0.0429646 0)
(-0.017076 -0.0368697 0)
(-0.0124432 -0.0309343 0)
(-0.00867207 -0.0252634 0)
(-0.00570541 -0.019945 0)
(-0.00346606 -0.0150535 0)
(-0.00186352 -0.0106561 0)
(-0.000799477 -0.00681924 0)
(-0.000172041 -0.00361651 0)
(0.000121192 -0.00113466 0)
(0.000180997 0.000521605 0)
(0.000110873 0.00122652 0)
(2.83799e-05 0.000832497 0)
(-0.0933504 0.0187818 0)
(-0.096899 0.016199 0)
(-0.100682 0.0135786 0)
(-0.10474 0.0109399 0)
(-0.109106 0.00829392 0)
(-0.113801 0.00563899 0)
(-0.118832 0.00295663 0)
(-0.12418 0.000211639 0)
(-0.129804 -0.00264695 0)
(-0.135632 -0.00567821 0)
(-0.14157 -0.00894918 0)
(-0.147501 -0.0125225 0)
(-0.153291 -0.0164495 0)
(-0.158794 -0.0207669 0)
(-0.163864 -0.0254892 0)
(-0.168352 -0.0306073 0)
(-0.172119 -0.0360869 0)
(-0.175037 -0.041869 0)
(-0.176993 -0.0478714 0)
(-0.177889 -0.053992 0)
(-0.177647 -0.0601116 0)
(-0.176209 -0.0660977 0)
(-0.173536 -0.0718088 0)
(-0.169614 -0.0770985 0)
(-0.164454 -0.08182 0)
(-0.158089 -0.0858311 0)
(-0.150585 -0.089 0)
(-0.142035 -0.0912107 0)
(-0.132562 -0.0923693 0)
(-0.12232 -0.0924099 0)
(-0.111491 -0.0913005 0)
(-0.10028 -0.0890467 0)
(-0.0889089 -0.0856949 0)
(-0.0776094 -0.0813319 0)
(-0.0666101 -0.0760818 0)
(-0.0561262 -0.0701006 0)
(-0.0463479 -0.0635664 0)
(-0.03743 -0.0566694 0)
(-0.0294849 -0.0495999 0)
(-0.0225787 -0.042538 0)
(-0.0167315 -0.0356454 0)
(-0.0119212 -0.0290607 0)
(-0.00808958 -0.0228986 0)
(-0.0051512 -0.017253 0)
(-0.00300134 -0.0122034 0)
(-0.00152395 -0.00782317 0)
(-0.000597714 -0.00418814 0)
(-0.000100389 -0.00138498 0)
(8.75721e-05 0.000482618 0)
(8.6613e-05 0.00129038 0)
(2.71801e-05 0.000890592 0)
(-0.0977872 0.0225283 0)
(-0.102017 0.0202104 0)
(-0.10659 0.0178979 0)
(-0.111553 0.0156067 0)
(-0.116943 0.0133373 0)
(-0.122776 0.0110704 0)
(-0.129049 0.00876447 0)
(-0.135725 0.00635646 0)
(-0.142739 0.00376748 0)
(-0.149994 0.000910136 0)
(-0.157371 -0.00230685 0)
(-0.164721 -0.00596326 0)
(-0.171884 -0.010126 0)
(-0.178695 -0.0148373 0)
(-0.184987 -0.0201103 0)
(-0.190602 -0.0259296 0)
(-0.19539 -0.0322497 0)
(-0.199219 -0.0389974 0)
(-0.201969 -0.0460743 0)
(-0.203539 -0.0533603 0)
(-0.203847 -0.0607172 0)
(-0.202828 -0.0679926 0)
(-0.200435 -0.0750237 0)
(-0.196643 -0.0816412 0)
(-0.191449 -0.0876734 0)
(-0.184875 -0.0929511 0)
(-0.176969 -0.0973129 0)
(-0.167811 -0.100611 0)
(-0.157515 -0.10272 0)
(-0.146231 -0.103541 0)
(-0.134142 -0.103012 0)
(-0.121467 -0.101113 0)
(-0.108451 -0.0978747 0)
(-0.09536 -0.093375 0)
(-0.082466 -0.0877431 0)
(-0.0700361 -0.0811525 0)
(-0.0583154 -0.0738116 0)
(-0.0475137 -0.0659513 0)
(-0.0377933 -0.0578098 0)
(-0.0292615 -0.0496184 0)
(-0.021968 -0.0415884 0)
(-0.0159074 -0.033903 0)
(-0.0110268 -0.0267134 0)
(-0.00723456 -0.0201408 0)
(-0.00441226 -0.0142827 0)
(-0.00242445 -0.00922248 0)
(-0.0011276 -0.00503957 0)
(-0.000376518 -0.00182033 0)
(-2.86865e-05 0.000333635 0)
(5.68549e-05 0.00130105 0)
(2.58734e-05 0.000935957 0)
(-0.102464 0.0269475 0)
(-0.107458 0.025004 0)
(-0.112914 0.0231172 0)
(-0.118884 0.0212944 0)
(-0.125399 0.0195191 0)
(-0.132469 0.0177478 0)
(-0.140071 0.015909 0)
(-0.148147 0.013907 0)
(-0.156605 0.0116297 0)
(-0.165316 0.0089573 0)
(-0.174128 0.00577713 0)
(-0.182871 0.00199188 0)
(-0.191363 -0.00247358 0)
(-0.199421 -0.00766012 0)
(-0.206868 -0.0135777 0)
(-0.213539 -0.0201997 0)
(-0.219286 -0.027466 0)
(-0.223975 -0.0352869 0)
(-0.22749 -0.0435471 0)
(-0.229733 -0.0521094 0)
(-0.230619 -0.0608183 0)
(-0.23008 -0.0695043 0)
(-0.228063 -0.0779864 0)
(-0.224532 -0.0860757 0)
(-0.219466 -0.0935784 0)
(-0.212868 -0.1003 0)
(-0.204764 -0.10605 0)
(-0.195211 -0.110648 0)
(-0.184302 -0.113932 0)
(-0.172167 -0.115765 0)
(-0.15898 -0.116045 0)
(-0.144961 -0.114718 0)
(-0.130365 -0.111783 0)
(-0.115487 -0.107299 0)
(-0.100639 -0.10139 0)
(-0.0861424 -0.094237 0)
(-0.0723055 -0.0860766 0)
(-0.0594048 -0.0771813 0)
(-0.0476674 -0.0678439 0)
(-0.0372576 -0.0583569 0)
(-0.0282696 -0.0489946 0)
(-0.0207275 -0.0399983 0)
(-0.0145919 -0.0315689 0)
(-0.00977066 -0.0238658 0)
(-0.00613318 -0.0170125 0)
(-0.00352388 -0.0111071 0)
(-0.00177438 -0.00623552 0)
(-0.000712745 -0.00248402 0)
(-0.000169477 4.91193e-05 0)
(2.1347e-05 0.0012466 0)
(2.46165e-05 0.000966107 0)
(-0.107337 0.0321135 0)
(-0.113168 0.0306632 0)
(-0.119584 0.0293254 0)
(-0.126635 0.0280925 0)
(-0.134345 0.026924 0)
(-0.142707 0.0257442 0)
(-0.151675 0.0244449 0)
(-0.161162 0.0228927 0)
(-0.171043 0.0209398 0)
(-0.18116 0.0184376 0)
(-0.19133 0.0152511 0)
(-0.201361 0.0112696 0)
(-0.211054 0.00641835 0)
(-0.220219 0.000662011 0)
(-0.228678 -0.00599762 0)
(-0.236269 -0.0135178 0)
(-0.24285 -0.0218218 0)
(-0.248296 -0.0308021 0)
(-0.252502 -0.0403264 0)
(-0.255376 -0.0502423 0)
(-0.256841 -0.0603805 0)
(-0.256828 -0.0705581 0)
(-0.25528 -0.0805812 0)
(-0.252148 -0.0902464 0)
(-0.247397 -0.0993431 0)
(-0.241004 -0.107656 0)
(-0.232967 -0.114969 0)
(-0.223311 -0.12107 0)
(-0.212092 -0.125757 0)
(-0.199409 -0.128852 0)
(-0.185409 -0.130205 0)
(-0.170292 -0.129713 0)
(-0.154311 -0.127332 0)
(-0.137772 -0.123085 0)
(-0.121022 -0.117071 0)
(-0.10443 -0.10947 0)
(-0.0883735 -0.100535 0)
(-0.0732055 -0.090577 0)
(-0.0592343 -0.0799465 0)
(-0.0467003 -0.0690076 0)
(-0.0357618 -0.0581117 0)
(-0.0264897 -0.0475756 0)
(-0.0188718 -0.0376665 0)
(-0.0128245 -0.0285969 0)
(-0.00820932 -0.0205278 0)
(-0.00485115 -0.0135802 0)
(-0.00255464 -0.00784996 0)
(-0.00111722 -0.00342506 0)
(-0.000337711 -0.000399893 0)
(-2.03081e-05 0.00111384 0)
(2.34785e-05 0.000978539 0)
(-0.11234 0.0380883 0)
(-0.11906 0.0372527 0)
(-0.126485 0.0365853 0)
(-0.134657 0.036056 0)
(-0.143587 0.0355918 0)
(-0.153243 0.0350778 0)
(-0.163549 0.0343631 0)
(-0.174384 0.0332728 0)
(-0.185591 0.0316238 0)
(-0.19698 0.0292414 0)
(-0.208346 0.0259749 0)
(-0.219477 0.0217098 0)
(-0.230167 0.0163763 0)
(-0.240226 0.00995038 0)
(-0.249483 0.00245464 0)
(-0.257789 -0.00604831 0)
(-0.265017 -0.0154615 0)
(-0.271061 -0.0256591 0)
(-0.275831 -0.0364931 0)
(-0.279253 -0.0477984 0)
(-0.281258 -0.059396 0)
(-0.281785 -0.0710952 0)
(-0.280777 -0.0826957 0)
(-0.278177 -0.0939868 0)
(-0.273932 -0.104749 0)
(-0.267996 -0.114753 0)
(-0.260333 -0.123763 0)
(-0.250926 -0.131539 0)
(-0.239786 -0.137844 0)
(-0.226964 -0.142452 0)
(-0.212559 -0.145162 0)
(-0.196731 -0.145811 0)
(-0.17971 -0.144294 0)
(-0.16179 -0.140577 0)
(-0.143332 -0.134718 0)
(-0.124748 -0.126871 0)
(-0.106476 -0.117287 0)
(-0.0889547 -0.106307 0)
(-0.0725868 -0.0943368 0)
(-0.0577101 -0.0818189 0)
(-0.0445714 -0.0691964 0)
(-0.0333119 -0.0568813 0)
(-0.0239663 -0.0452289 0)
(-0.0164739 -0.0345245 0)
(-0.0106968 -0.0249832 0)
(-0.00644359 -0.0167601 0)
(-0.00349081 -0.00996839 0)
(-0.00160171 -0.0047002 0)
(-0.000538303 -0.00104656 0)
(-6.92474e-05 0.0008876 0)
(2.2495e-05 0.000970355 0)
(-0.117377 0.0449135 0)
(-0.125011 0.0448097 0)
(-0.133458 0.0449235 0)
(-0.142748 0.045194 0)
(-0.152867 0.0455076 0)
(-0.163755 0.0457027 0)
(-0.175301 0.0455819 0)
(-0.187348 0.0449283 0)
(-0.199704 0.0435261 0)
(-0.212155 0.0411801 0)
(-0.224475 0.0377326 0)
(-0.236443 0.0330741 0)
(-0.247855 0.0271491 0)
(-0.258529 0.0199546 0)
(-0.268309 0.0115371 0)
(-0.277067 0.00198341 0)
(-0.284701 -0.00858642 0)
(-0.291129 -0.0200275 0)
(-0.296287 -0.0321772 0)
(-0.300121 -0.0448613 0)
(-0.302582 -0.0578956 0)
(-0.303621 -0.0710883 0)
(-0.303185 -0.0842397 0)
(-0.301217 -0.0971409 0)
(-0.29765 -0.109572 0)
(-0.292416 -0.121301 0)
(-0.285443 -0.132081 0)
(-0.276669 -0.141654 0)
(-0.266053 -0.149752 0)
(-0.253581 -0.156105 0)
(-0.239289 -0.160455 0)
(-0.223274 -0.162574 0)
(-0.20571 -0.162279 0)
(-0.186857 -0.159461 0)
(-0.167063 -0.154107 0)
(-0.146755 -0.146317 0)
(-0.126423 -0.136317 0)
(-0.106585 -0.124454 0)
(-0.0877495 -0.111178 0)
(-0.0703714 -0.0970109 0)
(-0.0548124 -0.0824993 0)
(-0.0413137 -0.0681717 0)
(-0.0299849 -0.0544974 0)
(-0.0208092 -0.0418611 0)
(-0.013664 -0.0305544 0)
(-0.00834853 -0.0207837 0)
(-0.00461272 -0.0126903 0)
(-0.00218281 -0.0063761 0)
(-0.000778787 -0.00193022 0)
(-0.000127727 0.00054963 0)
(2.14091e-05 0.000937891 0)
(-0.122322 0.0526027 0)
(-0.130862 0.0533357 0)
(-0.140303 0.0543224 0)
(-0.150655 0.0554627 0)
(-0.161876 0.0565944 0)
(-0.173869 0.0575043 0)
(-0.186486 0.0579463 0)
(-0.199536 0.057664 0)
(-0.212797 0.0564146 0)
(-0.22603 0.0539912 0)
(-0.238999 0.0502386 0)
(-0.251485 0.0450624 0)
(-0.26329 0.0384306 0)
(-0.274249 0.0303692 0)
(-0.284232 0.0209544 0)
(-0.293137 0.0103013 0)
(-0.300893 -0.00144619 0)
(-0.30745 -0.0141245 0)
(-0.312775 -0.0275554 0)
(-0.316842 -0.0415609 0)
(-0.319627 -0.0559561 0)
(-0.321099 -0.0705541 0)
(-0.321219 -0.0851638 0)
(-0.319932 -0.0995875 0)
(-0.317167 -0.113616 0)
(-0.312836 -0.127026 0)
(-0.30684 -0.139571 0)
(-0.299072 -0.150988 0)
(-0.289433 -0.160987 0)
(-0.277838 -0.169265 0)
(-0.264246 -0.17551 0)
(-0.248668 -0.179423 0)
(-0.231196 -0.180735 0)
(-0.212022 -0.17924 0)
(-0.191444 -0.174828 0)
(-0.169873 -0.167511 0)
(-0.147821 -0.157452 0)
(-0.125872 -0.144971 0)
(-0.104635 -0.130539 0)
(-0.0846967 -0.114744 0)
(-0.0665601 -0.098242 0)
(-0.0506007 -0.0816979 0)
(-0.0370374 -0.0657242 0)
(-0.0259289 -0.0508381 0)
(-0.0171898 -0.0374386 0)
(-0.0106234 -0.0258079 0)
(-0.00595819 -0.0161318 0)
(-0.00288258 -0.00853171 0)
(-0.00106984 -0.00309841 0)
(-0.000199181 7.71556e-05 0)
(1.98229e-05 0.00087616 0)
(-0.12703 0.0611361 0)
(-0.136425 0.0627905 0)
(-0.146784 0.0647151 0)
(-0.158091 0.0667619 0)
(-0.170266 0.0687136 0)
(-0.183178 0.0703023 0)
(-0.196638 0.0712347 0)
(-0.210424 0.0712197 0)
(-0.224287 0.0699962 0)
(-0.237975 0.0673556 0)
(-0.251249 0.0631563 0)
(-0.263896 0.0573291 0)
(-0.275736 0.0498746 0)
(-0.286628 0.0408547 0)
(-0.296472 0.0303802 0)
(-0.305201 0.0185982 0)
(-0.312779 0.0056778 0)
(-0.319189 -0.00819923 0)
(-0.324435 -0.0228402 0)
(-0.328527 -0.0380679 0)
(-0.331466 -0.0537001 0)
(-0.333247 -0.0695605 0)
(-0.333848 -0.0854741 0)
(-0.333227 -0.101263 0)
(-0.331316 -0.11674 0)
(-0.328018 -0.131702 0)
(-0.323213 -0.145919 0)
(-0.316758 -0.159135 0)
(-0.3085 -0.171057 0)
(-0.298286 -0.181359 0)
(-0.285985 -0.189688 0)
(-0.271513 -0.195678 0)
(-0.254854 -0.198971 0)
(-0.236097 -0.199251 0)
(-0.215452 -0.196283 0)
(-0.193271 -0.189957 0)
(-0.170045 -0.180327 0)
(-0.146388 -0.167641 0)
(-0.122996 -0.152348 0)
(-0.100585 -0.135076 0)
(-0.0798178 -0.116583 0)
(-0.0612389 -0.097682 0)
(-0.0452183 -0.0791577 0)
(-0.0319299 -0.061699 0)
(-0.0213586 -0.0458524 0)
(-0.0133332 -0.0320101 0)
(-0.00757209 -0.0204278 0)
(-0.00372832 -0.0112607 0)
(-0.00142523 -0.00460895 0)
(-0.000288299 -0.00055857 0)
(1.70936e-05 0.00077808 0)
(-0.13133 0.0704555 0)
(-0.14149 0.0730894 0)
(-0.152647 0.0759847 0)
(-0.16475 0.078937 0)
(-0.177684 0.0816699 0)
(-0.191275 0.0838606 0)
(-0.205304 0.0851725 0)
(-0.219517 0.0852876 0)
(-0.233649 0.0839369 0)
(-0.247441 0.0809214 0)
(-0.260659 0.0761241 0)
(-0.273106 0.0695109 0)
(-0.284624 0.0611231 0)
(-0.295104 0.0510642 0)
(-0.30448 0.0394846 0)
(-0.312723 0.0265653 0)
(-0.319835 0.0125038 0)
(-0.325832 -0.00249991 0)
(-0.330759 -0.0182593 0)
(-0.334661 -0.034578 0)
(-0.337566 -0.0512866 0)
(-0.339497 -0.0682243 0)
(-0.340457 -0.0852385 0)
(-0.340421 -0.102179 0)
(-0.339332 -0.118888 0)
(-0.337099 -0.135194 0)
(-0.333592 -0.1509 0)
(-0.328646 -0.165773 0)
(-0.322066 -0.179533 0)
(-0.313639 -0.191854 0)
(-0.303153 -0.202358 0)
(-0.290418 -0.210625 0)
(-0.2753 -0.216216 0)
(-0.257756 -0.218701 0)
(-0.237872 -0.217704 0)
(-0.215889 -0.212957 0)
(-0.192227 -0.204362 0)
(-0.167481 -0.192036 0)
(-0.142389 -0.176348 0)
(-0.117779 -0.15792 0)
(-0.0944776 -0.137579 0)
(-0.0732245 -0.116285 0)
(-0.0545838 -0.0950197 0)
(-0.038893 -0.0746854 0)
(-0.0262511 -0.0560249 0)
(-0.0165455 -0.0395868 0)
(-0.00950358 -0.0257318 0)
(-0.00475114 -0.014673 0)
(-0.00186116 -0.00653181 0)
(-0.000400837 -0.00139395 0)
(1.23243e-05 0.000633811 0)
(-0.135038 0.0804634 0)
(-0.145836 0.0841061 0)
(-0.15763 0.0879693 0)
(-0.170331 0.0917876 0)
(-0.183786 0.0952235 0)
(-0.197786 0.0979027 0)
(-0.21208 0.0994516 0)
(-0.226395 0.0995354 0)
(-0.240456 0.0978881 0)
(-0.254005 0.094332 0)
(-0.266822 0.0887854 0)
(-0.278731 0.081258 0)
(-0.289606 0.0718385 0)
(-0.29937 0.060677 0)
(-0.307993 0.0479658 0)
(-0.315486 0.0339207 0)
(-0.321886 0.0187654 0)
(-0.327261 0.0027161 0)
(-0.331671 -0.0140336 0)
(-0.335185 -0.0312889 0)
(-0.337876 -0.0488912 0)
(-0.33979 -0.0666975 0)
(-0.340953 -0.0845806 0)
(-0.341365 -0.102421 0)
(-0.340988 -0.120099 0)
(-0.339746 -0.137484 0)
(-0.337516 -0.15442 0)
(-0.334129 -0.170715 0)
(-0.329369 -0.186123 0)
(-0.322981 -0.200337 0)
(-0.314684 -0.21298 0)
(-0.304195 -0.223605 0)
(-0.291259 -0.231706 0)
(-0.27569 -0.236751 0)
(-0.257416 -0.238218 0)
(-0.236526 -0.235661 0)
(-0.213311 -0.228784 0)
(-0.188281 -0.217515 0)
(-0.16216 -0.202073 0)
(-0.135837 -0.182998 0)
(-0.110287 -0.161136 0)
(-0.0864512 -0.137566 0)
(-0.0651255 -0.113475 0)
(-0.0468633 -0.0900163 0)
(-0.031932 -0.068186 0)
(-0.0203224 -0.0487469 0)
(-0.0118016 -0.0322147 0)
(-0.00598368 -0.0188949 0)
(-0.00239528 -0.00895005 0)
(-0.000543197 -0.00247401 0)
(4.56166e-06 0.000430168 0)
(-0.137969 0.091032 0)
(-0.149248 0.0956788 0)
(-0.161485 0.100471 0)
(-0.174556 0.105079 0)
(-0.188272 0.109106 0)
(-0.202394 0.112132 0)
(-0.216647 0.113754 0)
(-0.230745 0.113632 0)
(-0.244413 0.111514 0)
(-0.257405 0.107256 0)
(-0.26952 0.100819 0)
(-0.28061 0.0922661 0)
(-0.290583 0.0817371 0)
(-0.299398 0.069432 0)
(-0.307064 0.0555857 0)
(-0.313626 0.0404476 0)
(-0.319157 0.024264 0)
(-0.32375 0.00726528 0)
(-0.327497 -0.0103364 0)
(-0.330493 -0.0283686 0)
(-0.332829 -0.0466795 0)
(-0.334574 -0.0651447 0)
(-0.33578 -0.0836618 0)
(-0.336469 -0.102144 0)
(-0.336631 -0.12051 0)
(-0.336214 -0.138674 0)
(-0.335119 -0.156532 0)
(-0.333189 -0.173942 0)
(-0.330212 -0.190712 0)
(-0.325917 -0.206579 0)
(-0.319982 -0.221193 0)
(-0.31205 -0.234108 0)
(-0.301761 -0.244788 0)
(-0.288789 -0.252617 0)
(-0.272892 -0.256942 0)
(-0.253976 -0.257136 0)
(-0.232148 -0.252676 0)
(-0.207769 -0.243246 0)
(-0.181468 -0.228837 0)
(-0.154132 -0.209821 0)
(-0.126828 -0.186977 0)
(-0.100684 -0.161444 0)
(-0.076746 -0.134595 0)
(-0.0558308 -0.107861 0)
(-0.0384353 -0.0825479 0)
(-0.0247115 -0.0597021 0)
(-0.0145092 -0.0400595 0)
(-0.00745676 -0.0240672 0)
(-0.00304506 -0.0119595 0)
(-0.000722045 -0.00385254 0)
(-7.32764e-06 0.000150224 0)
(-0.139953 0.102005 0)
(-0.151531 0.107618 0)
(-0.163996 0.113266 0)
(-0.177194 0.118558 0)
(-0.190904 0.123039 0)
(-0.204864 0.126251 0)
(-0.218785 0.127774 0)
(-0.232379 0.127271 0)
(-0.245377 0.124518 0)
(-0.257553 0.119412 0)
(-0.268733 0.111968 0)
(-0.2788 0.102304 0)
(-0.2877 0.0906162 0)
(-0.295428 0.0771552 0)
(-0.302027 0.062197 0)
(-0.307574 0.0460221 0)
(-0.312169 0.0288971 0)
(-0.315924 0.0110632 0)
(-0.318951 -0.00726904 0)
(-0.321362 -0.0259301 0)
(-0.323258 -0.0447812 0)
(-0.324724 -0.0637158 0)
(-0.325831 -0.0826543 0)
(-0.326623 -0.101539 0)
(-0.327119 -0.120325 0)
(-0.327297 -0.138972 0)
(-0.327093 -0.157426 0)
(-0.326385 -0.175607 0)
(-0.324987 -0.193389 0)
(-0.322639 -0.210572 0)
(-0.31901 -0.226863 0)
(-0.313707 -0.241854 0)
(-0.306291 -0.25501 0)
(-0.296316 -0.265676 0)
(-0.28338 -0.273098 0)
(-0.267191 -0.276481 0)
(-0.24764 -0.275072 0)
(-0.224876 -0.268273 0)
(-0.199359 -0.255777 0)
(-0.171881 -0.237691 0)
(-0.143521 -0.214617 0)
(-0.115547 -0.18766 0)
(-0.0892391 -0.158323 0)
(-0.0657117 -0.12831 0)
(-0.0457505 -0.0992837 0)
(-0.0297358 -0.0726528 0)
(-0.0176575 -0.0494536 0)
(-0.00919601 -0.0303416 0)
(-0.00382611 -0.0156669 0)
(-0.000943919 -0.00559108 0)
(-2.47289e-05 -0.00022519 0)
(-0.140843 0.113205 0)
(-0.15252 0.119715 0)
(-0.164991 0.126121 0)
(-0.178071 0.131968 0)
(-0.191519 0.136752 0)
(-0.205057 0.139985 0)
(-0.218391 0.141239 0)
(-0.231239 0.140195 0)
(-0.243351 0.136664 0)
(-0.254525 0.130593 0)
(-0.264619 0.122055 0)
(-0.273553 0.11123 0)
(-0.281305 0.0983698 0)
(-0.287909 0.0837729 0)
(-0.293435 0.067753 0)
(-0.297985 0.0506166 0)
(-0.301675 0.0326452 0)
(-0.304629 0.0140854 0)
(-0.306967 -0.00485689 0)
(-0.308804 -0.0240177 0)
(-0.310242 -0.0432702 0)
(-0.311375 -0.0625226 0)
(-0.312282 -0.0817125 0)
(-0.313026 -0.100805 0)
(-0.31365 -0.119786 0)
(-0.314168 -0.138651 0)
(-0.314559 -0.157397 0)
(-0.314746 -0.176006 0)
(-0.31459 -0.194422 0)
(-0.313873 -0.212526 0)
(-0.31229 -0.230104 0)
(-0.309444 -0.246821 0)
(-0.304861 -0.262187 0)
(-0.298013 -0.275553 0)
(-0.288363 -0.286111 0)
(-0.275433 -0.292939 0)
(-0.258888 -0.295069 0)
(-0.238625 -0.291615 0)
(-0.214865 -0.281922 0)
(-0.188212 -0.265739 0)
(-0.159661 -0.243373 0)
(-0.130527 -0.215763 0)
(-0.102282 -0.184441 0)
(-0.0763358 -0.15134 0)
(-0.0538103 -0.118502 0)
(-0.0353852 -0.0877708 0)
(-0.0212597 -0.0605783 0)
(-0.0112184 -0.0378745 0)
(-0.00475 -0.0201874 0)
(-0.00121265 -0.0077585 0)
(-4.76633e-05 -0.000718965 0)
(-0.14052 0.12444 0)
(-0.152094 0.131758 0)
(-0.164351 0.138803 0)
(-0.177084 0.145065 0)
(-0.190037 0.149999 0)
(-0.202928 0.153094 0)
(-0.215468 0.153928 0)
(-0.227391 0.152207 0)
(-0.238471 0.147787 0)
(-0.248537 0.140671 0)
(-0.257482 0.130995 0)
(-0.265261 0.119 0)
(-0.271889 0.104991 0)
(-0.277425 0.0893113 0)
(-0.281964 0.072306 0)
(-0.285623 0.0543001 0)
(-0.288526 0.0355832 0)
(-0.290795 0.0164014 0)
(-0.292548 -0.00304613 0)
(-0.293892 -0.0226042 0)
(-0.294921 -0.042157 0)
(-0.295724 -0.0616228 0)
(-0.296382 -0.0809487 0)
(-0.296969 -0.100115 0)
(-0.297548 -0.119125 0)
(-0.298167 -0.138004 0)
(-0.298847 -0.156789 0)
(-0.299566 -0.175518 0)
(-0.300247 -0.194205 0)
(-0.300734 -0.212819 0)
(-0.300777 -0.231244 0)
(-0.300018 -0.249242 0)
(-0.297988 -0.266413 0)
(-0.294123 -0.282162 0)
(-0.287797 -0.295686 0)
(-0.278381 -0.305989 0)
(-0.265323 -0.311939 0)
(-0.248261 -0.312379 0)
(-0.227129 -0.306289 0)
(-0.202267 -0.292997 0)
(-0.174477 -0.272393 0)
(-0.145012 -0.245107 0)
(-0.115444 -0.212551 0)
(-0.0874416 -0.176787 0)
(-0.0624826 -0.140218 0)
(-0.041609 -0.105177 0)
(-0.0253064 -0.0735945 0)
(-0.0135296 -0.0468193 0)
(-0.00582388 -0.0256402 0)
(-0.00153221 -0.0104287 0)
(-7.71701e-05 -0.00135698 0)
(-0.138905 0.135521 0)
(-0.15018 0.143537 0)
(-0.162017 0.151095 0)
(-0.174196 0.157631 0)
(-0.186456 0.16257 0)
(-0.198521 0.165388 0)
(-0.210116 0.165678 0)
(-0.220999 0.163179 0)
(-0.230973 0.157799 0)
(-0.239903 0.149603 0)
(-0.247716 0.138789 0)
(-0.254402 0.125656 0)
(-0.260004 0.110561 0)
(-0.264606 0.0938826 0)
(-0.268316 0.0759905 0)
(-0.271256 0.05722 0)
(-0.273546 0.037861 0)
(-0.275302 0.018153 0)
(-0.276625 -0.00171388 0)
(-0.277606 -0.0215967 0)
(-0.278323 -0.0413885 0)
(-0.278849 -0.0610123 0)
(-0.279262 -0.0804161 0)
(-0.279636 -0.0995856 0)
(-0.280051 -0.118532 0)
(-0.280577 -0.137295 0)
(-0.281277 -0.155938 0)
(-0.282185 -0.174543 0)