/*--------------------------------*- C++ -*----------------------------------*\
  =========                 |
  \\      /  F ield         | OpenFOAM: The Open Source CFD Toolbox
   \\    /   O peration     | Website:  https://openfoam.org
    \\  /    A nd           | Version:  9
     \\/     M anipulation  |
\*---------------------------------------------------------------------------*/
FoamFile
{
    format      ascii;
    class       volScalarField;
    location    "2.25";
    object      p;
}
// * * * * * * * * * * * * * * * * * * * * * * * * * * * * * * * * * * * * * //

dimensions      [0 2 -2 0 0 0 0];

internalField   nonuniform List<scalar> 
1240
(
-0.0698225
-0.0697178
-0.0695096
-0.0691983
-0.0687846
-0.0725713
-0.0724739
-0.072274
-0.0719725
-0.0715698
-0.0710662
-0.0503838
-0.0479553
-0.0453755
-0.0426517
-0.0397989
-0.0368417
-0.0338162
-0.0307704
-0.0277642
-0.0248669
-0.0221523
-0.0196927
-0.0175504
-0.0157701
-0.0143723
-0.0133509
-0.0126744
-0.0122919
-0.0121417
-0.0121596
-0.0122869
-0.0124742
-0.0126839
-0.0128883
-0.0130682
-0.0132151
-0.0133323
-0.0752016
-0.0751103
-0.0749174
-0.0746237
-0.0742297
-0.0737361
-0.0731431
-0.0724507
-0.0716588
-0.0707668
-0.0697737
-0.0686777
-0.0674766
-0.0661673
-0.0647459
-0.0632074
-0.0615461
-0.0597554
-0.0578279
-0.0557563
-0.0535334
-0.0511535
-0.0486138
-0.0459158
-0.0430677
-0.0400866
-0.0370008
-0.0338518
-0.030695
-0.0275987
-0.0246406
-0.0219022
-0.0194604
-0.0173778
-0.0156944
-0.0144208
-0.0135378
-0.0129998
-0.0127437
-0.0126988
-0.0127967
-0.0129783
-0.0131968
-0.0134177
-0.0136167
-0.013783
-0.013921
-0.0777223
-0.0776361
-0.0774489
-0.0771615
-0.0767745
-0.0762885
-0.0757042
-0.0750218
-0.0742413
-0.0733627
-0.0723851
-0.0713077
-0.0701284
-0.0688449
-0.0674537
-0.0659504
-0.0643296
-0.0625847
-0.0607082
-0.0586918
-0.0565269
-0.0542053
-0.0517204
-0.0490689
-0.0462526
-0.043281
-0.0401742
-0.0369654
-0.0337029
-0.0304506
-0.0272862
-0.0242967
-0.0215704
-0.019187
-0.0172064
-0.0156595
-0.0145436
-0.0138229
-0.0134368
-0.0133102
-0.0133659
-0.0135339
-0.0137575
-0.0139938
-0.0142123
-0.0143994
-0.0145603
-0.0801406
-0.080059
-0.0798766
-0.0795942
-0.0792126
-0.0787325
-0.0781546
-0.0774794
-0.0767074
-0.0758386
-0.0748729
-0.0738096
-0.0726476
-0.0713849
-0.0700188
-0.0685456
-0.0669604
-0.0652572
-0.0634286
-0.0614661
-0.0593604
-0.0571015
-0.0546804
-0.0520895
-0.0493253
-0.0463903
-0.0432964
-0.0400674
-0.036743
-0.0333796
-0.0300513
-0.0268461
-0.0238603
-0.0211877
-0.0189078
-0.0170734
-0.0157019
-0.0147726
-0.0142317
-0.0140027
-0.014001
-0.0141461
-0.0143698
-0.0146197
-0.0148577
-0.0150668
-0.0152527
-0.0824625
-0.082385
-0.0822067
-0.0819285
-0.081551
-0.0810753
-0.080502
-0.0798319
-0.0790657
-0.0782038
-0.0772465
-0.0761936
-0.0750444
-0.0737978
-0.0724517
-0.0710032
-0.0694482
-0.0677814
-0.0659959
-0.0640836
-0.0620349
-0.0598393
-0.0574858
-0.0549639
-0.0522657
-0.0493878
-0.0463339
-0.0431192
-0.039773
-0.0363428
-0.0328951
-0.0295155
-0.0263033
-0.0233629
-0.0207913
-0.0186633
-0.0170195
-0.0158583
-0.0151379
-0.0147847
-0.014709
-0.0148199
-0.0150376
-0.0152983
-0.0155556
-0.0157876
-0.0160005
-0.0846643
-0.0846923
-0.0846186
-0.0844439
-0.0841691
-0.0837949
-0.0833223
-0.0827522
-0.0820855
-0.081323
-0.0804656
-0.0795138
-0.0784679
-0.0773278
-0.076093
-0.0747622
-0.0733332
-0.0718028
-0.0701665
-0.0684185
-0.0665512
-0.0645554
-0.0624204
-0.0601343
-0.057685
-0.055061
-0.052254
-0.049261
-0.0460885
-0.0427558
-0.0392995
-0.0357769
-0.0322668
-0.0288674
-0.0256892
-0.022843
-0.0204245
-0.0184985
-0.0170867
-0.0161638
-0.0156643
-0.0154964
-0.0155605
-0.0157645
-0.0160327
-0.0163082
-0.0165638
-0.0168058
-0.0868007
-0.0868326
-0.0867626
-0.0865912
-0.0863193
-0.0859478
-0.0854775
-0.0849094
-0.0842447
-0.0834844
-0.0826295
-0.0816809
-0.0806393
-0.0795051
-0.0782784
-0.0769585
-0.0755442
-0.0740331
-0.0724218
-0.0707053
-0.068877
-0.0669285
-0.0648495
-0.062628
-0.0602508
-0.0577044
-0.0549766
-0.0520589
-0.04895
-0.0456597
-0.0422136
-0.0386577
-0.0350614
-0.0315176
-0.0281379
-0.0250429
-0.0223462
-0.0201365
-0.0184609
-0.0173158
-0.0166484
-0.0163694
-0.0163726
-0.0165542
-0.0168254
-0.0171177
-0.0173971
-0.0176699
-0.0881227
-0.0884682
-0.0887103
-0.088849
-0.0888849
-0.0888183
-0.0886501
-0.0883808
-0.0880114
-0.0875428
-0.0869761
-0.0863124
-0.0855531
-0.0846992
-0.0837521
-0.0827126
-0.0815818
-0.0803601
-0.0790476
-0.0776438
-0.0761473
-0.0745555
-0.0728647
-0.0710692
-0.0691618
-0.067133
-0.0649713
-0.0626631
-0.0601938
-0.0575487
-0.0547151
-0.051685
-0.0484597
-0.0450541
-0.0415022
-0.037862
-0.0342175
-0.0306771
-0.0273661
-0.0244119
-0.0219253
-0.0199799
-0.0185971
-0.0177422
-0.0173332
-0.0172605
-0.0174097
-0.0176784
-0.0179853
-0.0182887
-0.0185939
-0.0900692
-0.0904197
-0.0906664
-0.0908095
-0.0908493
-0.0907862
-0.0906209
-0.090354
-0.0899863
-0.089519
-0.0889531
-0.0882899
-0.0875307
-0.0866769
-0.0857298
-0.0846909
-0.0835614
-0.0823424
-0.0810344
-0.0796376
-0.0781515
-0.0765746
-0.0749041
-0.0731357
-0.0712632
-0.0692782
-0.0671701
-0.064926
-0.0625307
-0.0599681
-0.0572224
-0.0542808
-0.0511368
-0.0477957
-0.0442797
-0.040634
-0.0369315
-0.0332732
-0.029784
-0.0266006
-0.0238522
-0.0216383
-0.020008
-0.0189489
-0.0183917
-0.0182276
-0.0183334
-0.0185933
-0.0189121
-0.019239
-0.019578
-0.091927
-0.0922826
-0.092534
-0.0926815
-0.0927252
-0.0926655
-0.0925029
-0.0922382
-0.0918722
-0.0914059
-0.0908405
-0.0901773
-0.0894177
-0.0885632
-0.0876154
-0.0865759
-0.0854464
-0.0842281
-0.0829223
-0.0815298
-0.0800508
-0.0784848
-0.0768299
-0.075083
-0.0732394
-0.0712919
-0.0692311
-0.0670449
-0.0647186
-0.0622355
-0.059578
-0.0567295
-0.0536776
-0.0504189
-0.0469647
-0.0433472
-0.0396263
-0.0358925
-0.0322659
-0.028887
-0.0258995
-0.0234262
-0.0215446
-0.0202689
-0.0195472
-0.0192763
-0.0193271
-0.019571
-0.0198982
-0.0202478
-0.0206215
-0.093695
-0.0940556
-0.0943118
-0.0944636
-0.0945111
-0.0944547
-0.0942949
-0.0940322
-0.0936677
-0.0932023
-0.0926371
-0.0919737
-0.0912133
-0.0903578
-0.0894087
-0.088368
-0.0872373
-0.0860186
-0.0847134
-0.0833231
-0.0818485
-0.0802899
-0.0786466
-0.0769167
-0.0750965
-0.0731805
-0.0711605
-0.0690257
-0.0667623
-0.0643539
-0.0617819
-0.0590273
-0.0560734
-0.0529095
-0.0495369
-0.0459756
-0.0422716
-0.0385027
-0.0347802
-0.0312435
-0.0280456
-0.0253293
-0.0231997
-0.0216996
-0.0207998
-0.0204074
-0.0203913
-0.0206114
-0.0209428
-0.0213137
-0.021723
-0.0953714
-0.0957372
-0.0959981
-0.0961541
-0.0962054
-0.0961521
-0.0959948
-0.0957341
-0.095371
-0.0949063
-0.0943413
-0.0936775
-0.0929163
-0.0920595
-0.0911089
-0.0900664
-0.0889341
-0.0877141
-0.0864083
-0.0850186
-0.0835464
-0.0819927
-0.0803578
-0.0786408
-0.0768394
-0.0749492
-0.0729639
-0.0708739
-0.0686669
-0.0663271
-0.063836
-0.0611735
-0.0583193
-0.0552576
-0.0519809
-0.0484979
-0.0448411
-0.0410739
-0.037296
-0.0336411
-0.0302662
-0.0273296
-0.0249617
-0.0232352
-0.0221471
-0.0216202
-0.0215253
-0.0217132
-0.0220443
-0.0224347
-0.0228799
-0.0969545
-0.0973252
-0.0975907
-0.0977508
-0.0978056
-0.0977554
-0.0976005
-0.0973417
-0.0969798
-0.0965158
-0.095951
-0.0952868
-0.0945247
-0.0936665
-0.0927142
-0.0916699
-0.0905356
-0.0893138
-0.0880067
-0.0866165
-0.0851452
-0.0835945
-0.0819654
-0.0802581
-0.0784713
-0.0766023
-0.0746461
-0.0725947
-0.0704374
-0.0681597
-0.0657438
-0.063169
-0.0604135
-0.057457
-0.0542855
-0.0508975
-0.0473125
-0.0435795
-0.0397841
-0.0360507
-0.0325351
-0.0294061
-0.0268159
-0.0248667
-0.0235842
-0.0229118
-0.022727
-0.0228742
-0.0231998
-0.0236074
-0.0240884
-0.0984421
-0.0988176
-0.0990874
-0.0992514
-0.0993096
-0.0992622
-0.0991096
-0.0988526
-0.0984919
-0.0980285
-0.0974638
-0.0967991
-0.0960361
-0.0951766
-0.0942227
-0.0931764
-0.0920401
-0.0908162
-0.0895074
-0.0881161
-0.0866447
-0.0850955
-0.0834703
-0.08177
-0.0799947
-0.0781427
-0.0762106
-0.0741922
-0.0720783
-0.069856
-0.0675087
-0.0650162
-0.0623559
-0.0595047
-0.0564433
-0.0531617
-0.0496678
-0.0459962
-0.0422176
-0.0384438
-0.0348252
-0.0315355
-0.0287444
-0.0265816
-0.0251034
-0.0242773
-0.0239925
-0.0240906
-0.0244053
-0.0248275
-0.0253437
-0.0998319
-0.100212
-0.100486
-0.100654
-0.100715
-0.10067
-0.10052
-0.100264
-0.0999047
-0.0994419
-0.0988772
-0.0982121
-0.0974482
-0.0965875
-0.0956319
-0.0945837
-0.0934454
-0.0922194
-0.0909087
-0.0895158
-0.0880438
-0.0864951
-0.0848723
-0.0831772
-0.0814106
-0.0795723
-0.0776601
-0.0756695
-0.0735931
-0.0714198
-0.0691345
-0.0667181
-0.0641479
-0.0613994
-0.0584495
-0.0552814
-0.0518927
-0.0483047
-0.0445727
-0.040794
-0.0371095
-0.0336931
-0.030727
-0.0283652
-0.0266943
-0.0257096
-0.0253163
-0.0253572
-0.0256555
-0.0260892
-0.0266397
-0.101122
-0.101506
-0.101784
-0.101955
-0.102019
-0.101977
-0.101829
-0.101575
-0.101216
-0.100753
-0.100189
-0.0995233
-0.0987586
-0.0978966
-0.0969395
-0.0958895
-0.0947491
-0.0935212
-0.0922084
-0.0908139
-0.0893408
-0.087792
-0.0861706
-0.0844791
-0.0827192
-0.0808917
-0.0789959
-0.0770289
-0.0749847
-0.0728544
-0.0706245
-0.0682775
-0.0657915
-0.0631414
-0.0603016
-0.0572503
-0.0539764
-0.050489
-0.0468286
-0.0430768
-0.0393622
-0.0358539
-0.0327417
-0.0301998
-0.0283441
-0.0271993
-0.0266911
-0.0266676
-0.0269438
-0.0273858
-0.0279692
-0.10231
-0.102698
-0.10298
-0.103154
-0.103221
-0.103181
-0.103034
-0.102781
-0.102423
-0.101961
-0.101396
-0.10073
-0.0999647
-0.0991015
-0.0981429
-0.0970912
-0.0959489
-0.0947189
-0.0934042
-0.092008
-0.0905336
-0.0889844
-0.0873637
-0.0856746
-0.0839199
-0.0821011
-0.0802187
-0.0782714
-0.0762549
-0.074162
-0.0719814
-0.0696972
-0.0672888
-0.0647316
-0.0619986
-0.0590643
-0.0559107
-0.0525364
-0.0489677
-0.0452706
-0.0415587
-0.0379931
-0.0347656
-0.0320662
-0.0300377
-0.0287351
-0.0281077
-0.0280135
-0.0282622
-0.028709
-0.0293235
-0.103394
-0.103786
-0.104071
-0.104248
-0.104317
-0.104279
-0.104133
-0.103882
-0.103524
-0.103062
-0.102497
-0.101831
-0.101064
-0.1002
-0.0992398
-0.0981864
-0.0970423
-0.0958104
-0.0944938
-0.0930958
-0.09162
-0.09007
-0.0884495
-0.0867622
-0.0850114
-0.0831995
-0.0813282
-0.0793974
-0.0774046
-0.0753443
-0.0732072
-0.0709795
-0.0686421
-0.0661715
-0.0635404
-0.060721
-0.0576899
-0.0544369
-0.0509756
-0.0473562
-0.0436768
-0.0400867
-0.0367755
-0.0339439
-0.0317582
-0.0303034
-0.0295554
-0.0293854
-0.0296017
-0.0300497
-0.0306932
-0.104372
-0.104767
-0.105055
-0.105235
-0.105306
-0.10527
-0.105126
-0.104875
-0.104518
-0.104056
-0.10349
-0.102823
-0.102056
-0.10119
-0.100228
-0.0991729
-0.098027
-0.0967931
-0.0954746
-0.0940748
-0.0925975
-0.0910466
-0.089426
-0.0877399
-0.0859919
-0.0841856
-0.0823235
-0.0804065
-0.0784339
-0.0764019
-0.0743032
-0.0721259
-0.069853
-0.0674625
-0.0649276
-0.0622191
-0.0593102
-0.0561831
-0.0528403
-0.0493174
-0.0456963
-0.0421122
-0.0387485
-0.0358116
-0.0334873
-0.0318894
-0.0310216
-0.0307725
-0.0309519
-0.0313976
-0.0320675
-0.105243
-0.105641
-0.105932
-0.106114
-0.106187
-0.106152
-0.106009
-0.105758
-0.105402
-0.104939
-0.104373
-0.103705
-0.102936
-0.102069
-0.101106
-0.100049
-0.0989008
-0.0976649
-0.0963444
-0.0949428
-0.0934639
-0.0919118
-0.0902908
-0.0886053
-0.0868596
-0.0850577
-0.083203
-0.0812978
-0.0793424
-0.077335
-0.0752699
-0.0731375
-0.070923
-0.068606
-0.0661608
-0.0635583
-0.0607688
-0.0577692
-0.0545524
-0.0511405
-0.0475994
-0.0440489
-0.0406625
-0.0376479
-0.035206
-0.0334768
-0.0324927
-0.0321626
-0.0323013
-0.0327413
-0.0334349
-0.106005
-0.106406
-0.106699
-0.106883
-0.106958
-0.106924
-0.106782
-0.106531
-0.106175
-0.105712
-0.105145
-0.104476
-0.103705
-0.102836
-0.101871
-0.100812
-0.0996619
-0.0984238
-0.0971011
-0.0956974
-0.0942168
-0.0926633
-0.0910416
-0.0893562
-0.0876121
-0.0858136
-0.0839651
-0.0820697
-0.0801291
-0.0781428
-0.0761073
-0.0740148
-0.0718527
-0.0696027
-0.0672409
-0.0647382
-0.0620641
-0.0591911
-0.0561044
-0.0528142
-0.0493708
-0.0458779
-0.0424967
-0.0394318
-0.0368947
-0.0350484
-0.0339539
-0.0335425
-0.0336378
-0.0340688
-0.0347833
-0.106656
-0.107061
-0.107356
-0.107541
-0.107618
-0.107585
-0.107443
-0.107193
-0.106835
-0.106372
-0.105804
-0.105133
-0.104361
-0.10349
-0.102523
-0.101461
-0.100309
-0.0990679
-0.0977428
-0.0963368
-0.0948541
-0.0932989
-0.091676
-0.0899904
-0.0882471
-0.0864513
-0.0846077
-0.0827204
-0.0807924
-0.0788245
-0.0768148
-0.0747576
-0.0726425
-0.0704534
-0.0681682
-0.0657591
-0.0631951
-0.0604459
-0.0574906
-0.054329
-0.0509972
-0.0475825
-0.0442317
-0.0411429
-0.0385336
-0.0365864
-0.0353894
-0.0348983
-0.0349481
-0.0353674
-0.0360997
-0.107197
-0.107604
-0.107901
-0.108088
-0.108166
-0.108133
-0.107992
-0.107741
-0.107383
-0.106919
-0.10635
-0.105677
-0.104903
-0.104029
-0.103059
-0.101995
-0.100839
-0.0995959
-0.0982679
-0.0968592
-0.0953739
-0.0938166
-0.0921921
-0.0905056
-0.0887625
-0.0869684
-0.0851287
-0.0832481
-0.0813306
-0.0793785
-0.0773913
-0.0753653
-0.0732922
-0.0711581
-0.0689431
-0.0666209
-0.0641609
-0.0615314
-0.0587065
-0.0556774
-0.0524674
-0.0491477
-0.0458498
-0.042762
-0.0401036
-0.0380728
-0.0367831
-0.0362153
-0.0362188
-0.0366238
-0.0373709
-0.107627
-0.108035
-0.108334
-0.108523
-0.108601
-0.10857
-0.108428
-0.108177
-0.107818
-0.107352
-0.106781
-0.106106
-0.105329
-0.104453
-0.10348
-0.102412
-0.101253
-0.100007
-0.0986751
-0.0972631
-0.0957747
-0.0942147
-0.0925879
-0.0908999
-0.0891562
-0.0873629
-0.0855258
-0.0836505
-0.0817418
-0.079803
-0.0778354
-0.0758368
-0.0738011
-0.0717165
-0.0695654
-0.0673235
-0.0649611
-0.0624459
-0.0597486
-0.0568534
-0.053772
-0.0505607
-0.0473349
-0.0442709
-0.0415858
-0.0394895
-0.0381185
-0.0374786
-0.0374358
-0.0378246
-0.0385836
-0.107944
-0.108355
-0.108655
-0.108845
-0.108924
-0.108893
-0.108751
-0.108499
-0.108139
-0.107671
-0.107098
-0.10642
-0.10564
-0.104761
-0.103784
-0.102713
-0.10155
-0.100299
-0.0989633
-0.0975473
-0.0960551
-0.0944916
-0.0928618
-0.0911713
-0.0894262
-0.0876327
-0.0857972
-0.0839257
-0.082024
-0.0800965
-0.0781456
-0.076171
-0.0741683
-0.0721282
-0.070035
-0.0678669
-0.0655954
-0.0631884
-0.0606145
-0.0578523
-0.0549037
-0.051811
-0.0486734
-0.0456536
-0.0429633
-0.0408198
-0.0393796
-0.0386733
-0.0385851
-0.0389562
-0.0397242
)
;

boundaryField
{
    movingWall
    {
        type            zeroGradient;
    }
    fixedWalls
    {
        type            zeroGradient;
    }
    frontAndBack
    {
        type            empty;
    }
    procBoundary6to1
    {
        type            processor;
        value           nonuniform List<scalar> 
26
(
-0.0669458
-0.0668323
-0.0666137
-0.0662906
-0.0658632
-0.0698228
-0.0725654
-0.0751906
-0.0777065
-0.0801206
-0.0824385
-0.0824385
-0.084534
-0.0860879
-0.0864287
-0.0866662
-0.0866662
-0.0876735
-0.0896149
-0.0914674
-0.0932299
-0.0949009
-0.0964787
-0.0979611
-0.099346
-0.100631
)
;
    }
    procBoundary6to3
    {
        type            processor;
        value           nonuniform List<scalar> 9(-0.101815 -0.102895 -0.103869 -0.104736 -0.105495 -0.106144 -0.106682 -0.107109 -0.107423);
    }
    procBoundary6to4
    {
        type            processor;
        value           nonuniform List<scalar> 
30
(
-0.0946461
-0.0930123
-0.0913185
-0.0895709
-0.0877761
-0.0859408
-0.0840718
-0.0821754
-0.080257
-0.0783203
-0.0763664
-0.0743929
-0.0723924
-0.0703516
-0.0682508
-0.0660635
-0.0637583
-0.0613026
-0.0586707
-0.0558564
-0.0528894
-0.0498532
-0.0468956
-0.04422
-0.0420472
-0.0405508
-0.0397848
-0.039653
-0.0400052
-0.0407797
)
;
    }
    procBoundary6to5
    {
        type            processor;
        value           nonuniform List<scalar> 
21
(
-0.108148
-0.108561
-0.108863
-0.109055
-0.109134
-0.109103
-0.10896
-0.108708
-0.108346
-0.107876
-0.1073
-0.106619
-0.105836
-0.104953
-0.103972
-0.102896
-0.101728
-0.100472
-0.0991318
-0.0977109
-0.0962141
)
;
    }
    procBoundary6to7
    {
        type            processor;
        value           nonuniform List<scalar> 
45
(
-0.0682684
-0.0682684
-0.0470892
-0.0446276
-0.042029
-0.0393068
-0.0364828
-0.0335886
-0.0306662
-0.0277683
-0.024956
-0.0222959
-0.0198544
-0.0176912
-0.0158529
-0.0143662
-0.0132348
-0.0124394
-0.0119408
-0.011687
-0.0116203
-0.0116845
-0.0118301
-0.012017
-0.012215
-0.0124024
-0.012564
-0.0126929
-0.0127914
-0.0704618
-0.0704618
-0.0697565
-0.0689498
-0.0680407
-0.0670277
-0.0659088
-0.0646812
-0.0633414
-0.0618851
-0.0603072
-0.058602
-0.0567631
-0.0547842
-0.0526593
-0.0526593
)
;
    }
}


// ************************************************************************* //
