/*--------------------------------*- C++ -*----------------------------------*\
  =========                 |
  \\      /  F ield         | OpenFOAM: The Open Source CFD Toolbox
   \\    /   O peration     | Website:  https://openfoam.org
    \\  /    A nd           | Version:  9
     \\/     M anipulation  |
\*---------------------------------------------------------------------------*/
FoamFile
{
    format      ascii;
    class       surfaceScalarField;
    location    "2.25";
    object      phi;
}
// * * * * * * * * * * * * * * * * * * * * * * * * * * * * * * * * * * * * * //

dimensions      [0 3 -1 0 0 0 0];

internalField   nonuniform List<scalar> 
2402
(
-2.6416e-06
-2.25184e-07
-2.64699e-06
-3.32428e-07
-2.65286e-06
-4.39932e-07
-2.65931e-06
-5.47762e-07
-6.55995e-07
-2.53549e-06
-2.20221e-07
-2.54072e-06
-3.27204e-07
-2.54626e-06
-4.3439e-07
-2.5522e-06
-5.41823e-07
-2.55863e-06
-6.4956e-07
-7.57673e-07
-2.83024e-06
-2.55729e-06
-2.84793e-06
-2.6961e-06
-2.85824e-06
-2.83379e-06
-2.85797e-06
-2.96739e-06
-2.84349e-06
-3.09288e-06
-2.81094e-06
-3.20516e-06
-2.75644e-06
-3.29806e-06
-2.67648e-06
-3.36458e-06
-2.56835e-06
-3.3972e-06
-2.4306e-06
-3.3885e-06
-2.26353e-06
-3.33192e-06
-2.06953e-06
-3.22269e-06
-1.85326e-06
-3.05882e-06
-1.6215e-06
-2.84192e-06
-1.38268e-06
-2.57765e-06
-1.14601e-06
-2.27572e-06
-9.2052e-07
-1.94906e-06
-7.14005e-07
-1.6125e-06
-5.32286e-07
-1.28114e-06
-3.7882e-07
-9.68807e-07
-2.54738e-07
-6.86905e-07
-1.59187e-07
-4.44024e-07
-8.98185e-08
-2.4608e-07
-4.32933e-08
-9.69117e-08
-1.56843e-08
9.42242e-10
-2.7405e-09
4.5484e-08
3.4583e-08
-2.43395e-06
-2.15148e-07
-2.43913e-06
-3.22023e-07
-2.44446e-06
-4.29056e-07
-2.45001e-06
-5.36273e-07
-2.45586e-06
-6.43708e-07
-2.46213e-06
-7.51408e-07
-2.46894e-06
-8.59441e-07
-2.47646e-06
-9.67899e-07
-2.48488e-06
-1.07691e-06
-2.49441e-06
-1.18664e-06
-2.50529e-06
-1.29729e-06
-2.51775e-06
-1.40914e-06
-2.53205e-06
-1.52251e-06
-2.5484e-06
-1.63775e-06
-2.56699e-06
-1.75531e-06
-2.5879e-06
-1.87562e-06
-2.61107e-06
-1.99913e-06
-2.63628e-06
-2.12624e-06
-2.66299e-06
-2.25721e-06
-2.69036e-06
-2.39209e-06
-2.71708e-06
-2.53057e-06
-2.74135e-06
-2.67183e-06
-2.7608e-06
-2.81434e-06
-2.77246e-06
-2.95572e-06
-2.77284e-06
-3.09251e-06
-2.75796e-06
-3.22004e-06
-2.72362e-06
-3.3324e-06
-2.66569e-06
-3.42251e-06
-2.58053e-06
-3.48236e-06
-2.46549e-06
-3.50354e-06
-2.31946e-06
-3.47795e-06
-2.14337e-06
-3.39878e-06
-1.94056e-06
-3.26164e-06
-1.71682e-06
-3.06566e-06
-1.48014e-06
-2.81433e-06
-1.23999e-06
-2.51587e-06
-1.00628e-06
-2.18277e-06
-7.88162e-07
-1.83061e-06
-5.93038e-07
-1.47627e-06
-4.25861e-07
-1.13598e-06
-2.88971e-07
-8.23795e-07
-1.82336e-07
-5.5066e-07
-1.04046e-07
-3.2437e-07
-5.08889e-08
-1.50069e-07
-1.88477e-08
-3.10989e-08
-3.46158e-09
3.00979e-08
3.11215e-08
-2.33645e-06
-2.09857e-07
-2.34171e-06
-3.16766e-07
-2.34696e-06
-4.23803e-07
-2.35226e-06
-5.30973e-07
-2.35768e-06
-6.38289e-07
-2.36332e-06
-7.45776e-07
-2.36928e-06
-8.53475e-07
-2.37573e-06
-9.61452e-07
-2.38284e-06
-1.0698e-06
-2.39082e-06
-1.17866e-06
-2.3999e-06
-1.28821e-06
-2.41037e-06
-1.39868e-06
-2.42249e-06
-1.51039e-06
-2.43655e-06
-1.62369e-06
-2.45282e-06
-1.73903e-06
-2.47153e-06
-1.85691e-06
-2.49281e-06
-1.97786e-06
-2.51664e-06
-2.10241e-06
-2.54279e-06
-2.23106e-06
-2.57073e-06
-2.36415e-06
-2.59955e-06
-2.50176e-06
-2.62784e-06
-2.64354e-06
-2.65362e-06
-2.78856e-06
-2.6743e-06
-2.93504e-06
-2.68662e-06
-3.08019e-06
-2.68671e-06
-3.21995e-06
-2.67026e-06
-3.34885e-06
-2.63273e-06
-3.46003e-06
-2.56977e-06
-3.54532e-06
-2.47769e-06
-3.59562e-06
-2.35405e-06
-3.60159e-06
-2.19827e-06
-3.55455e-06
-2.01217e-06
-3.44774e-06
-1.80024e-06
-3.27759e-06
-1.56963e-06
-3.04494e-06
-1.3296e-06
-2.7559e-06
-1.0906e-06
-2.42177e-06
-8.62949e-07
-2.05826e-06
-6.55608e-07
-1.68361e-06
-4.75161e-07
-1.31643e-06
-3.25373e-07
-9.73583e-07
-2.07256e-07
-6.68777e-07
-1.19529e-07
-4.12098e-07
-5.92383e-08
-2.10359e-07
-2.23635e-08
-6.79737e-08
-4.27498e-09
1.20093e-08
2.68465e-08
-2.24231e-06
-2.04267e-07
-2.24774e-06
-3.11332e-07
-2.25304e-06
-4.18506e-07
-2.25823e-06
-5.25777e-07
-2.26338e-06
-6.33139e-07
-2.26857e-06
-7.40594e-07
-2.27388e-06
-8.48159e-07
-2.27946e-06
-9.55871e-07
-2.28547e-06
-1.0638e-06
-2.29209e-06
-1.17203e-06
-2.29957e-06
-1.28073e-06
-2.30815e-06
-1.3901e-06
-2.31814e-06
-1.50039e-06
-2.32986e-06
-1.61197e-06
-2.34364e-06
-1.72526e-06
-2.35979e-06
-1.84076e-06
-2.37859e-06
-1.95906e-06
-2.40019e-06
-2.08081e-06
-2.42462e-06
-2.20663e-06
-2.45165e-06
-2.33712e-06
-2.48072e-06
-2.47269e-06
-2.51083e-06
-2.61343e-06
-2.54044e-06
-2.75895e-06
-2.56736e-06
-2.90812e-06
-2.58872e-06
-3.05884e-06
-2.6009e-06
-3.20776e-06
-2.59967e-06
-3.35008e-06
-2.58033e-06
-3.47938e-06
-2.53803e-06
-3.58761e-06
-2.46827e-06
-3.66538e-06
-2.36743e-06
-3.70243e-06
-2.23347e-06
-3.68851e-06
-2.06661e-06
-3.6146e-06
-1.8698e-06
-3.47439e-06
-1.64898e-06
-3.26577e-06
-1.41276e-06
-2.99211e-06
-1.17171e-06
-2.66283e-06
-9.37011e-07
-2.29295e-06
-7.19064e-07
-1.90156e-06
-5.26146e-07
-1.50935e-06
-3.63628e-07
-1.1361e-06
-2.33798e-07
-7.98608e-07
-1.36208e-07
-5.09687e-07
-6.83265e-08
-2.7824e-07
-2.62302e-08
-1.1007e-07
-5.18209e-09
-9.03878e-09
2.16644e-08
-2.15073e-06
-1.98319e-07
-2.15642e-06
-3.05639e-07
-2.16187e-06
-4.13059e-07
-2.16709e-06
-5.20553e-07
-2.17214e-06
-6.28096e-07
-2.17706e-06
-7.35673e-07
-2.18194e-06
-8.43278e-07
-2.18689e-06
-9.50922e-07
-2.19204e-06
-1.05864e-06
-2.19757e-06
-1.1665e-06
-2.20369e-06
-1.27462e-06
-2.21064e-06
-1.38315e-06
-2.21871e-06
-1.49232e-06
-2.22823e-06
-1.60245e-06
-2.23956e-06
-1.71393e-06
-2.25307e-06
-1.82725e-06
-2.26912e-06
-1.94301e-06
-2.28802e-06
-2.06191e-06
-2.30999e-06
-2.18467e-06
-2.33504e-06
-2.31207e-06
-2.36295e-06
-2.44478e-06
-2.3931e-06
-2.58328e-06
-2.42438e-06
-2.72766e-06
-2.45508e-06
-2.87742e-06
-2.48274e-06
-3.03118e-06
-2.50415e-06
-3.18635e-06
-2.51531e-06
-3.33892e-06
-2.51156e-06
-3.48312e-06
-2.48783e-06
-3.61135e-06
-2.439e-06
-3.71421e-06
-2.36051e-06
-3.78093e-06
-2.24899e-06
-3.80003e-06
-2.10308e-06
-3.76052e-06
-1.92406e-06
-3.65341e-06
-1.71635e-06
-3.47348e-06
-1.48754e-06
-3.22092e-06
-1.24783e-06
-2.90254e-06
-1.00891e-06
-2.53188e-06
-7.82356e-07
-2.12811e-06
-5.78132e-07
-1.71357e-06
-4.03341e-07
-1.31089e-06
-2.61759e-07
-9.4019e-07
-1.53997e-07
-6.17449e-07
-7.81252e-08
-3.54112e-07
-3.04435e-08
-1.57752e-07
-6.18405e-09
-3.32982e-08
1.54803e-08
-2.05459e-06
-8.44576e-08
-2.06094e-06
-1.91976e-07
-2.06695e-06
-2.99625e-07
-2.07264e-06
-4.07374e-07
-2.07801e-06
-5.15183e-07
-2.08309e-06
-6.23014e-07
-2.08792e-06
-7.30836e-07
-2.09258e-06
-8.38624e-07
-2.09714e-06
-9.46365e-07
-2.10171e-06
-1.05407e-06
-2.10644e-06
-1.16177e-06
-2.1115e-06
-1.26955e-06
-2.11713e-06
-1.37752e-06
-2.12359e-06
-1.48587e-06
-2.13119e-06
-1.59485e-06
-2.14029e-06
-1.70483e-06
-2.15128e-06
-1.81625e-06
-2.1646e-06
-1.9297e-06
-2.18063e-06
-2.04587e-06
-2.19973e-06
-2.16557e-06
-2.22215e-06
-2.28965e-06
-2.24791e-06
-2.41901e-06
-2.27676e-06
-2.55443e-06
-2.30799e-06
-2.69643e-06
-2.34035e-06
-2.84507e-06
-2.37188e-06
-2.99965e-06
-2.39982e-06
-3.15841e-06
-2.42056e-06
-3.31818e-06
-2.42965e-06
-3.47402e-06
-2.42201e-06
-3.61899e-06
-2.39217e-06
-3.74405e-06
-2.33485e-06
-3.83825e-06
-2.24556e-06
-3.88931e-06
-2.12147e-06
-3.88461e-06
-1.96216e-06
-3.81272e-06
-1.77036e-06
-3.66527e-06
-1.55227e-06
-3.43901e-06
-1.3173e-06
-3.13751e-06
-1.07716e-06
-2.77202e-06
-8.44354e-07
-2.36092e-06
-6.30344e-07
-1.92758e-06
-4.44038e-07
-1.4972e-06
-2.90885e-07
-1.09334e-06
-1.72779e-07
-7.35555e-07
-8.85916e-08
-4.383e-07
-3.49937e-08
-2.1135e-07
-7.28115e-09
-6.10108e-08
8.19918e-09
-1.96546e-06
-7.73338e-08
-1.97222e-06
-1.85218e-07
-1.9786e-06
-2.93248e-07
-1.98459e-06
-4.01382e-07
-1.9902e-06
-5.09571e-07
-1.99545e-06
-6.17767e-07
-2.00036e-06
-7.25925e-07
-2.00498e-06
-8.34004e-07
-2.00937e-06
-9.41974e-07
-2.01362e-06
-1.04982e-06
-2.01784e-06
-1.15755e-06
-2.02218e-06
-1.26521e-06
-2.02683e-06
-1.37287e-06
-2.03202e-06
-1.48067e-06
-2.03805e-06
-1.58882e-06
-2.04525e-06
-1.69762e-06
-2.05402e-06
-1.80748e-06
-2.06479e-06
-1.91893e-06
-2.07803e-06
-2.03264e-06
-2.09418e-06
-2.14942e-06
-2.11363e-06
-2.2702e-06
-2.13665e-06
-2.39599e-06
-2.16327e-06
-2.52782e-06
-2.19315e-06
-2.66655e-06
-2.22549e-06
-2.81273e-06
-2.25881e-06
-2.96632e-06
-2.29088e-06
-3.12635e-06
-2.31855e-06
-3.29052e-06
-2.33774e-06
-3.45483e-06
-2.34353e-06
-3.6132e-06
-2.33037e-06
-3.75721e-06
-2.29248e-06
-3.87614e-06
-2.22451e-06
-3.95728e-06
-2.12231e-06
-3.98681e-06
-1.98386e-06
-3.95117e-06
-1.81012e-06
-3.83902e-06
-1.60562e-06
-3.64351e-06
-1.37861e-06
-3.36452e-06
-1.14037e-06
-3.01026e-06
-9.03887e-07
-2.5974e-06
-6.81932e-07
-2.14954e-06
-4.85174e-07
-1.69395e-06
-3.20868e-07
-1.25765e-06
-1.92403e-07
-8.64019e-07
-9.96657e-08
-5.31037e-07
-3.98646e-08
-2.71151e-07
-8.47223e-09
-9.24032e-08
-2.73047e-10
-1.85299e-06
2.53677e-07
-1.86127e-06
1.46129e-07
-1.86921e-06
3.83044e-08
-1.87678e-06
-6.9766e-08
-1.88395e-06
-1.78043e-07
-1.89072e-06
-2.86483e-07
-1.89707e-06
-3.95034e-07
-1.903e-06
-5.03642e-07
-1.90851e-06
-6.12251e-07
-1.91363e-06
-7.20805e-07
-1.91838e-06
-8.29252e-07
-1.92281e-06
-9.37548e-07
-1.92697e-06
-1.04566e-06
-1.93096e-06
-1.15357e-06
-1.93488e-06
-1.26128e-06
-1.9389e-06
-1.36885e-06
-1.94321e-06
-1.47636e-06
-1.94805e-06
-1.58398e-06
-1.95375e-06
-1.69193e-06
-1.96066e-06
-1.80057e-06
-1.96923e-06
-1.91037e-06
-1.97992e-06
-2.02195e-06
-1.99324e-06
-2.13609e-06
-2.0097e-06
-2.25374e-06
-2.02971e-06
-2.37599e-06
-2.05353e-06
-2.50399e-06
-2.08118e-06
-2.6389e-06
-2.11222e-06
-2.78169e-06
-2.14568e-06
-2.93287e-06
-2.17982e-06
-3.0922e-06
-2.21204e-06
-3.2583e-06
-2.23873e-06
-3.42814e-06
-2.2553e-06
-3.59663e-06
-2.25629e-06
-3.75622e-06
-2.23571e-06
-3.89672e-06
-2.18757e-06
-4.00541e-06
-2.10667e-06
-4.06771e-06
-1.9895e-06
-4.06834e-06
-1.83525e-06
-3.99327e-06
-1.64668e-06
-3.83208e-06
-1.43052e-06
-3.58068e-06
-1.19722e-06
-3.24356e-06
-9.59803e-07
-2.83481e-06
-7.32007e-07
-2.37734e-06
-5.26145e-07
-1.89982e-06
-3.51348e-07
-1.43245e-06
-2.12685e-07
-1.00268e-06
-1.11269e-07
-6.32453e-07
-4.50319e-08
-3.37388e-07
-9.75433e-09
-1.27681e-07
-1.00274e-08
-1.76298e-06
2.6272e-07
-1.7717e-06
1.54849e-07
-1.78007e-06
4.66707e-08
-1.78805e-06
-6.17806e-08
-1.79564e-06
-1.7046e-07
-1.8028e-06
-2.79318e-07
-1.80954e-06
-3.88299e-07
-1.81584e-06
-4.97341e-07
-1.8217e-06
-6.06385e-07
-1.82714e-06
-7.15368e-07
-1.83216e-06
-8.24229e-07
-1.8368e-06
-9.32914e-07
-1.84108e-06
-1.04137e-06
-1.84508e-06
-1.14957e-06
-1.84887e-06
-1.25749e-06
-1.85257e-06
-1.36515e-06
-1.85635e-06
-1.47259e-06
-1.86041e-06
-1.57992e-06
-1.86501e-06
-1.68732e-06
-1.8705e-06
-1.79508e-06
-1.87726e-06
-1.9036e-06
-1.88578e-06
-2.01343e-06
-1.89657e-06
-2.1253e-06
-1.9102e-06
-2.24012e-06
-1.92719e-06
-2.35899e-06
-1.94799e-06
-2.48319e-06
-1.97287e-06
-2.61403e-06
-2.00175e-06
-2.75281e-06
-2.03407e-06
-2.90054e-06
-2.06864e-06
-3.05764e-06
-2.10337e-06
-3.22357e-06
-2.13521e-06
-3.3963e-06
-2.16001e-06
-3.57183e-06
-2.1726e-06
-3.74364e-06
-2.16699e-06
-3.90233e-06
-2.13681e-06
-4.03559e-06
-2.07603e-06
-4.12849e-06
-1.97988e-06
-4.1645e-06
-1.84589e-06
-4.12726e-06
-1.67497e-06
-4.00299e-06
-1.47215e-06
-3.78351e-06
-1.24662e-06
-3.46908e-06
-1.01102e-06
-3.07041e-06
-7.79673e-07
-2.60868e-06
-5.66311e-07
-2.11318e-06
-3.81924e-07
-1.61683e-06
-2.33405e-07
-1.1512e-06
-1.23303e-07
-7.42556e-07
-5.0463e-08
-4.10227e-07
-1.11223e-08
-1.67021e-07
-2.11497e-08
-1.67268e-06
2.72148e-07
-1.68178e-06
1.63951e-07
-1.69053e-06
5.54183e-08
-1.6989e-06
-5.34101e-08
-1.70688e-06
-1.62486e-07
-1.71444e-06
-2.71755e-07
-1.72158e-06
-3.81157e-07
-1.72829e-06
-4.90631e-07
-1.73457e-06
-6.0011e-07
-1.7404e-06
-7.09531e-07
-1.74581e-06
-8.18826e-07
-1.75079e-06
-9.27934e-07
-1.75537e-06
-1.03679e-06
-1.75958e-06
-1.14536e-06
-1.76349e-06
-1.25359e-06
-1.76717e-06
-1.36147e-06
-1.77074e-06
-1.46901e-06
-1.77438e-06
-1.57628e-06
-1.7783e-06
-1.68341e-06
-1.78278e-06
-1.7906e-06
-1.7882e-06
-1.89819e-06
-1.79498e-06
-2.00665e-06
-1.80364e-06
-2.11664e-06
-1.81476e-06
-2.229e-06
-1.82893e-06
-2.34482e-06
-1.84673e-06
-2.46539e-06
-1.86861e-06
-2.59215e-06
-1.8948e-06
-2.72662e-06
-1.92512e-06
-2.87021e-06
-1.95884e-06
-3.02392e-06
-1.99442e-06
-3.18799e-06
-2.02937e-06
-3.36135e-06
-2.06009e-06
-3.54111e-06
-2.08182e-06
-3.72191e-06
-2.08875e-06
-3.8954e-06
-2.07439e-06
-4.04995e-06
-2.03215e-06
-4.17073e-06
-1.95619e-06
-4.24045e-06
-1.84259e-06
-4.24086e-06
-1.69044e-06
-4.15514e-06
-1.50292e-06
-3.97104e-06
-1.2877e-06
-3.68431e-06
-1.05659e-06
-3.30152e-06
-8.24073e-07
-2.8412e-06
-6.05014e-07
-2.33224e-06
-4.12163e-07
-1.80969e-06
-2.5432e-07
-1.30904e-06
-1.35651e-07
-8.61225e-07
-5.61163e-08
-4.89762e-07
-1.25689e-08
-2.10569e-07
-3.37186e-08
-1.58181e-06
2.81891e-07
-1.59124e-06
1.73375e-07
-1.60032e-06
6.45006e-08
-1.60904e-06
-4.46887e-08
-1.61738e-06
-1.54141e-07
-1.62534e-06
-2.63799e-07
-1.63289e-06
-3.73603e-07
-1.64004e-06
-4.83487e-07
-1.64676e-06
-5.93386e-07
-1.65306e-06
-7.03233e-07
-1.65893e-06
-8.12959e-07
-1.66436e-06
-9.22498e-07
-1.66937e-06
-1.03178e-06
-1.67398e-06
-1.14076e-06
-1.6782e-06
-1.24936e-06
-1.68211e-06
-1.35756e-06
-1.68577e-06
-1.46534e-06
-1.68932e-06
-1.57273e-06
-1.69293e-06
-1.6798e-06
-1.69683e-06
-1.7867e-06
-1.70134e-06
-1.89368e-06
-1.70684e-06
-2.00115e-06
-1.71382e-06
-2.10965e-06
-1.72284e-06
-2.21998e-06
-1.73453e-06
-2.33313e-06
-1.74954e-06
-2.45038e-06
-1.76845e-06
-2.57323e-06
-1.79173e-06
-2.70335e-06
-1.81951e-06
-2.84243e-06
-1.85148e-06
-2.99195e-06
-1.88662e-06
-3.15285e-06
-1.92301e-06
-3.32496e-06
-1.95761e-06
-3.5065e-06
-1.9862e-06
-3.69332e-06
-2.00331e-06
-3.87829e-06
-2.00253e-06
-4.05074e-06
-1.97693e-06
-4.19633e-06
-1.91992e-06
-4.29746e-06
-1.82628e-06
-4.33451e-06
-1.69342e-06
-4.28799e-06
-1.52263e-06
-4.14182e-06
-1.31986e-06
-3.88708e-06
-1.09572e-06
-3.52566e-06
-8.64425e-07
-3.07249e-06
-6.41613e-07
-2.55505e-06
-4.41617e-07
-2.00968e-06
-2.75162e-07
-1.4755e-06
-1.48182e-07
-9.88205e-07
-6.19419e-08
-5.76002e-07
-1.40841e-08
-2.58427e-07
-4.78027e-08
-1.49016e-06
2.91884e-07
-1.49986e-06
1.83067e-07
-1.50923e-06
7.38738e-08
-1.51827e-06
-3.56495e-08
-1.52696e-06
-1.45448e-07
-1.5353e-06
-2.55464e-07
-1.54327e-06
-3.65635e-07
-1.55086e-06
-4.75897e-07
-1.55806e-06
-5.86185e-07
-1.56486e-06
-6.96431e-07
-1.57125e-06
-8.06567e-07
-1.57722e-06
-9.16524e-07
-1.58277e-06
-1.02623e-06
-1.5879e-06
-1.13563e-06
-1.59261e-06
-1.24465e-06
-1.59694e-06
-1.35323e-06
-1.60094e-06
-1.46135e-06
-1.60469e-06
-1.56898e-06
-1.60832e-06
-1.67617e-06
-1.61201e-06
-1.783e-06
-1.61603e-06
-1.88967e-06
-1.62071e-06
-1.99647e-06
-1.62648e-06
-2.10388e-06
-1.63387e-06
-2.21258e-06
-1.64351e-06
-2.3235e-06
-1.65606e-06
-2.43783e-06
-1.67222e-06
-2.55707e-06
-1.69259e-06
-2.68297e-06
-1.71759e-06
-2.81743e-06
-1.74724e-06
-2.9623e-06
-1.781e-06
-3.11909e-06
-1.81749e-06
-3.28847e-06
-1.85428e-06
-3.46971e-06
-1.8877e-06
-3.6599e-06
-1.91277e-06
-3.85321e-06
-1.92333e-06
-4.04018e-06
-1.91235e-06
-4.2073e-06
-1.87271e-06
-4.3371e-06
-1.79815e-06
-4.40907e-06
-1.68458e-06
-4.40156e-06
-1.53143e-06
-4.29497e-06
-1.34279e-06
-4.07572e-06
-1.12782e-06
-3.74064e-06
-9.00057e-07
-3.30025e-06
-6.75506e-07
-2.7796e-06
-4.69838e-07
-2.21535e-06
-2.9565e-07
-1.64969e-06
-1.60749e-07
-1.12311e-06
-6.78828e-08
-6.68868e-07
-1.5656e-08
-3.10653e-07
-6.34587e-08
-1.39761e-06
3.02071e-07
-1.40752e-06
1.9298e-07
-1.41715e-06
8.34985e-08
-1.42647e-06
-2.63234e-08
-1.43549e-06
-1.3643e-07
-1.44419e-06
-2.46762e-07
-1.45257e-06
-3.57259e-07
-1.46061e-06
-4.67857e-07
-1.4683e-06
-5.78491e-07
-1.47564e-06
-6.89097e-07
-1.4826e-06
-7.99608e-07
-1.48916e-06
-9.09955e-07
-1.49533e-06
-1.02007e-06
-1.50108e-06
-1.12988e-06
-1.50641e-06
-1.23932e-06
-1.51133e-06
-1.34831e-06
-1.51586e-06
-1.45682e-06
-1.52004e-06
-1.5648e-06
-1.52398e-06
-1.67223e-06
-1.5278e-06
-1.77918e-06
-1.53171e-06
-1.88576e-06
-1.53598e-06
-1.99219e-06
-1.541e-06
-2.09886e-06
-1.54725e-06
-2.20634e-06
-1.55529e-06
-2.31545e-06
-1.56582e-06
-2.4273e-06
-1.57956e-06
-2.54334e-06
-1.59723e-06
-2.6653e-06
-1.61943e-06
-2.79523e-06
-1.64648e-06
-2.93524e-06
-1.67825e-06
-3.08732e-06
-1.71385e-06
-3.25287e-06
-1.75144e-06
-3.43212e-06
-1.78796e-06
-3.62338e-06
-1.81899e-06
-3.82219e-06
-1.83874e-06
-4.02044e-06
-1.84031e-06
-4.20573e-06
-1.81627e-06
-4.36114e-06
-1.75958e-06
-4.46576e-06
-1.66482e-06
-4.49632e-06
-1.52973e-06
-4.43006e-06
-1.35648e-06
-4.24897e-06
-1.15254e-06
-3.94457e-06
-9.3044e-07
-3.52235e-06
-7.06159e-07
-3.00388e-06
-4.96398e-07
-2.42511e-06
-3.15501e-07
-1.83058e-06
-1.73198e-07
-1.26541e-06
-7.38755e-08
-7.68191e-07
-1.72706e-08
-3.67258e-07
-8.07292e-08
-1.30407e-06
3.12403e-07
-1.31416e-06
2.03071e-07
-1.324e-06
9.33401e-08
-1.33359e-06
-1.67384e-08
-1.34291e-06
-1.27108e-07
-1.35196e-06
-2.3771e-07
-1.36074e-06
-3.48483e-07
-1.36923e-06
-4.59367e-07
-1.37742e-06
-5.70298e-07
-1.3853e-06
-6.81215e-07
-1.39286e-06
-7.92054e-07
-1.40006e-06
-9.02748e-07
-1.4069e-06
-1.01323e-06
-1.41335e-06
-1.12343e-06
-1.4194e-06
-1.23327e-06
-1.42503e-06
-1.34269e-06
-1.43024e-06
-1.45161e-06
-1.43506e-06
-1.55998e-06
-1.43954e-06
-1.66776e-06
-1.44377e-06
-1.77495e-06
-1.4479e-06
-1.88163e-06
-1.45215e-06
-1.98794e-06
-1.45684e-06
-2.09417e-06
-1.46239e-06
-2.20079e-06
-1.46933e-06
-2.30851e-06
-1.4783e-06
-2.41833e-06
-1.49004e-06
-2.5316e-06
-1.50533e-06
-2.65002e-06
-1.5249e-06
-2.77566e-06
-1.54931e-06
-2.91084e-06
-1.57873e-06
-3.0579e-06
-1.61277e-06
-3.21884e-06
-1.65011e-06
-3.39478e-06
-1.6883e-06
-3.58519e-06
-1.72353e-06
-3.78696e-06
-1.7505e-06
-3.99346e-06
-1.7626e-06
-4.19363e-06
-1.75231e-06
-4.37144e-06
-1.71202e-06
-4.50605e-06
-1.63526e-06
-4.57307e-06
-1.51819e-06
-4.54714e-06
-1.36113e-06
-4.40603e-06
-1.16973e-06
-4.13597e-06
-9.55198e-07
-3.73688e-06
-7.33129e-07
-3.22595e-06
-5.20908e-07
-2.63733e-06
-3.34438e-07
-2.01705e-06
-1.85372e-07
-1.41447e-06
-7.98528e-08
-8.7371e-07
-1.8912e-08
-4.28199e-07
-9.96412e-08
-1.20951e-06
3.22837e-07
-1.21975e-06
2.13305e-07
-1.22977e-06
1.03369e-07
-1.23959e-06
-6.91897e-09
-1.2492e-06
-1.17501e-07
-1.25859e-06
-2.2832e-07
-1.26776e-06
-3.39316e-07
-1.27669e-06
-4.5043e-07
-1.28539e-06
-5.61604e-07
-1.29383e-06
-6.72777e-07
-1.30199e-06
-7.83889e-07
-1.30986e-06
-8.94878e-07
-1.31741e-06
-1.00568e-06
-1.32462e-06
-1.11622e-06
-1.33145e-06
-1.22644e-06
-1.33788e-06
-1.33625e-06
-1.3439e-06
-1.44559e-06
-1.3495e-06
-1.55437e-06
-1.35471e-06
-1.66255e-06
-1.35958e-06
-1.77009e-06
-1.36421e-06
-1.877e-06
-1.36877e-06
-1.98338e-06
-1.37352e-06
-2.08942e-06
-1.3788e-06
-2.19551e-06
-1.38509e-06
-2.30222e-06
-1.39298e-06
-2.41044e-06
-1.40319e-06
-2.52139e-06
-1.4165e-06
-2.6367e-06
-1.43374e-06
-2.75842e-06
-1.45562e-06
-2.88895e-06
-1.48261e-06
-3.03091e-06
-1.51467e-06
-3.18678e-06
-1.551e-06
-3.35845e-06
-1.58974e-06
-3.54645e-06
-1.62769e-06
-3.74901e-06
-1.66013e-06
-3.96102e-06
-1.68085e-06
-4.17291e-06
-1.68244e-06
-4.36985e-06
-1.65697e-06
-4.53153e-06
-1.59711e-06
-4.63293e-06
-1.49766e-06
-4.64659e-06
-1.35718e-06
-4.54652e-06
-1.17944e-06
-4.31371e-06
-9.74121e-07
-3.9422e-06
-7.56076e-07
-3.44399e-06
-5.43028e-07
-2.85038e-06
-3.52204e-07
-2.20788e-06
-1.97117e-07
-1.56956e-06
-8.57449e-08
-9.85082e-07
-2.05631e-08
-4.93381e-07
-1.20204e-07
-1.11393e-06
3.33336e-07
-1.12428e-06
2.2365e-07
-1.13447e-06
1.13558e-07
-1.1445e-06
3.11368e-09
-1.15438e-06
-1.07627e-07
-1.16409e-06
-2.18607e-07
-1.17364e-06
-3.29768e-07
-1.18301e-06
-4.41054e-07
-1.19221e-06
-5.52409e-07
-1.20121e-06
-6.63778e-07
-1.20999e-06
-7.75103e-07
-1.21854e-06
-8.86328e-07
-1.22683e-06
-9.97393e-07
-1.23482e-06
-1.10823e-06
-1.24249e-06
-1.21878e-06
-1.24979e-06
-1.32895e-06
-1.25671e-06
-1.43867e-06
-1.26321e-06
-1.54787e-06
-1.2693e-06
-1.65646e-06
-1.27499e-06
-1.76439e-06
-1.28036e-06
-1.87163e-06
-1.28551e-06
-1.97822e-06
-1.29064e-06
-2.08429e-06
-1.29604e-06
-2.19011e-06
-1.30211e-06
-2.29616e-06
-1.30938e-06
-2.40317e-06
-1.31852e-06
-2.51225e-06
-1.33031e-06
-2.62491e-06
-1.3456e-06
-2.74313e-06
-1.36522e-06
-2.86933e-06
-1.38984e-06
-3.00629e-06
-1.41974e-06
-3.15688e-06
-1.45457e-06
-3.32362e-06
-1.49301e-06
-3.508e-06
-1.53249e-06
-3.70954e-06
-1.56889e-06
-3.92462e-06
-1.5965e-06
-4.14529e-06
-1.60817e-06
-4.35818e-06
-1.59586e-06
-4.54384e-06
-1.55163e-06
-4.67716e-06
-1.46911e-06
-4.72911e-06
-1.34523e-06
-4.6704e-06
-1.18192e-06
-4.47702e-06
-9.87161e-07
-4.13696e-06
-7.74777e-07
-3.65638e-06
-5.62487e-07
-3.06267e-06
-3.68569e-07
-2.4018e-06
-2.08283e-07
-1.72985e-06
-9.14826e-08
-1.10188e-06
-2.22062e-08
-5.62657e-07
-1.42411e-07
-1.01736e-06
3.43872e-07
-1.02779e-06
2.34082e-07
-1.03812e-06
1.23888e-07
-1.04835e-06
1.33415e-08
-1.05847e-06
-9.75004e-08
-1.0685e-06
-2.08582e-07
-1.07842e-06
-3.19848e-07
-1.08823e-06
-4.31244e-07
-1.09792e-06
-5.42718e-07
-1.10748e-06
-6.54218e-07
-1.11689e-06
-7.65693e-07
-1.12613e-06
-8.7709e-07
-1.13516e-06
-9.88355e-07
-1.14397e-06
-1.09943e-06
-1.1525e-06
-1.21024e-06
-1.16073e-06
-1.32072e-06
-1.1686e-06
-1.4308e-06
-1.17609e-06
-1.54038e-06
-1.18317e-06
-1.64938e-06
-1.18984e-06
-1.75772e-06
-1.19612e-06
-1.86535e-06
-1.20209e-06
-1.97226e-06
-1.20788e-06
-2.0785e-06
-1.21373e-06
-2.18426e-06
-1.21997e-06
-2.28992e-06
-1.22705e-06
-2.39609e-06
-1.23559e-06
-2.50371e-06
-1.24632e-06
-2.61418e-06
-1.26009e-06
-2.72935e-06
-1.27781e-06
-2.85162e-06
-1.30027e-06
-2.98383e-06
-1.32802e-06
-3.12913e-06
-1.36108e-06
-3.29056e-06
-1.39864e-06
-3.47045e-06
-1.4387e-06
-3.66948e-06
-1.47779e-06
-3.88553e-06
-1.51076e-06
-4.11233e-06
-1.53084e-06
-4.3381e-06
-1.53005e-06
-4.54462e-06
-1.50007e-06
-4.70714e-06
-1.43356e-06
-4.79561e-06
-1.32602e-06
-4.77795e-06
-1.17757e-06
-4.62548e-06
-9.94416e-07
-4.32011e-06
-7.89125e-07
-3.86167e-06
-5.79086e-07
-3.27271e-06
-3.83342e-07
-2.59754e-06
-2.18738e-07
-1.89445e-06
-9.69991e-08
-1.22362e-06
-2.38232e-08
-6.35833e-07
-1.66234e-07
-9.19812e-07
3.54418e-07
-9.30308e-07
2.44579e-07
-9.40759e-07
1.34338e-07
-9.51166e-07
2.37486e-08
-9.61532e-07
-8.71343e-08
-9.71857e-07
-1.98256e-07
-9.82142e-07
-3.09564e-07
-9.9238e-07
-4.21006e-07
-1.00256e-06
-5.32533e-07
-1.01268e-06
-6.44099e-07
-1.02272e-06
-7.55657e-07
-1.03265e-06
-8.67159e-07
-1.04245e-06
-9.78556e-07
-1.05208e-06
-1.08979e-06
-1.06151e-06
-1.20081e-06
-1.07068e-06
-1.31155e-06
-1.07956e-06
-1.42192e-06
-1.0881e-06
-1.53184e-06
-1.09626e-06
-1.64122e-06
-1.10401e-06
-1.74997e-06
-1.11135e-06
-1.85801e-06
-1.11832e-06
-1.96528e-06
-1.12502e-06
-2.0718e-06
-1.1316e-06
-2.17768e-06
-1.13834e-06
-2.28318e-06
-1.14562e-06
-2.3888e-06
-1.15398e-06
-2.49535e-06
-1.16411e-06
-2.60405e-06
-1.17682e-06
-2.71664e-06
-1.19303e-06
-2.83541e-06
-1.21364e-06
-2.96322e-06
-1.23939e-06
-3.10338e-06
-1.27061e-06
-3.25934e-06
-1.30692e-06
-3.43413e-06
-1.34688e-06
-3.62951e-06
-1.38764e-06
-3.84478e-06
-1.42465e-06
-4.07532e-06
-1.45162e-06
-4.31112e-06
-1.46079e-06
-4.53545e-06
-1.44363e-06
-4.72431e-06
-1.39208e-06
-4.84715e-06
-1.30036e-06
-4.86967e-06
-1.1669e-06
-4.75894e-06
-9.96116e-07
-4.49089e-06
-7.99124e-07
-4.05866e-06
-5.92704e-07
-3.47913e-06
-3.96372e-07
-2.79387e-06
-2.28365e-07
-2.06246e-06
-1.02233e-07
-1.34975e-06
-2.53963e-08
-7.12669e-07
-1.9163e-07
-8.21347e-07
3.64951e-07
-8.31888e-07
2.5512e-07
-8.42442e-07
1.44892e-07
-8.53014e-07
3.43207e-08
-8.63608e-07
-7.65407e-08
-8.74225e-07
-1.87639e-07
-8.84865e-07
-2.98924e-07
-8.95525e-07
-4.10346e-07
-9.06198e-07
-5.21861e-07
-9.16873e-07
-6.33424e-07
-9.27534e-07
-7.44996e-07
-9.3816e-07
-8.56533e-07
-9.48724e-07
-9.67992e-07
-9.59192e-07
-1.07933e-06
-9.69524e-07
-1.19048e-06
-9.79674e-07
-1.3014e-06
-9.89591e-07
-1.412e-06
-9.99223e-07
-1.52221e-06
-1.00852e-06
-1.63193e-06
-1.01744e-06
-1.74105e-06
-1.02596e-06
-1.84949e-06
-1.03408e-06
-1.95716e-06
-1.04186e-06
-2.06403e-06
-1.04941e-06
-2.17013e-06
-1.05694e-06
-2.27566e-06
-1.06476e-06
-2.38098e-06
-1.07335e-06
-2.48677e-06
-1.0833e-06
-2.5941e-06
-1.0954e-06
-2.70454e-06
-1.11054e-06
-2.82027e-06
-1.12968e-06
-2.94408e-06
-1.15368e-06
-3.07938e-06
-1.18313e-06
-3.22989e-06
-1.21802e-06
-3.39924e-06
-1.25741e-06
-3.59012e-06
-1.29904e-06
-3.80315e-06
-1.33899e-06
-4.03537e-06
-1.37151e-06
-4.2786e-06
-1.38918e-06
-4.51779e-06
-1.38343e-06
-4.73006e-06
-1.34569e-06
-4.88489e-06
-1.2691e-06
-4.94627e-06
-1.15052e-06
-4.87752e-06
-9.92599e-07
-4.64881e-06
-8.04883e-07
-4.24638e-06
-6.03301e-07
-3.68071e-06
-4.07557e-07
-2.98962e-06
-2.37071e-07
-2.23294e-06
-1.07129e-07
-1.4797e-06
-2.69089e-08
-7.92889e-07
-2.18539e-07
-7.2201e-07
3.75451e-07
-7.32578e-07
2.65688e-07
-7.4322e-07
1.55535e-07
-7.53945e-07
4.50448e-08
-7.64755e-07
-6.57305e-08
-7.75654e-07
-1.7674e-07
-7.86643e-07
-2.87935e-07
-7.97719e-07
-3.9927e-07
-8.08876e-07
-5.10703e-07
-8.20105e-07
-6.22196e-07
-8.3139e-07
-7.3371e-07
-8.42712e-07
-8.45211e-07
-8.54044e-07
-9.5666e-07
-8.65354e-07
-1.06802e-06
-8.76601e-07
-1.17924e-06
-8.87738e-07
-1.29026e-06
-8.98714e-07
-1.40103e-06
-9.09472e-07
-1.51145e-06
-9.19953e-07
-1.62144e-06
-9.30105e-07
-1.7309e-06
-9.39886e-07
-1.83971e-06
-9.49276e-07
-1.94777e-06
-9.58292e-07
-2.05501e-06
-9.67005e-07
-2.16142e-06
-9.75566e-07
-2.2671e-06
-9.84229e-07
-2.37231e-06
-9.9338e-07
-2.47762e-06
-1.00356e-06
-2.58392e-06
-1.01547e-06
-2.69263e-06
-1.02998e-06
-2.80576e-06
-1.04805e-06
-2.92601e-06
-1.07064e-06
-3.05679e-06
-1.0985e-06
-3.20202e-06
-1.13196e-06
-3.36579e-06
-1.1705e-06
-3.55158e-06
-1.21242e-06
-3.76123e-06
-1.25442e-06
-3.99338e-06
-1.29134e-06
-4.24167e-06
-1.31618e-06
-4.49295e-06
-1.3205e-06
-4.72575e-06
-1.29539e-06
-4.91e-06
-1.23309e-06
-5.00856e-06
-1.12908e-06
-4.98152e-06
-9.84284e-07
-4.79361e-06
-8.06599e-07
-4.42406e-06
-6.10907e-07
-3.8764e-06
-4.16844e-07
-3.18368e-06
-2.44786e-07
-2.405e-06
-1.11641e-07
-1.61284e-06
-2.83459e-08
-8.76185e-07
-2.46885e-07
-6.21853e-07
3.85896e-07
-6.3243e-07
2.76264e-07
-6.43146e-07
1.66251e-07
-6.54009e-07
5.5908e-08
-6.65025e-07
-5.47145e-08
-6.76198e-07
-1.65567e-07
-6.87528e-07
-2.76605e-07
-6.99014e-07
-3.87784e-07
-7.10652e-07
-4.99066e-07
-7.22432e-07
-6.10416e-07
-7.3434e-07
-7.21802e-07
-7.46357e-07
-8.33193e-07
-7.58459e-07
-9.44558e-07
-7.70614e-07
-1.05586e-06
-7.82782e-07
-1.16707e-06
-7.94917e-07
-1.27813e-06
-8.06967e-07
-1.38898e-06
-8.18872e-07
-1.49955e-06
-8.30571e-07
-1.60975e-06
-8.42002e-07
-1.71947e-06
-8.53109e-07
-1.8286e-06
-8.63854e-07
-1.93702e-06
-8.74226e-07
-2.04464e-06
-8.8426e-07
-2.15139e-06
-8.94056e-07
-2.2573e-06
-9.03809e-07
-2.36256e-06
-9.13834e-07
-2.46759e-06
-9.24596e-07
-2.57316e-06
-9.36727e-07
-2.6805e-06
-9.51032e-07
-2.79145e-06
-9.68454e-07
-2.90859e-06
-9.89993e-07
-3.03525e-06
-1.01655e-06
-3.17547e-06
-1.04868e-06
-3.33366e-06
-1.08625e-06
-3.514e-06
-1.12807e-06
-3.71941e-06
-1.17143e-06
-3.95002e-06
-1.21178e-06
-4.20132e-06
-1.24261e-06
-4.46211e-06
-1.25574e-06
-4.71262e-06
-1.24208e-06
-4.92366e-06
-1.19318e-06
-5.05746e-06
-1.10327e-06
-5.07142e-06
-9.71648e-07
-4.92523e-06
-8.0454e-07
-4.59117e-06
-6.15622e-07
-4.06532e-06
-4.24228e-07
-3.37507e-06
-2.51468e-07
-2.57776e-06
-1.15736e-07
-1.74857e-06
-2.9694e-08
-9.62226e-07
-2.76579e-07
-5.20927e-07
3.96266e-07
-5.31495e-07
2.86832e-07
-5.42269e-07
1.77026e-07
-5.53259e-07
6.68975e-08
-5.6447e-07
-4.35034e-08
-5.75907e-07
-1.5413e-07
-5.87571e-07
-2.6494e-07
-5.99463e-07
-3.75892e-07
-6.11576e-07
-4.86952e-07
-6.23904e-07
-5.98088e-07
-6.36433e-07
-7.09273e-07
-6.49146e-07
-8.20481e-07
-6.62018e-07
-9.31686e-07
-6.7502e-07
-1.04286e-06
-6.88114e-07
-1.15397e-06
-7.01254e-07
-1.26499e-06
-7.14389e-07
-1.37584e-06
-7.27458e-07
-1.48648e-06
-7.40397e-07
-1.59681e-06
-7.5314e-07
-1.70673e-06
-7.65623e-07
-1.81612e-06
-7.77792e-07
-1.92486e-06
-7.89614e-07
-2.03282e-06
-8.01094e-07
-2.13991e-06
-8.12292e-07
-2.2461e-06
-8.23347e-07
-2.35151e-06
-8.3451e-07
-2.45643e-06
-8.4617e-07
-2.5615e-06
-8.58884e-07
-2.66778e-06
-8.73387e-07
-2.77695e-06
-8.90581e-07
-2.8914e-06
-9.1147e-07
-3.01436e-06
-9.3704e-07
-3.1499e-06
-9.68036e-07
-3.30266e-06
-1.00465e-06
-3.47738e-06
-1.04614e-06
-3.67792e-06
-1.09035e-06
-3.90581e-06
-1.13334e-06
-4.15833e-06
-1.16915e-06
-4.4263e-06
-1.18993e-06
-4.69184e-06
-1.18659e-06
-4.927e-06
-1.15015e-06
-5.0939e-06
-1.07377e-06
-5.1478e-06
-9.55204e-07
-5.0438e-06
-7.99032e-07
-4.74734e-06
-6.17603e-07
-4.24675e-06
-4.29749e-07
-3.56293e-06
-2.57101e-07
-2.75041e-06
-1.19387e-07
-1.88629e-06
-3.09426e-08
-1.05067e-06
-3.07521e-07
-4.19282e-07
4.06544e-07
-4.29823e-07
2.97374e-07
-4.40641e-07
1.87843e-07
-4.51743e-07
7.79999e-08
-4.63138e-07
-3.21089e-08
-4.74829e-07
-1.42439e-07
-4.8682e-07
-2.52949e-07
-4.9911e-07
-3.63602e-07
-5.11695e-07
-4.74367e-07
-5.24568e-07
-5.85216e-07
-5.37716e-07
-6.96125e-07
-5.51123e-07
-8.07073e-07
-5.64767e-07
-9.18042e-07
-5.78618e-07
-1.02901e-06
-5.92641e-07
-1.13995e-06
-6.06791e-07
-1.25084e-06
-6.21018e-07
-1.36162e-06
-6.35263e-07
-1.47223e-06
-6.49461e-07
-1.58261e-06
-6.63542e-07
-1.69265e-06
-6.77437e-07
-1.80222e-06
-6.91082e-07
-1.91121e-06
-7.04429e-07
-2.01947e-06
-7.17456e-07
-2.12688e-06
-7.30189e-07
-2.23337e-06
-7.42723e-07
-2.33897e-06
-7.55247e-07
-2.44391e-06
-7.68083e-07
-2.54866e-06
-7.81709e-07
-2.65416e-06
-7.96784e-07
-2.76187e-06
-8.1415e-07
-2.87403e-06
-8.34792e-07
-2.99372e-06
-8.59737e-07
-3.12495e-06
-8.89868e-07
-3.27253e-06
-9.25642e-07
-3.44161e-06
-9.66699e-07
-3.63686e-06
-1.01141e-06
-3.8611e-06
-1.05642e-06
-4.11332e-06
-1.09635e-06
-4.38637e-06
-1.12376e-06
-4.66444e-06
-1.12967e-06
-4.92109e-06
-1.10474e-06
-5.11883e-06
-1.04123e-06
-5.21132e-06
-9.35481e-07
-5.14954e-06
-7.90438e-07
-4.89239e-06
-6.17054e-07
-4.42013e-06
-4.33488e-07
-3.74649e-06
-2.61694e-07
-2.9222e-06
-1.22583e-07
-2.0254e-06
-3.20834e-08
-1.14117e-06
-3.39605e-07
-3.16966e-07
4.16707e-07
-3.27463e-07
3.07871e-07
-3.38307e-07
1.98687e-07
-3.49508e-07
8.92007e-08
-3.61073e-07
-2.05435e-08
-3.73009e-07
-1.30503e-07
-3.85317e-07
-2.40641e-07
-3.97999e-07
-3.50921e-07
-4.1105e-07
-4.61316e-07
-4.24463e-07
-5.71802e-07
-4.38228e-07
-6.8236e-07
-4.52329e-07
-7.92973e-07
-4.66744e-07
-9.03627e-07
-4.81445e-07
-1.01431e-06
-4.964e-07