/*--------------------------------*- C++ -*----------------------------------*\
  =========                 |
  \\      /  F ield         | OpenFOAM: The Open Source CFD Toolbox
   \\    /   O peration     | Website:  https://openfoam.org
    \\  /    A nd           | Version:  9
     \\/     M anipulation  |
\*---------------------------------------------------------------------------*/
FoamFile
{
    format      ascii;
    class       volScalarField;
    location    "1.75";
    object      p;
}
// * * * * * * * * * * * * * * * * * * * * * * * * * * * * * * * * * * * * * //

dimensions      [0 2 -2 0 0 0 0];

internalField   nonuniform List<scalar> 
10000
(
1.98376e-08
6.67052e-06
6.36247e-06
-1.89058e-06
-1.8287e-05
-4.2396e-05
-7.34461e-05
-0.000110642
-0.000153304
-0.000200907
-0.000253071
-0.000309546
-0.000370178
-0.000434886
-0.000503634
-0.000576409
-0.000653201
-0.000733989
-0.00081873
-0.000907349
-0.00099973
-0.0010957
-0.00119505
-0.00129746
-0.00140256
-0.00150988
-0.00161886
-0.0017288
-0.00183889
-0.0019482
-0.00205563
-0.00215997
-0.00225986
-0.0023538
-0.00244019
-0.00251731
-0.00258336
-0.00263653
-0.00267497
-0.0026969
-0.00270062
-0.0026846
-0.00264752
-0.00258836
-0.00250645
-0.00240152
-0.00227382
-0.0021241
-0.00195371
-0.00176461
-0.00155937
-0.0013411
-0.00111369
-0.000881401
-0.000648974
-0.00042154
-0.000204452
-3.16079e-06
0.000176946
0.000330713
0.000453381
0.000540758
0.000589376
0.000596623
0.000560855
0.000481468
0.000358938
0.000194813
-8.34203e-06
-0.000247031
-0.000516932
-0.000813103
-0.00113013
-0.00146234
-0.00180397
-0.00214939
-0.00249326
-0.00283067
-0.00315727
-0.00346933
-0.00376383
-0.00403843
-0.00429147
-0.00452192
-0.00472933
-0.00491373
-0.00507552
-0.0052154
-0.00533424
-0.005433
-0.00551263
-0.00557402
-0.00561794
-0.00564512
-0.00565634
-0.0056527
-0.00563619
-0.00561055
-0.00558155
-0.00555899
-6.65097e-06
-1.2576e-08
-1.49702e-06
-1.0316e-05
-2.60909e-05
-4.86243e-05
-7.7458e-05
-0.000112045
-0.000151881
-0.000196538
-0.0002457
-0.000299123
-0.000356641
-0.000418147
-0.000483569
-0.000552863
-0.000625988
-0.000702902
-0.000783544
-0.000867831
-0.000955644
-0.00104682
-0.00114115
-0.00123836
-0.00133809
-0.00143993
-0.00154335
-0.00164772
-0.00175231
-0.00185624
-0.00195854
-0.00205808
-0.00215361
-0.00224376
-0.00232704
-0.00240187
-0.00246657
-0.00251946
-0.0025588
-0.00258291
-0.00259021
-0.00257921
-0.00254868
-0.0024976
-0.0024253
-0.00233151
-0.0022164
-0.00208062
-0.00192542
-0.00175262
-0.00156474
-0.00136422
-0.00115502
-0.000941137
-0.00072703
-0.000517523
-0.000317674
-0.000132637
3.24878e-05
0.000172815
0.00028384
0.000361594
0.000402798
0.000404991
0.000366631
0.000287173
0.000167093
7.88737e-06
-0.00018798
-0.000417171
-0.000675592
-0.000958534
-0.00126089
-0.00157729
-0.00190233
-0.00223073
-0.00255748
-0.002878
-0.00318826
-0.00348481
-0.00376483
-0.00402618
-0.00426731
-0.0044873
-0.00468572
-0.00486259
-0.00501828
-0.00515344
-0.00526888
-0.00536554
-0.00544435
-0.00550624
-0.0055521
-0.00558282
-0.00559936
-0.00560296
-0.00559544
-0.00557971
-0.00555908
-0.00553643
-6.25232e-06
1.39162e-06
-2.71942e-07
-9.2904e-06
-2.4761e-05
-4.64713e-05
-7.40467e-05
-0.000107034
-0.000145014
-0.00018764
-0.000234618
-0.000285735
-0.000340835
-0.000399806
-0.000462572
-0.000529077
-0.000599272
-0.000673107
-0.000750525
-0.000831443
-0.000915756
-0.00100332
-0.00109394
-0.00118739
-0.00128335
-0.00138143
-0.00148119
-0.00158203
-0.00168331
-0.00178422
-0.00188386
-0.00198118
-0.00207503
-0.0021641
-0.002247
-0.0023222
-0.00238811
-0.00244308
-0.00248543
-0.00251351
-0.00252572
-0.0025206
-0.00249685
-0.00245343
-0.0023896
-0.002305
-0.0021997
-0.00207425
-0.00192977
-0.00176789
-0.00159078
-0.00140141
-0.00120313
-0.000999814
-0.000795837
-0.000595906
-0.000404971
-0.000228094
-7.02894e-05
6.36283e-05
0.000169211
0.000242535
0.000280357
0.00028024
0.000240661
0.000161079
4.19697e-05
-0.00011518
-0.000307925
-0.000532951
-0.000786206
-0.00106305
-0.00135842
-0.00166706
-0.00198365
-0.00230304
-0.00262036
-0.0029312
-0.00323165
-0.00351843
-0.00378889
-0.00404105
-0.0042735
-0.00448541
-0.00467646
-0.00484677
-0.00499676
-0.00512714
-0.00523875
-0.00533256
-0.00540956
-0.0054707
-0.00551691
-0.0055491
-0.00556817
-0.00557515
-0.00557144
-0.00555905
-0.00553854
-0.00550734
2.48836e-06
1.02789e-05
8.25607e-06
-1.11248e-06
-1.66234e-05
-3.79842e-05
-6.48226e-05
-9.67248e-05
-0.000133329
-0.000174329
-0.000219482
-0.000268604
-0.000321557
-0.000378247
-0.000438603
-0.000502574
-0.000570119
-0.000641196
-0.000715758
-0.000793742
-0.000875062
-0.000959607
-0.00104722
-0.00113772
-0.00123084
-0.00132625
-0.00142357
-0.00152228
-0.0016218
-0.00172142
-0.00182029
-0.00191745
-0.00201181
-0.00210213
-0.00218705
-0.00226511
-0.00233471
-0.00239422
-0.00244194
-0.00247619
-0.0024953
-0.00249775
-0.00248214
-0.00244732
-0.00239244
-0.002317
-0.00222093
-0.00210467
-0.00196918
-0.00181598
-0.00164708
-0.00146549
-0.00127434
-0.00107749
-0.000879262
-0.000684338
-0.000497668
-0.000324327
-0.000169364
-3.76371e-05
6.63496e-05
0.000138614
0.000175849
0.000175562
0.000136181
5.713e-05
-6.11335e-05
-0.000217125
-0.000408384
-0.000631566
-0.000882571
-0.00115671
-0.00144889
-0.00175378
-0.00206604
-0.00238051
-0.00269233
-0.00299712
-0.00329105
-0.00357091
-0.0038342
-0.00407899
-0.00430407
-0.00450876
-0.00469286
-0.00485663
-0.00500063
-0.00512566
-0.00523269
-0.00532276
-0.00539692
-0.00545619
-0.00550151
-0.00553371
-0.00555356
-0.00556175
-0.00555915
-0.00554699
-0.00552353
-0.00548237
2.01202e-05
2.64858e-05
2.33634e-05
1.31987e-05
-2.7508e-06
-2.41333e-05
-5.05763e-05
-8.16983e-05
-0.000117191
-0.000156795
-0.000200316
-0.000247607
-0.000298563
-0.00035311
-0.0004112
-0.0004728
-0.000537884
-0.000606432
-0.000678419
-0.000753816
-0.000832574
-0.000914627
-0.000999876
-0.00108819
-0.00117938
-0.00127319
-0.00136932
-0.00146733
-0.00156673
-0.00166688
-0.00176701
-0.00186624
-0.00196352
-0.00205765
-0.00214731
-0.00223101
-0.00230717
-0.00237408
-0.00242999
-0.00247311
-0.00250169
-0.00251405
-0.00250866
-0.0024842
-0.00243966
-0.00237439
-0.00228814
-0.00218121
-0.00205441
-0.00190918
-0.00174743
-0.00157198
-0.00138602
-0.00119335
-0.000998298
-0.000805574
-0.000620178
-0.000447264
-0.000291976
-0.000159289
-5.38304e-05
2.02851e-05
5.96214e-05
6.15641e-05
2.44351e-05
-5.24271e-05
-0.000168623
-0.000322695
-0.000512176
-0.000733684
-0.000983053
-0.0012555
-0.00154581
-0.00184858
-0.00215831
-0.00246977
-0.00277801
-0.00307861
-0.00336772
-0.00364218
-0.00389951
-0.00413792
-0.00435631
-0.00455412
-0.00473134
-0.00488838
-0.00502595
-0.00514504
-0.00524673
-0.0053322
-0.0054026
-0.00545899
-0.00550234
-0.00553342
-0.00555284
-0.00556096
-0.00555822
-0.00554517
-0.00551835
-0.00546841
4.64967e-05
4.99667e-05
4.49466e-05
3.34627e-05
1.66406e-05
-5.13935e-06
-3.15147e-05
-6.21584e-05
-9.6806e-05
-0.00013526
-0.000177377
-0.000223056
-0.000272233
-0.000324868
-0.000380946
-0.000440461
-0.000503421
-0.00056984
-0.000639732
-0.000713113
-0.000789992
-0.000870365
-0.000954208
-0.00104147
-0.00113204
-0.00122578
-0.00132244
-0.00142173
-0.0015232
-0.00162632
-0.00173039
-0.00183457
-0.00193785
-0.00203905
-0.00213683
-0.00222966
-0.00231588
-0.0023937
-0.00246123
-0.00251653
-0.00255768
-0.00258282
-0.00259022
-0.00257837
-0.00254605
-0.00249241
-0.00241704
-0.00232005
-0.00220214
-0.00206461
-0.00190927
-0.00173888
-0.00155658
-0.00136621
-0.00117208
-0.000978986
-0.000792009
-0.000616423
-0.000457518
-0.000320437
-0.000209994
-0.000130499
-8.55848e-05
-7.80599e-05
-0.00010978
-0.00018156
-0.000293118
-0.000443079
-0.000629011
-0.000847521
-0.00109439
-0.00136472
-0.00165319
-0.00195421
-0.00226215
-0.00257158
-0.00287742
-0.0031751
-0.00346071
-0.00373101
-0.00398354
-0.00421656
-0.00442902
-0.00462051
-0.00479116
-0.00494154
-0.00507256
-0.00518537
-0.00528122
-0.00536144
-0.00542731
-0.00547997
-0.00552042
-0.00554942
-0.00556741
-0.00557454
-0.00557087
-0.00555648
-0.0055267
-0.00547021
8.09757e-05
8.02924e-05
7.26254e-05
5.92969e-05
4.11798e-05
1.86491e-05
-7.96943e-06
-3.84066e-05
-7.24672e-05
-0.00011002
-0.000150981
-0.000195308
-0.000242986
-0.000294024
-0.000348447
-0.000406294
-0.00046762
-0.000532486
-0.000600968
-0.000673146
-0.000749105
-0.000828927
-0.000912683
-0.00100042
-0.00109215
-0.00118782
-0.00128732
-0.00139042
-0.00149681
-0.00160601
-0.00171738
-0.00183013
-0.00194325
-0.00205553
-0.00216557
-0.00227176
-0.0023723
-0.00246525
-0.00254854
-0.00262002
-0.00267754
-0.00271901
-0.00274245
-0.00274612
-0.00272856
-0.00268872
-0.00262597
-0.00254024
-0.00243207
-0.00230263
-0.00215367
-0.00198782
-0.00180822
-0.00161868
-0.00142357
-0.00122775
-0.0010364
-0.000854942
-0.000688851
-0.00054348
-0.000423884
-0.000334631
-0.000279631
-0.000261965
-0.000283755
-0.000346057
-0.000448802
-0.000590777
-0.000769662
-0.000982115
-0.0012239
-0.00149007
-0.00177516
-0.0020734
-0.00237899
-0.00268627
-0.00298994
-0.00328524
-0.00356807
-0.00383509
-0.00408374
-0.00431225
-0.00451961
-0.00470547
-0.00487009
-0.00501418
-0.00513881
-0.00524531
-0.00533513
-0.00540976
-0.00547061
-0.00551896
-0.00555585
-0.00558204
-0.00559793
-0.00560347
-0.0055985
-0.00558277
-0.00555089
-0.00549036
0.000122675
0.000116765
0.000105769
9.01331e-05
7.03304e-05
4.67327e-05
1.96061e-05
-1.08687e-05
-4.45815e-05
-8.14796e-05
-0.000121554
-0.000164829
-0.000211353
-0.000261191
-0.000314427
-0.000371158
-0.000431502
-0.00049559
-0.000563577
-0.000635634
-0.000711945
-0.000792703
-0.000878098
-0.000968304
-0.00106346
-0.00116364
-0.00126886
-0.00137901
-0.00149384
-0.00161297
-0.0017358
-0.00186153
-0.00198913
-0.00211733
-0.00224461
-0.00236922
-0.00248918
-0.00260232
-0.00270633
-0.00279881
-0.00287733
-0.00293951
-0.00298311
-0.00300608
-0.00300673
-0.00298373
-0.00293625
-0.002864
-0.00276731
-0.0026472
-0.00250537
-0.00234426
-0.00216699
-0.00197734
-0.00177971
-0.00157899
-0.0013805
-0.00118981
-0.00101258
-0.000854428
-0.000720698
-0.00061629
-0.000545467
-0.000511682
-0.000517431
-0.000564129
-0.000652035
-0.000780219
-0.000946584
-0.00114794
-0.00138012
-0.00163817
-0.00191655
-0.00220934
-0.00251053
-0.0028142
-0.0031148
-0.00340729
-0.00368735
-0.00395138
-0.00419669
-0.00442139
-0.0046244
-0.00480534
-0.00496468
-0.00510307
-0.00522178
-0.0053223
-0.00540626
-0.0054753
-0.00553101
-0.0055748
-0.0056078
-0.00563083
-0.00564426
-0.00564799
-0.00564169
-0.00562493
-0.00559199
-0.00552989
0.000170633
0.000158489
0.00014359
0.00012523
0.000103416
7.84876e-05
5.06248e-05
1.98941e-05
-1.36998e-05
-5.02002e-05
-8.96864e-05
-0.000132263
-0.000178054
-0.000227197
-0.000279847
-0.000336179
-0.000396393
-0.000460714
-0.000529401
-0.00060274
-0.000681046
-0.000764651
-0.00085389
-0.00094909
-0.00105054
-0.00115847
-0.001273
-0.00139416
-0.00152178
-0.00165552
-0.00179481
-0.00193883
-0.00208646
-0.00223633
-0.00238675
-0.00253577
-0.00268116
-0.00282049
-0.00295115
-0.00307042
-0.00317556
-0.00326384
-0.00333272
-0.00337983
-0.00340317
-0.00340112
-0.00337259
-0.00331704
-0.00323457
-0.00312596
-0.00299284
-0.00283743
-0.00266277
-0.00247256
-0.00227119
-0.00206358
-0.00185515
-0.0016516
-0.00145883
-0.00128272
-0.00112896
-0.00100286
-0.000909122
-0.000851678
-0.000833526
-0.000856585
-0.000921589
-0.00102804
-0.00117423
-0.00135724
-0.00157311
-0.001817
-0.00208333
-0.00236611
-0.00265913
-0.00295622
-0.00325152
-0.00353969
-0.00381605
-0.00407673
-0.00431875
-0.00454
-0.00473929
-0.00491622
-0.00507093
-0.00520442
-0.00531796
-0.00541315
-0.00549176
-0.00555562
-0.00560646
-0.00564583
-0.005675
-0.00569486
-0.00570584
-0.00570782
-0.00570043
-0.00568315
-0.00565021
-0.00558877
0.000223657
0.000204463
0.000185136
0.0001637
0.000139608
0.000113132
8.43394e-05
5.31529e-05
1.94482e-05
-1.6933e-05
-5.61747e-05
-9.84774e-05
-0.000144054
-0.000193133
-0.000245958
-0.000302803
-0.000363973
-0.000429814
-0.000500719
-0.000577123
-0.000659499
-0.000748351
-0.000844192
-0.000947525
-0.00105881
-0.00117843
-0.00130667
-0.00144363
-0.00158925
-0.0017432
-0.00190491
-0.00207348
-0.00224769
-0.00242598
-0.00260645
-0.00278689
-0.00296478
-0.00313735
-0.00330166
-0.00345461
-0.00359309
-0.00371401
-0.00381444
-0.00389168
-0.00394335
-0.00396753
-0.00396277
-0.00392825
-0.00386377
-0.00376984
-0.00364791
-0.00349994
-0.00332882
-0.00313814
-0.00293219
-0.0027159
-0.00249473
-0.00227452
-0.00206139
-0.00186152
-0.00168097
-0.00152552
-0.00140042
-0.0013102
-0.00125849
-0.00124789
-0.00127978
-0.00135428
-0.00147025
-0.00162526
-0.00181571
-0.002037
-0.00228369
-0.00254976
-0.00282887
-0.00311462
-0.00340083
-0.00368179
-0.00395243
-0.00420847
-0.00444656
-0.00466427
-0.00486012
-0.00503351
-0.00518457
-0.00531411
-0.00542346
-0.00551426
-0.00558841
-0.00564786
-0.00569448
-0.00572997
-0.00575573
-0.00577278
-0.00578163
-0.00578222
-0.00577418
-0.00575699
-0.00572507
-0.00566614
0.000280471
0.000253471
0.00022927
0.000204469
0.000177886
0.000149692
0.000119804
8.79711e-05
5.39138e-05
1.73381e-05
-2.20629e-05
-6.46027e-05
-0.000110602
-0.000160396
-0.000214342
-0.000272835
-0.000336317
-0.000405286
-0.0004803
-0.000561978
-0.00065099
-0.000748043
-0.000853859
-0.000969142
-0.00109455
-0.00123062
-0.00137779
-0.00153627
-0.00170603
-0.00188678
-0.00207786
-0.00227828
-0.00248664
-0.00270117
-0.00291969
-0.00313968
-0.00335825
-0.00357227
-0.00377837
-0.00397307
-0.00415281
-0.00431411
-0.0044536
-0.00456816
-0.00465503
-0.00471186
-0.00473685
-0.00472879
-0.00468713
-0.00461205
-0.00450468
-0.00436671
-0.00420079
-0.0040103
-0.00379941
-0.00357297
-0.00333644
-0.00309576
-0.00285723
-0.00262735
-0.00241259
-0.00221923
-0.00205315
-0.00191961
-0.00182303
-0.00176682
-0.00175324
-0.00178325
-0.0018565
-0.00197127
-0.00212457
-0.00231222
-0.0025291
-0.00276931
-0.00302647
-0.00329401
-0.00356546
-0.00383468
-0.00409615
-0.00434511
-0.00457771
-0.00479108
-0.00498334
-0.00515354
-0.0053016
-0.00542811
-0.00553437
-0.00562195
-0.00569279
-0.00574893
-0.00579235
-0.00582487
-0.00584802
-0.00586296
-0.00587029
-0.00587007
-0.00586199
-0.00584556
-0.0058156
-0.00576066
0.000339616
0.000304124
0.000274657
0.000246264
0.000217029
0.00018698
0.000155849
0.000123176
8.84995e-05
5.13655e-05
1.13246e-05
-3.20693e-05
-7.92648e-05
-0.000130727
-0.000186953
-0.000248489
-0.000315946
-0.000390008
-0.00047144
-0.000561083
-0.00065984
-0.000768658
-0.000888498
-0.00102029
-0.0011649
-0.00132305
-0.00149529
-0.00168194
-0.00188299
-0.00209812
-0.00232658
-0.00256722
-0.00281841
-0.0030781
-0.00334379
-0.00361257
-0.00388116
-0.00414597
-0.00440321
-0.00464889
-0.004879
-0.00508958
-0.00527677
-0.005437
-0.00556701
-0.00566402
-0.00572577
-0.0057506
-0.00573754
-0.00568636
-0.00559779
-0.00547318
-0.00531485
-0.00512592
-0.00491032
-0.00467275
-0.00441862
-0.00415392
-0.00388508
-0.00361887
-0.00336218
-0.00312184
-0.00290441
-0.00271594
-0.0025618
-0.00244641
-0.00237309
-0.00234389
-0.0023595
-0.00241921
-0.00252087
-0.00266105
-0.00283514
-0.00303758
-0.00326213
-0.00350214
-0.00375088
-0.00400183
-0.00424895
-0.00448691
-0.00471126
-0.00491854
-0.00510631
-0.00527316
-0.00541857
-0.00554291
-0.0056471
-0.00573272
-0.00580161
-0.00585579
-0.00589732
-0.00592809
-0.00594976
-0.00596357
-0.00597029
-0.00597005
-0.00596268
-0.00594772
-0.00592049
-0.00587064
0.000399528
0.000354817
0.000319755
0.000287596
0.000255585
0.000223572
0.000191057
0.000157335
0.000121731
8.36084e-05
4.23516e-05
-2.63959e-06
-5.19656e-05
-0.000106249
-0.000166156
-0.000232418
-0.000305853
-0.000387376
-0.000477996
-0.00057882
-0.000691025
-0.000815834
-0.000954471
-0.00110812
-0.00127786
-0.00146459
-0.00166899
-0.00189144
-0.00213195
-0.00239009
-0.002665
-0.00295528
-0.00325906
-0.00357393
-0.00389699
-0.00422491
-0.00455393
-0.00487998
-0.00519872
-0.00550567
-0.00579626
-0.00606598
-0.00631046
-0.00652558
-0.00670755
-0.00685306
-0.00695934
-0.00702423
-0.00704628
-0.00702478
-0.00695996
-0.00685278
-0.00670516
-0.00651985
-0.00630049
-0.00605156
-0.0057783
-0.00548665
-0.00518313
-0.00487472
-0.00456867
-0.00427235
-0.00399302
-0.00373759
-0.00351246
-0.00332321
-0.00317441
-0.00306947
-0.00301039
-0.00299776
-0.00303065
-0.00310666
-0.00322203
-0.00337182
-0.00355015
-0.00375049
-0.00396597
-0.00418972
-0.00441519
-0.0046364
-0.00484819
-0.00504638
-0.00522779
-0.00539036
-0.005533
-0.00565556
-0.00575867
-0.00584357
-0.00591192
-0.00596567
-0.00600683
-0.00603733
-0.00605888
-0.00607283
-0.00608004
-0.00608077
-0.00607493
-0.00606218
-0.00603835
-0.00599432
0.000458205
0.000403736
0.0003628
0.000326739
0.000291863
0.000257788
0.00022374
0.000188727
0.000151832
0.000112207
6.90456e-05
2.1567e-05
-3.10068e-05
-8.94866e-05
-0.000154744
-0.000227737
-0.000309532
-0.000401316
-0.000504397
-0.000620186
-0.000750174
-0.000895892
-0.00105886
-0.00124053
-0.00144219
-0.00166493
-0.00190953
-0.0021764
-0.0024655
-0.0027763
-0.00310773
-0.00345812
-0.00382524
-0.00420628
-0.0045979
-0.00499624
-0.00539701
-0.00579557
-0.006187
-0.00656621
-0.00692805
-0.0072674
-0.00757927
-0.00785896
-0.0081021
-0.00830482
-0.00846377
-0.00857625
-0.00864028
-0.00865463
-0.00861894
-0.00853383
-0.00840068
-0.00822182
-0.0080005
-0.00774087
-0.00744793
-0.00712747
-0.00678599
-0.00643055
-0.0060687
-0.00570825
-0.00535712
-0.0050231
-0.00471363
-0.00443556
-0.0041949
-0.00399656
-0.00384419
-0.00373999
-0.00368461
-0.00367707
-0.00371487
-0.00379405
-0.00390943
-0.00405486
-0.00422355
-0.0044084
-0.00460238
-0.00479887
-0.0049919
-0.00517638
-0.00534828
-0.00550464
-0.00564362
-0.00576437
-0.00586697
-0.00595219
-0.00602139
-0.00607626
-0.0061187
-0.00615057
-0.00617358
-0.00618911
-0.0061981
-0.00620091
-0.00619753
-0.0061877
-0.00616783
-0.00613
0.000513622
0.000448835
0.000401785
0.000361725
0.000323916
0.000287683
0.00025193
0.000215339
0.000176715
0.000134969
8.90801e-05
3.80599e-05
-1.9084e-05
-8.33848e-05
-0.000155958
-0.000238033
-0.000330976
-0.000436295
-0.000555636
-0.000690767
-0.00084353
-0.0010158
-0.00120941
-0.00142608
-0.00166732
-0.00193439
-0.00222814
-0.00254896
-0.00289675
-0.00327078
-0.0036697
-0.00409153
-0.00453359
-0.0049926
-0.00546467
-0.00594536
-0.00642975
-0.00691256
-0.00738822
-0.00785095
-0.00829494
-0.0087144
-0.00910372
-0.00945754
-0.00977091
-0.0100393
-0.0102589
-0.0104263
-0.0105391
-0.0105954
-0.0105945
-0.0105363
-0.0104218
-0.0102529
-0.0100323
-0.00976367
-0.00945178
-0.0091021
-0.00872095
-0.00831537
-0.00789301
-0.00746202
-0.00703085
-0.00660806
-0.00620212
-0.00582113
-0.0054726
-0.00516316
-0.0048983
-0.00468216
-0.00451731
-0.00440468
-0.00434344
-0.00433111
-0.00436363
-0.00443564
-0.00454074
-0.00467186
-0.00482163
-0.00498278
-0.0051485
-0.00531271
-0.00547028
-0.00561722
-0.00575063
-0.00586878
-0.00597092
-0.00605719
-0.00612841
-0.00618591
-0.00623128
-0.00626625
-0.0062924
-0.00631109
-0.00632327
-0.00632936
-0.00632941
-0.00632323
-0.00630775
-0.00627624
0.000563405
0.000487815
0.000434461
0.000390336
0.000349537
0.00031104
0.000273372
0.000234849
0.000193966
0.000149365
9.97745e-05
4.39685e-05
-1.92915e-05
-9.13049e-05
-0.000173479
-0.000267363
-0.000374668
-0.00049728
-0.000637235
-0.000796695
-0.000977893
-0.00118307
-0.00141439
-0.00167384
-0.00196316
-0.00228371
-0.00263639
-0.00302156
-0.00343891
-0.0038875
-0.00436563
-0.00487086
-0.00540002
-0.00594924
-0.006514
-0.00708916
-0.00766911
-0.00824783
-0.00881899
-0.00937609
-0.0099126
-0.010422
-0.0108981
-0.0113347
-0.0117265
-0.0120682
-0.0123554
-0.0125843
-0.012752
-0.0128561
-0.0128951
-0.0128687
-0.0127773
-0.0126222
-0.0124057
-0.012131
-0.0118023
-0.0114247
-0.0110042
-0.0105477
-0.0100626
-0.00955727
-0.00904047
-0.00852135
-0.00800925
-0.00751343
-0.00704286
-0.00660592
-0.0062101
-0.00586171
-0.00556562
-0.00532506
-0.00514141
-0.00501419
-0.00494104
-0.00491792
-0.00493927
-0.00499842
-0.00508795
-0.0052001
-0.00532724
-0.0054622
-0.00559865
-0.00573127
-0.00585592
-0.00596965
-0.00607066
-0.00615817
-0.00623227
-0.00629369
-0.00634359
-0.00638335
-0.00641436
-0.00643785
-0.0064547
-0.00646533
-0.00646982
-0.00646798
-0.00645723
-0.00643193
0.00060493
0.000518133
0.000458335
0.000410103
0.000366259
0.000325363
0.000285521
0.000244636
0.000200856
0.000152526
9.80948e-05
3.60581e-05
-3.51095e-05
-0.000117017
-0.00021141
-0.000320214
-0.000445543
-0.000589707
-0.000755181
-0.000944564
-0.00116051
-0.00140564
-0.00168246
-0.00199322
-0.00233984
-0.00272377
-0.00314589
-0.00360642
-0.00410485
-0.00463986
-0.0052093
-0.00581021
-0.00643879
-0.00709047
-0.00775996
-0.00844136
-0.00912823
-0.00981371
-0.0104907
-0.0111519
-0.0117899
-0.0123977
-0.0129682
-0.0134948
-0.0139714
-0.0143924
-0.0147529
-0.0150486
-0.0152759
-0.0154323
-0.0155159
-0.0155255
-0.0154614
-0.0153243
-0.0151159
-0.014839
-0.0144971
-0.0140948
-0.0136376
-0.0131318
-0.0125849
-0.0120047
-0.0114003
-0.010781
-0.0101568
-0.00953786
-0.00893443
-0.00835653
-0.00781366
-0.00731442
-0.00686625
-0.00647502
-0.00614484
-0.00587781
-0.00567394
-0.00553112
-0.00544534
-0.00541084
-0.0054206
-0.00546668
-0.00554078
-0.00563471
-0.00574076
-0.00585215
-0.00596317
-0.00606939
-0.00616763
-0.00625589
-0.00633323
-0.00639954
-0.00645533
-0.00650148
-0.00653903
-0.00656895
-0.00659196
-0.00660841
-0.00661834
-0.00662153
-0.0066158
-0.00659645
0.000635332
0.000537013
0.000470675
0.000418312
0.000371358
0.000327895
0.000285551
0.00024178
0.000194349
0.000141266
8.06696e-05
1.07402e-05
-7.03784e-05
-0.000164658
-0.000274237
-0.000401468
-0.000548925
-0.000719394
-0.000915834
-0.00114131
-0.00139893
-0.00169171
-0.00202246
-0.0023937
-0.00280746
-0.00326524
-0.00376781
-0.00431518
-0.00490649
-0.00553996
-0.00621288
-0.00692159
-0.00766155
-0.00842734
-0.00921281
-0.0100111
-0.010815
-0.0116166
-0.0124079
-0.0131809
-0.0139275
-0.0146397
-0.0153101
-0.0159315
-0.0164972
-0.0170013
-0.0174384
-0.017804
-0.0180942
-0.018306
-0.0184372
-0.0184863
-0.0184531
-0.018338
-0.0181421
-0.0178674
-0.017517
-0.0170949
-0.0166058
-0.0160555
-0.0154508
-0.0147992
-0.0141094
-0.0133907
-0.0126532
-0.0119077
-0.0111654
-0.0104377
-0.00973587
-0.00907078
-0.00845246
-0.00788974
-0.00738983
-0.00695797
-0.00659721
-0.0063082
-0.00608919
-0.00593615
-0.00584307
-0.0058024
-0.00580552
-0.00584335
-0.00590687
-0.00598762
-0.00607812
-0.00617211
-0.00626467
-0.00635224
-0.00643251
-0.00650421
-0.00656696
-0.00662091
-0.00666655
-0.00670446
-0.00673509
-0.00675863
-0.00677498
-0.00678387
-0.00678341
-0.00676969
0.000651512
0.000541455
0.000468534
0.000412027
0.000361877
0.000315628
0.000270379
0.000223091
0.000171118
0.000112102
4.3827e-05
-3.58822e-05
-0.000129261
-0.000238692
-0.000366767
-0.000516323
-0.000690444
-0.000892444
-0.0011258
-0.00139409
-0.00170085
-0.0020495
-0.00244316
-0.00288452
-0.00337571
-0.00391815
-0.00451244
-0.00515824
-0.0058542
-0.00659795
-0.00738605
-0.008214
-0.00907635
-0.0099667
-0.0108779
-0.0118021
-0.0127309
-0.0136556
-0.0145674
-0.0154573
-0.0163165
-0.0171366
-0.0179094
-0.0186274
-0.0192836
-0.0198717
-0.0203863
-0.0208226
-0.0211765
-0.021445
-0.0216254
-0.0217157
-0.0217163
-0.0216266
-0.0214472
-0.0211797
-0.0208265
-0.0203907
-0.0198765
-0.0192888
-0.0186336
-0.0179177
-0.0171491
-0.0163366
-0.0154901
-0.0146205
-0.0137394
-0.0128591
-0.0119924
-0.0111519
-0.0103503
-0.00959923
-0.00890935
-0.00828947
-0.00774629
-0.007284
-0.00690404
-0.00660502
-0.00638289
-0.00623123
-0.00614171
-0.00610479
-0.00611027
-0.00614807
-0.00620868
-0.00628371
-0.00636613
-0.00645037
-0.00653237
-0.00660936
-0.00667968
-0.00674252
-0.00679761
-0.00684495
-0.0068846
-0.00691644
-0.00694019
-0.00695545
-0.0069605
-0.00695208
0.000650166
0.000528266
0.000448761
0.000388104
0.000334648
0.000285334
0.000236688
0.000185141
0.000127597
6.12956e-05
-1.63669e-05
-0.000107968
-0.000216175
-0.000343836
-0.000494052
-0.000670199
-0.000875926
-0.00111511
-0.00139179
-0.00171005
-0.00207387
-0.00248705
-0.00295294
-0.00347439
-0.00405349
-0.00469151
-0.0053887
-0.00614424
-0.00695616
-0.00782128
-0.00873527
-0.00969262
-0.0106868
-0.0117103
-0.0127547
-0.0138112
-0.0148703
-0.0159223
-0.0169575
-0.0179662
-0.0189389
-0.0198667
-0.0207411
-0.0215544
-0.0222993
-0.0229696
-0.0235597
-0.0240648
-0.0244809
-0.0248049
-0.0250341
-0.0251665
-0.0252024
-0.0251404
-0.024981
-0.0247252
-0.0243749
-0.0239326
-0.0234014
-0.0227855
-0.0220896
-0.0213199
-0.0204831
-0.0195872
-0.0186415
-0.0176563
-0.0166431
-0.0156144
-0.0145839
-0.0135657
-0.0125744
-0.0116243
-0.0107295
-0.00990251
-0.00915416
-0.0084929
-0.00792426
-0.00745058
-0.00707084
-0.00678081
-0.00657342
-0.00643931
-0.00636762
-0.00634674
-0.00636515
-0.00641204
-0.00647788
-0.00655467
-0.00663609
-0.00671743
-0.00679539
-0.00686784
-0.00693348
-0.00699152
-0.00704145
-0.00708274
-0.00711484
-0.00713714
-0.00714799
-0.0071446
0.000627811
0.000494085
0.000408047
0.000343232
0.000286326
0.000233603
0.000180974
0.000124303
6.00153e-05
-1.50882e-05
-0.000104042
-0.000209871
-0.000335724
-0.000484976
-0.000661287
-0.000868629
-0.00111126
-0.00139365
-0.00172042
-0.00209615
-0.00252527
-0.00301187
-0.00355952
-0.00417107
-0.00484849
-0.00559273
-0.00640356
-0.00727949
-0.0082177
-0.00921405
-0.0102631
-0.0113581
-0.0124913
-0.013654
-0.0148365
-0.0160287
-0.0172202
-0.0184002
-0.0195583
-0.020684
-0.0217676
-0.0227996
-0.0237716
-0.0246755
-0.0255044
-0.0262519
-0.0269128
-0.0274824
-0.0279569
-0.0283332
-0.0286092
-0.0287837
-0.0288536
-0.0288202
-0.0286832
-0.0284433
-0.0281015
-0.0276596
-0.0271201
-0.026486
-0.0257612
-0.0249503
-0.0240591
-0.0230943
-0.0220639
-0.0209773
-0.0198451
-0.0186795
-0.0174942
-0.016304
-0.0151247
-0.013973
-0.0128657
-0.0118189
-0.0108479
-0.00996571
-0.00918284
-0.00850637
-0.00793955
-0.00748166
-0.00712808
-0.00687075
-0.0066989
-0.00659994
-0.00656043
-0.00656709
-0.00660754
-0.00667087
-0.00674799
-0.00683173
-0.00691667
-0.00699895
-0.00707589
-0.00714568
-0.00720702
-0.00725886
-0.00730022
-0.00733021
-0.00734723
-0.00734876
0.000580843
0.000435436
0.000342964
0.00027398
0.000213436
0.00015689
9.95925e-05
3.68139e-05
-3.55338e-05
-0.000121121
-0.000223454
-0.000346055
-0.000492606
-0.00066706
-0.000873695
-0.00111712
-0.00140224
-0.00173414
-0.00211802
-0.00255895
-0.00306174
-0.00363073
-0.00426957
-0.00498102
-0.00576677
-0.00662728
-0.00756161
-0.00856742
-0.00964082
-0.0107765
-0.0119676
-0.0132062
-0.014483
-0.0157879
-0.01711
-0.018438
-0.0197604
-0.0210656
-0.0223425
-0.0235802
-0.0247685
-0.025898
-0.0269602
-0.0279473
-0.0288525
-0.0296699
-0.0303944
-0.031022
-0.031549
-0.0319727
-0.0322912
-0.0325033
-0.0326071
-0.0326024
-0.0324893
-0.0322681
-0.0319395
-0.0315047
-0.0309652
-0.0303233
-0.0295816
-0.0287436
-0.0278135
-0.0267968
-0.0256998
-0.0245303
-0.0232978
-0.0220132
-0.0206895
-0.0193411
-0.0179846
-0.0166376
-0.0153191
-0.0140485
-0.0128448
-0.0117261
-0.0107082
-0.00980371
-0.00902148
-0.00836566
-0.00783561
-0.00742601
-0.00712739
-0.00692705
-0.00681019
-0.00676116
-0.00676453
-0.0068061
-0.00687347
-0.00695638
-0.00704673
-0.00713843
-0.00722703
-0.00730935
-0.00738308
-0.00744644
-0.00749796
-0.00753633
-0.00756
-0.00756652
0.000505585
0.000348781
0.00025002
0.000176848
0.000112435
5.15749e-05
-1.11738e-05
-8.11632e-05
-0.000163022
-0.000260929
-0.0003789
-0.000521002
-0.000691505
-0.000894987
-0.00113639
-0.00142101
-0.0017544
-0.00214229
-0.00259042
-0.00310431
-0.0036891
-0.00434927
-0.00508841
-0.00590905
-0.0068124
-0.0077982
-0.00886463
-0.0100082
-0.0112238
-0.0125046
-0.0138425
-0.0152276
-0.0166495
-0.0180965
-0.0195563
-0.0210167
-0.022465
-0.0238892
-0.0252773
-0.0266185
-0.0279025
-0.0291199
-0.0302624
-0.0313228
-0.0322946
-0.0331724
-0.0339519
-0.0346292
-0.0352014
-0.0356662
-0.0360221
-0.0362677
-0.036402
-0.0364247
-0.0363356
-0.0361349
-0.035823
-0.0354005
-0.0348684
-0.034228
-0.0334811
-0.0326297
-0.0316767
-0.030626
-0.0294821
-0.0282512
-0.0269407
-0.02556
-0.0241203
-0.0226351
-0.0211201
-0.0195934
-0.0180749
-0.0165861
-0.0151494
-0.0137871
-0.0125205
-0.0113685
-0.0103461
-0.0094639
-0.00872685
-0.00813408
-0.00767909
-0.00735043
-0.0071329
-0.00700898
-0.00696031
-0.00696909
-0.00701909
-0.00709633
-0.0071894
-0.00728934
-0.00738945
-0.00748476
-0.00757167
-0.00764747
-0.00771003
-0.0077576
-0.00778833
-0.00780022
0.000398352
0.000230578
0.00012572
4.83307e-05
-2.0228e-05
-8.59673e-05
-0.000155045
-0.00023346
-0.000326406
-0.000438602
-0.000574618
-0.000739106
-0.000936973
-0.00117347
-0.00145425
-0.00178528
-0.00217283
-0.00262323
-0.00314272
-0.00373722
-0.00441207
-0.00517177
-0.00601972
-0.00695798
-0.00798709
-0.00910586
-0.0103113
-0.0115986
-0.0129611
-0.0143903
-0.0158765
-0.0174083
-0.0189734
-0.0205589
-0.0221513
-0.0237372
-0.0253034
-0.026837
-0.0283263
-0.02976
-0.0311281
-0.0324217
-0.033633
-0.0347551
-0.0357824
-0.0367102
-0.0375346
-0.0382527
-0.0388619
-0.0393606
-0.0397476
-0.0400219
-0.0401829
-0.0402304
-0.0401642
-0.0399844
-0.0396912
-0.0392849
-0.038766
-0.038135
-0.0373928
-0.0365404
-0.0355794
-0.0345119
-0.033341
-0.0320706
-0.0307062
-0.0292548
-0.0277257
-0.0261303
-0.0244827
-0.0228
-0.0211018
-0.0194105
-0.0177507
-0.0161481
-0.0146288
-0.0132177
-0.0119368
-0.010804
-0.0098314
-0.00902453
-0.00838181
-0.00789489
-0.00754968
-0.00732781
-0.00720847
-0.00717024
-0.00719267
-0.00725746
-0.00734913
-0.0074552
-0.00756603
-0.00767444
-0.00777511
-0.00786416
-0.00793863
-0.00799619
-0.00803473
-0.00805252
0.000255527
7.73561e-05
-3.33616e-05
-0.000115011
-0.000188039
-0.000259291
-0.000335663
-0.000423816
-0.000529533
-0.0006581
-0.00081468
-0.00100456
-0.00123331
-0.00150691
-0.00183172
-0.00221445
-0.00266201
-0.00318133
-0.00377909
-0.0044615
-0.00523398
-0.00610089
-0.00706524
-0.00812842
-0.00929003
-0.0105477
-0.0118971
-0.0133317
-0.0148432
-0.0164213
-0.0180545
-0.0197298
-0.0214332
-0.0231506
-0.0248672
-0.026569
-0.0282421
-0.0298735
-0.0314514
-0.0329648
-0.0344041
-0.035761
-0.0370283
-0.0382
-0.0392713
-0.0402381
-0.0410975
-0.041847
-0.042485
-0.0430102
-0.0434218
-0.0437195
-0.0439029
-0.0439719
-0.0439265
-0.0437669
-0.0434931
-0.0431052
-0.0426034
-0.0419876
-0.0412579
-0.0404147
-0.0394582
-0.0383892
-0.0372092
-0.0359201
-0.0345252
-0.0330292
-0.0314387