/*--------------------------------*- C++ -*----------------------------------*\
  =========                 |
  \\      /  F ield         | OpenFOAM: The Open Source CFD Toolbox
   \\    /   O peration     | Website:  https://openfoam.org
    \\  /    A nd           | Version:  9
     \\/     M anipulation  |
\*---------------------------------------------------------------------------*/
FoamFile
{
    format      ascii;
    class       surfaceScalarField;
    location    "1.75";
    object      phi;
}
// * * * * * * * * * * * * * * * * * * * * * * * * * * * * * * * * * * * * * //

dimensions      [0 3 -1 0 0 0 0];

internalField   nonuniform List<scalar> 
19800
(
1.21627e-10
-1.21781e-10
5.74757e-10
-4.53128e-10
1.21303e-09
-6.38278e-10
1.89523e-09
-6.82188e-10
2.5314e-09
-6.36176e-10
3.07001e-09
-5.38605e-10
3.48478e-09
-4.14772e-10
3.76516e-09
-2.80375e-10
3.90931e-09
-1.44148e-10
3.91949e-09
-1.01765e-11
3.79888e-09
1.20611e-10
3.54988e-09
2.48998e-10
3.17307e-09
3.76805e-10
2.6668e-09
5.0628e-10
2.02708e-09
6.39725e-10
1.24783e-09
7.79253e-10
3.21157e-10
9.26671e-10
-7.62269e-10
1.08342e-09
-2.01286e-09
1.25059e-09
-3.44176e-09
1.4289e-09
-5.06051e-09
1.61876e-09
-6.88079e-09
1.82028e-09
-8.9141e-09
2.0333e-09
-1.11715e-08
2.25736e-09
-1.36631e-08
2.49167e-09
-1.63982e-08
2.7351e-09
-1.93843e-08
2.98612e-09
-2.26271e-08
3.24273e-09
-2.61295e-08
3.50246e-09
-2.98918e-08
3.76227e-09
-3.39104e-08
4.0186e-09
-3.81777e-08
4.26728e-09
-4.26813e-08
4.50361e-09
-4.74036e-08
4.72234e-09
-5.23214e-08
4.91776e-09
-5.74051e-08
5.08374e-09
-6.2619e-08
5.21389e-09
-6.79206e-08
5.3016e-09
-7.32609e-08
5.34027e-09
-7.85843e-08
5.32342e-09
-8.38292e-08
5.24491e-09
-8.89283e-08
5.09909e-09
-9.38094e-08
4.88108e-09
-9.83963e-08
4.58691e-09
-1.0261e-07
4.2138e-09
-1.0637e-07
3.76033e-09
-1.09597e-07
3.22661e-09
-1.12212e-07
2.6145e-09
-1.14139e-07
1.92783e-09
-1.15312e-07
1.17278e-09
-1.15671e-07
3.58656e-10
-1.15158e-07
-5.12676e-10
-1.13738e-07
-1.42001e-09
-1.11384e-07
-2.35391e-09
-1.08085e-07
-3.2987e-09
-1.03848e-07
-4.23778e-09
-9.86942e-08
-5.15351e-09
-9.26666e-08
-6.02764e-09
-8.58248e-08
-6.84177e-09
-7.82469e-08
-7.57792e-09
-7.00278e-08
-8.21906e-09
-6.12781e-08
-8.74976e-09
-5.21213e-08
-9.15672e-09
-4.2692e-08
-9.42935e-09
-3.31317e-08
-9.56028e-09
-2.3586e-08
-9.54568e-09
-1.42004e-08
-9.3856e-09
-5.11636e-09
-9.08407e-09
3.53278e-09
-8.64914e-09
1.16253e-08
-8.09248e-09
1.90539e-08
-7.42868e-09
2.57297e-08
-6.67575e-09
3.15831e-08
-5.85344e-09
3.65659e-08
-4.98281e-09
4.06514e-08
-4.08542e-09
4.38338e-08
-3.18244e-09
4.61277e-08
-2.29386e-09
4.75655e-08
-1.43784e-09
4.81956e-08
-6.30077e-10
4.8079e-08
1.16594e-10
4.72865e-08
7.9245e-10
4.58954e-08
1.39112e-09
4.39862e-08
1.9092e-09
4.16399e-08
2.34628e-09
3.89354e-08
2.70454e-09
3.59472e-08
2.98822e-09
3.27442e-08
3.20301e-09
2.93888e-08
3.35539e-09
2.59371e-08
3.45171e-09
2.24398e-08
3.49722e-09
1.89449e-08
3.49491e-09
1.55008e-08
3.44411e-09
1.21618e-08
3.33902e-09
8.99476e-09
3.16706e-09
6.08727e-09
2.90749e-09
3.55589e-09
2.53138e-09
1.54963e-09
2.00626e-09
2.38635e-10
1.311e-09
-2.4467e-10
4.83303e-10
-2.44672e-10
4.57766e-10
-5.79549e-10
1.48509e-09
-1.48045e-09
2.78829e-09
-1.94148e-09
4.1327e-09
-2.0266e-09
5.34677e-09
-1.85024e-09
6.3175e-09
-1.50933e-09
6.97755e-09
-1.07483e-09
7.29137e-09
-5.94198e-10
7.24295e-09
-9.57279e-11
6.82753e-09
4.05246e-10
6.04342e-09
9.04721e-10
4.88886e-09
1.40356e-09
3.35886e-09
1.9068e-09
1.44394e-09
2.4212e-09
-8.70274e-10
2.95394e-09
-3.60278e-09
3.51176e-09
-6.77657e-09
4.10046e-09
-1.04178e-08
4.72464e-09
-1.45548e-08
5.38759e-09
-1.92172e-08
6.09132e-09
-2.44351e-08
6.83658e-09
-3.02377e-08
7.62294e-09
-3.66531e-08
8.44874e-09
-4.37069e-08
9.31111e-09
-5.14211e-08
1.02059e-08
-5.98133e-08
1.11274e-08
-6.88956e-08
1.20684e-08
-7.86729e-08
1.302e-08
-8.9142e-08
1.39715e-08
-1.0029e-07
1.49102e-08
-1.12093e-07
1.58215e-08
-1.24514e-07
1.66888e-08
-1.37505e-07
1.7494e-08
-1.51e-07
1.82172e-08
-1.64919e-07
1.88372e-08
-1.79167e-07
1.9332e-08
-1.93632e-07
1.9679e-08
-2.08186e-07
1.98556e-08
-2.22686e-07
1.98399e-08
-2.36974e-07
1.96111e-08
-2.50879e-07
1.91502e-08
-2.64221e-07
1.84409e-08
-2.76809e-07
1.74699e-08
-2.88451e-07
1.62279e-08
-2.98947e-07
1.47102e-08
-3.08103e-07
1.29167e-08
-3.1573e-07
1.08531e-08
-3.21646e-07
8.53085e-09
-3.25686e-07
5.96764e-09
-3.277e-07
3.18672e-09
-3.27577e-07
2.36001e-10
-3.25195e-07
-2.89524e-09
-3.20494e-07
-6.12096e-09
-3.13439e-07
-9.4087e-09
-3.0403e-07
-1.27073e-08
-2.92306e-07
-1.59618e-08
-2.78344e-07
-1.91152e-08
-2.62263e-07
-2.21092e-08
-2.44219e-07
-2.48857e-08
-2.24408e-07
-2.73887e-08
-2.03062e-07
-2.95655e-08
-1.80443e-07
-3.13686e-08
-1.56843e-07
-3.27572e-08
-1.32573e-07
-3.36988e-08
-1.07963e-07
-3.41706e-08
-8.33478e-08
-3.41606e-08
-5.90654e-08
-3.3668e-08
-3.54449e-08
-3.27045e-08
-1.28008e-08
-3.12933e-08
8.57589e-09
-2.94692e-08
2.84245e-08
-2.72773e-08
4.65201e-08
-2.47714e-08
6.26796e-08
-2.2013e-08
7.67651e-08
-1.90683e-08
8.86855e-08
-1.60059e-08
9.83976e-08
-1.28945e-08
1.05904e-07
-9.80057e-09
1.11252e-07
-6.78569e-09
1.14527e-07
-3.90489e-09
1.15849e-07
-1.20498e-09
1.15365e-07
1.27638e-09
1.13243e-07
3.51245e-09
1.09667e-07
5.48519e-09
1.04827e-07
7.18697e-09
9.89125e-08
8.61871e-09
9.21122e-08
9.78854e-09
8.46052e-08
1.07099e-08
7.65612e-08
1.13994e-08
6.81392e-08
1.18738e-08
5.94896e-08
1.21467e-08
5.07591e-08
1.22255e-08
4.20967e-08
1.21065e-08
3.36639e-08
1.17718e-08
2.56451e-08
1.11858e-08
1.82589e-08
1.02938e-08
1.17637e-08
9.02661e-09
6.45158e-09
7.31834e-09
2.61779e-09
5.14478e-09
4.946e-10
2.60649e-09
2.49929e-10
6.49916e-10
-1.22946e-09
1.95488e-09
-2.78541e-09
3.51367e-09
-3.50027e-09
5.03773e-09
-3.55065e-09
6.31714e-09
-3.12964e-09
7.20859e-09
-2.40078e-09
7.62116e-09
-1.48739e-09
7.50129e-09
-4.74329e-10
6.81999e-09
5.85574e-10
5.56089e-09
1.66434e-09
3.7136e-09
2.752e-09
1.26695e-09
3.85021e-09
-1.79415e-09
4.96791e-09
-5.49056e-09
6.11762e-09
-9.84947e-09
7.31284e-09
-1.4904e-08
8.56632e-09
-2.06925e-08
9.8889e-09
-2.72568e-08
1.1289e-08
-3.46416e-08
1.27723e-08
-4.28919e-08
1.43417e-08
-5.20527e-08
1.59973e-08
-6.21662e-08
1.77365e-08
-7.32714e-08
1.95539e-08
-8.54017e-08
2.14414e-08
-9.85834e-08
2.33876e-08
-1.12834e-07
2.5378e-08
-1.28161e-07
2.73948e-08
-1.44557e-07
2.94162e-08
-1.62002e-07
3.14167e-08
-1.80459e-07
3.3367e-08
-1.99871e-07
3.52338e-08
-2.20163e-07
3.69804e-08
-2.41236e-07
3.85668e-08
-2.62969e-07
3.99504e-08
-2.85218e-07
4.10867e-08
-3.07817e-07
4.19303e-08
-3.30573e-07
4.24358e-08
-3.53277e-07
4.25589e-08
-3.75695e-07
4.22578e-08
-3.97578e-07
4.14943e-08
-4.18663e-07
4.02351e-08
-4.38675e-07
3.84534e-08
-4.57335e-07
3.61296e-08
-4.7436e-07
3.32526e-08
-4.8947e-07
2.9821e-08
-5.02397e-07
2.58435e-08
-5.12884e-07
2.13398e-08
-5.20694e-07
1.63409e-08
-5.25616e-07
1.08896e-08
-5.2747e-07
5.04076e-09
-5.26102e-07
-1.13175e-09
-5.2141e-07
-7.58783e-09
-5.13324e-07
-1.42066e-08
-5.01826e-07
-2.09065e-08
-4.86945e-07
-2.75882e-08
-4.6876e-07
-3.4147e-08
-4.474e-07
-4.04748e-08
-4.23047e-07
-4.64626e-08
-3.9593e-07
-5.20027e-08
-3.66327e-07
-5.69915e-08
-3.3456e-07
-6.13324e-08
-3.00991e-07
-6.4938e-08
-2.66015e-07
-6.77336e-08
-2.30054e-07
-6.96589e-08
-1.93554e-07
-7.06712e-08
-1.56968e-07
-7.07467e-08
-1.20753e-07
-6.98824e-08
-8.53613e-08
-6.80966e-08
-5.12251e-08
-6.54295e-08
-1.87524e-08
-6.19418e-08
1.16846e-08
-5.77142e-08
3.97575e-08
-5.28443e-08
6.51883e-08
-4.74437e-08
8.77555e-08
-4.16355e-08
1.07298e-07
-3.55486e-08
1.23718e-07
-2.93142e-08
1.36978e-07
-2.3061e-08
1.47104e-07
-1.69113e-08
1.54176e-07
-1.09766e-08
1.58325e-07
-5.35444e-09
1.59729e-07
-1.27526e-10
1.58597e-07
4.64425e-09
1.55169e-07
8.91334e-09
1.49701e-07
1.26549e-08
1.4246e-07
1.586e-08
1.33714e-07
1.85343e-08
1.23729e-07
2.06948e-08
1.12763e-07
2.23655e-08
1.01065e-07
2.35723e-08
8.88746e-08
2.43366e-08
7.64309e-08
2.46692e-08
6.39746e-08
2.45627e-08
5.17606e-08
2.39859e-08
4.00676e-08
2.28788e-08
2.9208e-08
2.11533e-08
1.95314e-08
1.87032e-08
1.14167e-08
1.5433e-08
5.24686e-09
1.13146e-08
1.35854e-09
6.49481e-09
1.60847e-09
6.93176e-10
-1.92264e-09
2.01472e-09
-4.10695e-09
3.4953e-09
-4.98085e-09
4.81365e-09
-4.869e-09
5.7429e-09
-4.0589e-09
6.12823e-09
-2.78611e-09
5.86869e-09
-1.22784e-09
4.90108e-09
4.93272e-10
3.18612e-09
2.30054e-09
6.97413e-10
4.15305e-09
-2.58676e-09
6.03617e-09
-6.68957e-09
7.95303e-09
-1.16392e-08
9.91749e-09
-1.74704e-08
1.19488e-08
-2.42253e-08
1.40677e-08
-3.19524e-08
1.62934e-08
-4.07056e-08
1.86421e-08
-5.05421e-08
2.11255e-08
-6.15209e-08
2.37511e-08
-7.37006e-08
2.65214e-08
-8.7137e-08
2.94337e-08
-1.01881e-07
3.24809e-08
-1.17978e-07
3.56505e-08
-1.35462e-07
3.89252e-08
-1.54356e-07
4.22819e-08
-1.7467e-07
4.56922e-08
-1.96397e-07
4.91212e-08
-2.19509e-07
5.25283e-08
-2.43958e-07
5.58661e-08
-2.69672e-07
5.90813e-08
-2.96553e-07
6.21147e-08
-3.24474e-07
6.49018e-08
-3.53282e-07
6.7374e-08
-3.82791e-07
6.94595e-08
-4.12789e-07
7.10848e-08
-4.43035e-07
7.21765e-08
-4.73262e-07
7.2663e-08
-5.0318e-07
7.24764e-08
-5.32477e-07
7.15548e-08
-5.60826e-07
6.98438e-08
-5.8789e-07
6.72989e-08
-6.13324e-07
6.38871e-08
-6.36782e-07
5.95884e-08
-6.57927e-07
5.43973e-08
-6.7643e-07
4.83237e-08
-6.9198e-07
4.1394e-08
-7.04292e-07
3.36511e-08
-7.13106e-07
2.5155e-08
-7.18199e-07
1.59827e-08
-7.19388e-07
6.22989e-09
-7.1652e-07
-3.9996e-09
-7.09512e-07
-1.45963e-08
-6.98311e-07
-2.5407e-08
-6.82925e-07
-3.62924e-08
-6.63414e-07
-4.70998e-08
-6.39891e-07
-5.76696e-08
-6.12527e-07
-6.78389e-08
-5.81546e-07
-7.74441e-08
-5.47224e-07
-8.63248e-08
-5.09888e-07
-9.43268e-08
-4.69914e-07
-1.01306e-07
-4.27719e-07
-1.07133e-07
-3.83758e-07
-1.11695e-07
-3.38517e-07
-1.149e-07
-2.92505e-07
-1.16683e-07
-2.46247e-07
-1.17005e-07
-2.00274e-07
-1.15855e-07
-1.55114e-07
-1.13257e-07
-1.11281e-07
-1.09263e-07
-6.92632e-08
-1.03959e-07
-2.95176e-08
-9.74598e-08
7.54447e-09
-8.99064e-08
4.15643e-08
-8.14635e-08
7.22415e-08
-7.23126e-08
9.93424e-08
-6.26495e-08
1.22703e-07
-5.26746e-08
1.4223e-07
-4.25881e-08
1.57902e-07
-3.25834e-08
1.69766e-07
-2.28409e-08
1.77934e-07
-1.35223e-08
1.82574e-07
-4.76676e-09
1.83904e-07
3.31355e-09
1.82184e-07
1.06333e-08
1.77704e-07
1.71355e-08
1.70774e-07
2.27899e-08
1.61718e-07
2.759e-08
1.50865e-07
3.15479e-08
1.38542e-07
3.46886e-08
1.25072e-07
3.70422e-08
1.10774e-07
3.86345e-08
9.59654e-08
3.94779e-08
8.09672e-08
3.95609e-08
6.61131e-08
3.884e-08
5.1758e-08
3.72338e-08
3.82869e-08
3.46245e-08
2.61188e-08
3.08713e-08
1.5707e-08
2.58448e-08
7.53262e-09
1.9489e-08
2.10183e-09
1.19256e-08
3.71029e-09
6.28256e-10
-2.5509e-09
1.74538e-09
-5.22407e-09
2.86066e-09
-6.09613e-09
3.64349e-09
-5.65183e-09
3.86636e-09
-4.28177e-09
3.37587e-09
-2.29562e-09
2.07089e-09
7.71393e-11
-1.14785e-10
2.67895e-09
-3.22672e-09
5.41246e-09
-7.30042e-09
8.22675e-09
-1.23693e-08
1.1105e-08
-1.847e-08
1.40538e-08
-2.56458e-08
1.70932e-08
-3.39473e-08
2.02504e-08
-4.34331e-08
2.35535e-08
-5.4168e-08
2.70283e-08
-6.62215e-08
3.06956e-08
-7.96656e-08
3.45697e-08
-9.45722e-08
3.86577e-08
-1.1101e-07
4.29595e-08
-1.29044e-07
4.74671e-08
-1.48728e-07
5.2165e-08
-1.70107e-07
5.70295e-08
-1.93211e-07
6.20293e-08
-2.18053e-07
6.71241e-08
-2.44626e-07
7.22653e-08
-2.729e-07
7.73949e-08
-3.02818e-07
8.2446e-08
-3.34294e-07
8.73427e-08
-3.67214e-07
9.20005e-08
-4.01426e-07
9.63275e-08
-4.3675e-07
1.00226e-07
-4.72968e-07
1.03592e-07
-5.0983e-07
1.06321e-07
-5.47054e-07
1.08309e-07
-5.84328e-07
1.09451e-07
-6.21316e-07
1.0965e-07
-6.57657e-07
1.08818e-07
-6.92976e-07
1.06874e-07
-7.26887e-07
1.03755e-07
-7.58997e-07
9.94092e-08
-7.88917e-07
9.38063e-08
-8.16262e-07
8.69338e-08
-8.40665e-07
7.88001e-08
-8.61776e-07
6.94352e-08
-8.79274e-07
5.88912e-08
-8.92865e-07
4.72422e-08
-9.02294e-07
3.4584e-08
-9.07345e-07
2.10336e-08
-9.07847e-07
6.73212e-09
-9.03667e-07
-8.1794e-09
-8.94736e-07
-2.35273e-08
-8.81026e-07
-3.91167e-08
-8.62566e-07
-5.47531e-08
-8.39436e-07
-7.02297e-08
-8.11773e-07
-8.53323e-08
-7.79769e-07
-9.98433e-08
-7.43667e-07
-1.13545e-07
-7.03768e-07
-1.26224e-07
-6.60419e-07
-1.37676e-07
-6.14018e-07
-1.47707e-07
-5.65007e-07
-1.56144e-07
-5.13869e-07
-1.62833e-07
-4.61121e-07
-1.67649e-07
-4.07308e-07
-1.70497e-07
-3.52994e-07
-1.71318e-07
-2.98759e-07
-1.70091e-07
-2.4518e-07
-1.66836e-07
-1.92828e-07
-1.61614e-07
-1.42257e-07
-1.5453e-07
-9.39895e-08
-1.45727e-07
-4.85091e-08
-1.35387e-07
-6.24965e-09
-1.23723e-07
3.24151e-08
-1.10977e-07
6.71758e-08
-9.74102e-08
9.77961e-08
-8.32949e-08
1.24116e-07
-6.89079e-08
1.46053e-07
-5.45204e-08
1.63602e-07
-4.03897e-08
1.76831e-07
-2.67519e-08
1.85879e-07
-1.38148e-08
1.90947e-07
-1.75388e-09
1.92287e-07
9.29354e-09
1.90197e-07
1.92255e-08
1.85008e-07
2.79783e-08
1.77077e-07
3.55208e-08
1.66776e-07
4.18498e-08
1.54482e-07
4.69824e-08
1.40579e-07
5.09453e-08
1.25449e-07
5.37638e-08
1.09479e-07
5.54485e-08
9.30567e-08
5.59831e-08
7.65839e-08
5.53128e-08
6.04804e-08
5.33373e-08
4.51933e-08
4.99116e-08
3.12055e-08
4.4859e-08
1.90457e-08
3.80047e-08
9.30319e-09
2.92315e-08
2.6611e-09
1.85677e-08
6.37139e-09
4.84493e-10
-3.03539e-09
1.21528e-09
-5.95486e-09
1.71925e-09
-6.60009e-09
1.67989e-09
-5.61247e-09
8.84602e-10
-3.48648e-09
-8.07781e-10
-6.03242e-10
-3.49038e-09
2.75973e-09
-7.2273e-09
6.41587e-09
-1.2067e-08
1.02521e-08
-1.80526e-08
1.42124e-08
-2.52293e-08
1.82817e-08
-3.36481e-08
2.24725e-08
-4.33684e-08
2.68136e-08
-5.44585e-08
3.13404e-08
-6.69941e-08
3.60891e-08
-8.1057e-08
4.10913e-08
-9.67323e-08
4.63709e-08
-1.14105e-07
5.19428e-08
-1.33259e-07
5.78115e-08
-1.54271e-07
6.39708e-08
-1.77207e-07
7.04035e-08
-2.02123e-07
7.70812e-08
-2.29058e-07
8.39641e-08
-2.58029e-07
9.1001e-08
-2.89034e-07
9.81284e-08
-3.22039e-07
1.05271e-07
-3.56984e-07
1.1234e-07
-3.93774e-07
1.19236e-07
-4.3228e-07
1.25848e-07
-4.72334e-07
1.32054e-07
-5.1373e-07
1.37724e-07
-5.56227e-07
1.42722e-07
-5.99544e-07
1.46908e-07
-6.43365e-07
1.50142e-07
-6.87343e-07
1.52287e-07
-7.31105e-07
1.53213e-07
-7.74254e-07
1.52799e-07
-8.16377e-07
1.5094e-07
-8.5705e-07
1.47548e-07
-8.95848e-07
1.42552e-07
-9.32346e-07
1.35908e-07
-9.66132e-07
1.27592e-07
-9.96807e-07
1.17609e-07
-1.024e-06
1.05989e-07
-1.04735e-06
9.279e-08
-1.06655e-06
7.80946e-08
-1.08133e-06
6.20129e-08
-1.09142e-06
4.46797e-08
-1.09664e-06
2.6254e-08
-1.09683e-06
6.92348e-09
-1.09188e-06
-1.31337e-08
-1.08172e-06
-3.36846e-08
-1.06635e-06
-5.44912e-08
-1.04579e-06
-7.5308e-08
-1.02014e-06
-9.58768e-08
-9.89545e-07
-1.15932e-07
-9.54186e-07
-1.35202e-07
-9.14312e-07
-1.53419e-07
-8.7022e-07
-1.70316e-07
-8.22259e-07
-1.85638e-07
-7.70825e-07
-1.99141e-07
-7.16365e-07
-2.10604e-07
-6.59367e-07
-2.1983e-07
-6.00361e-07
-2.26655e-07
-5.39908e-07
-2.30949e-07
-4.786e-07
-2.32626e-07
-4.17044e-07
-2.31647e-07
-3.55859e-07
-2.28021e-07
-2.95663e-07
-2.2181e-07
-2.37065e-07
-2.13129e-07
-1.80648e-07
-2.02144e-07
-1.26964e-07
-1.89071e-07
-7.65177e-08
-1.74169e-07
-2.97608e-08
-1.57734e-07
1.2922e-08
-1.40093e-07
5.1218e-08
-1.21591e-07
8.48922e-08
-1.02582e-07
1.13792e-07
-8.34206e-08
1.37849e-07
-6.44467e-08
1.57076e-07
-4.59788e-08
1.71565e-07
-2.83036e-08
1.8148e-07
-1.16692e-08
1.87054e-07
3.72006e-09
1.88572e-07
1.77076e-08
1.86368e-07
3.01819e-08
1.80814e-07
4.10753e-08
1.72306e-07
5.03577e-08
1.61261e-07
5.80275e-08
1.48106e-07
6.40997e-08
1.33278e-07
6.85921e-08
1.17217e-07
7.15095e-08
1.00372e-07
7.28281e-08
8.32031e-08
7.24817e-08
6.61884e-08
7.03519e-08
4.98338e-08
6.62662e-08
3.46852e-08
6.00077e-08
2.1348e-08
5.13419e-08
1.05178e-08
4.00617e-08
3.0341e-09
2.60514e-08
9.40548e-09
2.80348e-10
-3.31574e-09
4.73894e-10
-6.14841e-09
1.54264e-10
-6.28046e-09
-9.58191e-10
-4.50001e-09
-3.04775e-09
-1.39692e-09
-6.23276e-09
2.58177e-09
-1.05916e-08
7.11861e-09
-1.61812e-08
1.20055e-08
-2.30503e-08
1.71212e-08
-3.12485e-08
2.24107e-08
-4.08325e-08
2.78657e-08
-5.18684e-08
3.35084e-08
-6.44329e-08
3.93781e-08
-7.86123e-08
4.55199e-08
-9.45006e-08
5.19774e-08
-1.12196e-07
5.87868e-08
-1.31799e-07
6.59736e-08
-1.53406e-07
7.35501e-08
-1.77109e-07
8.15148e-08
-2.0299e-07
8.98512e-08
-2.31114e-07
9.8528e-08
-2.61532e-07
1.07499e-07
-2.94269e-07
1.16702e-07
-3.29328e-07
1.26059e-07
-3.66677e-07
1.35478e-07
-4.06254e-07
1.44848e-07
-4.4796e-07
1.54046e-07
-4.91656e-07
1.62931e-07
-5.3716e-07
1.71352e-07
-5.84251e-07
1.79145e-07
-6.32665e-07
1.86139e-07
-6.82099e-07
1.92156e-07
-7.32211e-07
1.9702e-07
-7.82627e-07
2.00558e-07
-8.32945e-07
2.02605e-07
-8.82739e-07
2.03007e-07
-9.31569e-07
2.01629e-07
-9.78986e-07
1.98357e-07
-1.02454e-06
1.93099e-07
-1.06778e-06
1.85792e-07
-1.10827e-06
1.76401e-07
-1.1456e-06
1.64922e-07
-1.17937e-06
1.51382e-07
-1.20922e-06
1.35838e-07
-1.23481e-06
1.18379e-07
-1.25584e-06
9.91215e-08
-1.27204e-06
7.8213e-08
-1.28319e-06
5.58265e-08
-1.28909e-06
3.21608e-08
-1.28962e-06
7.44697e-09
-1.28465e-06
-1.81016e-08
-1.27413e-06
-4.42005e-08
-1.25805e-06
-7.05706e-08
-1.23644e-06
-9.69207e-08
-1.20937e-06
-1.22945e-07
-1.17697e-06
-1.4833e-07
-1.13942e-06
-1.72756e-07
-1.09694e-06
-1.95901e-07
-1.0498e-06
-2.17449e-07
-9.98351e-07
-2.37091e-07
-9.4296e-07
-2.54532e-07
-8.84063e-07
-2.69501e-07
-8.22144e-07
-2.81749e-07
-7.57731e-07
-2.91068e-07
-6.91395e-07
-2.97285e-07
-6.23741e-07
-3.00281e-07
-5.55403e-07
-2.99985e-07
-4.87034e-07
-2.96389e-07
-4.19297e-07
-2.89546e-07
-3.52853e-07
-2.79573e-07
-2.88348e-07
-2.66649e-07
-2.26402e-07
-2.51017e-07
-1.67595e-07
-2.32976e-07
-1.12455e-07
-2.12874e-07
-6.14507e-08
-1.91098e-07
-1.49751e-08
-1.68066e-07
2.66569e-08
-1.44214e-07
6.32162e-08
-1.1998e-07
9.4562e-08
-9.57925e-08
1.20643e-07
-7.20602e-08
1.41497e-07
-4.91568e-08
1.57241e-07
-2.74136e-08
1.68073e-07
-7.11172e-09
1.74258e-07
1.15225e-08
1.76117e-07
2.83224e-08
1.74025e-07
4.31676e-08
1.68392e-07
5.59904e-08
1.5966e-07
6.676e-08
1.48289e-07
7.54701e-08
1.34758e-07
8.21231e-08
1.19556e-07
8.67122e-08
1.03181e-07
8.92028e-08
8.61476e-08
8.9515e-08
6.89885e-08
8.7511e-08
5.22663e-08
8.29884e-08
3.65893e-08
7.56847e-08
2.2637e-08
6.52942e-08
1.11994e-08
5.14993e-08
3.23762e-09
3.40132e-08
1.26431e-08
2.79963e-11
-3.34373e-09
-4.44377e-10
-5.67603e-09
-1.77219e-09
-4.95265e-09
-4.18153e-09
-2.09067e-09
-7.81248e-09
2.23403e-09
-1.27517e-08
7.52094e-09
-1.90562e-08
1.34232e-08
-2.67719e-08
1.97212e-08
-3.59456e-08
2.62949e-08
-4.66326e-08
3.30976e-08
-5.89008e-08
4.01339e-08
-7.28322e-08
4.74397e-08
-8.85211e-08
5.5067e-08
-1.06073e-07
6.30714e-08
-1.25599e-07
7.15033e-08
-1.47214e-07
8.04019e-08
-1.71031e-07
8.9791e-08
-1.97158e-07
9.96772e-08
-2.25692e-07
1.10048e-07
-2.56713e-07
1.20872e-07
-2.90284e-07
1.32099e-07
-3.26442e-07
1.43657e-07
-3.65196e-07
1.55456e-07
-4.06522e-07
1.67385e-07
-4.5036e-07
1.79315e-07
-4.96607e-07
1.91096e-07
-5.45121e-07
2.0256e-07
-5.95713e-07
2.13523e-07
-6.48148e-07
2.23788e-07
-7.02149e-07
2.33146e-07
-7.57394e-07
2.41383e-07
-8.13522e-07
2.48285e-07
-8.7014e-07
2.53638e-07
-9.26824e-07
2.57242e-07
-9.83127e-07
2.58908e-07
-1.03859e-06
2.58469e-07
-1.09274e-06
2.55782e-07
-1.14511e-06
2.50731e-07
-1.19525e-06
2.43234e-07
-1.2427e-06
2.33238e-07
-1.28702e-06
2.20729e-07
-1.32783e-06
2.05725e-07
-1.36472e-06
1.88279e-07
-1.39736e-06
1.6848e-07
-1.42543e-06
1.46447e-07
-1.44864e-06
1.22331e-07
-1.46674e-06
9.63138e-08
-1.47952e-06
6.8602e-08
-1.48679e-06
3.94303e-08
-1.48841e-06
9.06628e-09
-1.48427e-06
-2.22414e-08
-1.4743e-06
-5.41692e-08
-1.45847e-06
-8.63996e-08
-1.43679e-06
-1.18601e-07
-1.40931e-06
-1.50424e-07
-1.37613e-06
-1.81512e-07
-1.33739e-06
-2.11496e-07
-1.29329e-06
-2.40006e-07
-1.24406e-06
-2.66673e-07
-1.19002e-06
-2.91135e-07
-1.13151e-06
-3.13042e-07
-1.06894e-06
-3.32064e-07
-1.00279e-06
-3.47902e-07
-9.33571e-07
-3.60289e-07
-8.61851e-07
-3.69005e-07
-7.8825e-07
-3.73882e-07
-7.13422e-07
-3.74813e-07
-6.38053e-07
-3.71758e-07
-5.62851e-07
-3.64748e-07
-4.88531e-07
-3.53893e-07
-4.15803e-07
-3.39377e-07
-3.4536e-07
-3.2146e-07
-2.77863e-07
-3.00474e-07
-2.13925e-07
-2.76812e-07
-1.54101e-07
-2.50922e-07
-9.88728e-08
-2.23294e-07
-4.86434e-08
-1.94444e-07
-3.72467e-09
-1.64899e-07
3.56656e-08
-1.35183e-07
6.94048e-08
-1.05799e-07
9.7467e-08
-7.72191e-08
1.19919e-07
-4.9866e-08
1.36915e-07
-2.41075e-08
1.48695e-07
-2.57804e-10
1.55555e-07
2.14628e-08
1.57866e-07
4.08563e-08
1.56045e-07
5.78121e-08
1.50547e-07
7.2258e-08
1.4186e-07
8.41568e-08
1.30496e-07
9.34873e-08
1.16984e-07
1.00225e-07
1.01869e-07
1.04318e-07
8.57135e-08
1.0567e-07
6.91031e-08
1.04121e-07
5.26552e-08
9.94363e-08
3.70379e-08
9.13019e-08
2.29981e-08
7.9334e-08
1.14021e-08
6.30953e-08
3.29469e-09
4.21206e-08
1.59378e-08
-2.68808e-10
-3.07493e-09
-1.51925e-09
-4.42559e-09
-4.02e-09
-2.45189e-09
-7.92537e-09
1.8147e-09
-1.33199e-08
7.62856e-09
-2.02491e-08
1.44502e-08
-2.87431e-08
2.19171e-08
-3.88329e-08
2.98111e-08
-5.05618e-08
3.80237e-08
-6.399e-08
4.65259e-08
-7.91973e-08
5.53412e-08
-9.62813e-08
6.45237e-08
-1.15355e-07
7.41405e-08
-1.36541e-07
8.4258e-08
-1.59971e-07
9.49323e-08
-1.85772e-07
1.06203e-07
-2.14069e-07
1.18089e-07
-2.44978e-07
1.30586e-07
-2.78596e-07
1.43666e-07
-3.15e-07
1.57276e-07
-3.54241e-07
1.71341e-07
-3.96341e-07
1.85757e-07
-4.41284e-07
2.00399e-07
-4.89015e-07
2.15117e-07
-5.39437e-07
2.29736e-07
-5.92404e-07
2.44063e-07
-6.47724e-07
2.5788e-07
-7.05158e-07
2.70957e-07
-7.64417e-07
2.83047e-07
-8.25169e-07
2.93898e-07
-8.87039e-07
3.03254e-07
-9.49619e-07
3.10864e-07
-1.01247e-06
3.16489e-07
-1.07513e-06
3.19902e-07
-1.13713e-06
3.20903e-07
-1.19797e-06
3.19319e-07
-1.2572e-06
3.15005e-07
-1.31432e-06
3.07857e-07
-1.36889e-06
2.97803e-07
-1.42047e-06
2.84814e-07
-1.46864e-06
2.68895e-07
-1.513e-06
2.50092e-07
-1.55321e-06
2.28487e-07
-1.58893e-06
2.04197e-07
-1.61985e-06
1.7737e-07
-1.64571e-06
1.48189e-07
-1.66626e-06
1.16863e-07
-1.68128e-06
8.36293e-08
-1.69061e-06
4.87525e-08
-1.69407e-06
1.25279e-08
-1.69155e-06
-2.47593e-08
-1.68296e-06
-6.27604e-08
-1.66824e-06
-1.01121e-07
-1.64736e-06
-1.39475e-07
-1.62035e-06
-1.77434e-07
-1.58727e-06
-2.146e-07
-1.5482e-06
-2.50559e-07
-1.50331e-06
-2.84894e-07
-1.4528e-06
-3.17183e-07
-1.39693e-06
-3.47008e-07
-1.33601e-06
-3.73961e-07
-1.27042e-06
-3.97652e-07
-1.20061e-06
-4.17717e-07
-1.12707e-06
-4.3383e-07
-1.05037e-06
-4.45708e-07
-9.71119e-07
-4.53128e-07
-8.90003e-07
-4.55929e-07
-8.07732e-07
-4.54029e-07
-7.25055e-07
-4.47425e-07
-6.42744e-07
-4.36204e-07
-5.61578e-07
-4.20544e-07
-4.82327e-07
-4.00711e-07
-4.05739e-07
-3.77061e-07
-3.32522e-07
-3.50029e-07
-2.63327e-07
-3.20117e-07
-1.98735e-07
-2.87886e-07
-1.39243e-07
-2.53935e-07
-8.52568e-08
-2.18885e-07
-3.70807e-08
-1.83359e-07
5.08588e-09
-1.47966e-07
4.11485e-08
-1.13282e-07
7.11161e-08
-7.98337e-08
9.50977e-08
-4.8089e-08
1.13286e-07
-1.84464e-08
1.25975e-07
8.77449e-09
1.33511e-07
3.33203e-08
1.36312e-07
5.50109e-08
1.34845e-07
7.37245e-08
1.29619e-07
8.93827e-08
1.21174e-07
1.01933e-07
1.10075e-07
1.11324e-07
9.69083e-08
1.17484e-07
8.2284e-08
1.20294e-07
6.68362e-08
1.19569e-07
5.12354e-08
1.15037e-07
3.62057e-08
1.06332e-07
2.25512e-08
9.29885e-08
1.11949e-08
7.44515e-08
3.23001e-09
5.00856e-08
1.91678e-08
-6.039e-10
-2.47103e-09
-2.73601e-09
-2.29348e-09
-6.55908e-09
1.37118e-09
-1.21415e-08
7.39708e-09
-1.95007e-08
1.49878e-08
-2.86331e-08
2.35826e-08
-3.95364e-08
3.28205e-08
-5.22245e-08
4.24992e-08
-6.67355e-08
5.25347e-08
-8.31345e-08
6.29249e-08
-1.01513e-07
7.37198e-08
-1.21985e-07
8.49958e-08
-1.44682e-07
9.68372e-08
-1.69745e-07
1.09321e-07
-1.9732e-07
1.22507e-07
-2.27549e-07
1.36432e-07
-2.60566e-07
1.51106e-07
-2.96489e-07
1.66508e-07
-3.35412e-07
1.82589e-07
-3.77404e-07
1.99269e-07
-4.22501e-07
2.16437e-07
-4.70699e-07
2.33955e-07
-5.21955e-07
2.51654e-07
-5.76176e-07
2.69338e-07
-6.33223e-07
2.86783e-07
-6.92904e-07
3.03745e-07
-7.54978e-07
3.19955e-07
-8.19153e-07
3.35131e-07
-8.85088e-07
3.48982e-07
-9.52402e-07
3.61211e-07
-1.02068e-06
3.71527e-07
-1.08946e-06
3.79649e-07
-1.15828e-06
3.85313e-07
-1.22666e-06
3.88281e-07
-1.29411e-06
3.88348e-07
-1.36013e-06
3.8534e-07
-1.42425e-06
3.79126e-07
-1.486e-06
3.69612e-07
-1.54495e-06
3.56749e-07
-1.60066e-06
3.40528e-07
-1.65275e-06
3.20982e-07
-1.70084e-06
2.98183e-07
-1.74459e-06
2.72238e-07
-1.78369e-06
2.43291e-07
-1.81783e-06
2.11518e-07
-1.84677e-06
1.77125e-07
-1.87025e-06
1.40347e-07
-1.88807e-06
1.01445e-07
-1.90003e-06
6.07077e-08
-1.90595e-06
1.84513e-08
-1.9057e-06
-2.50043e-08
-1.89917e-06
-6.92947e-08
-1.88626e-06
-1.14033e-07
-1.86691e-06
-1.58821e-07
-1.84111e-06
-2.03239e-07
-1.80886e-06
-2.46849e-07
-1.77022e-06
-2.89199e-07
-1.72529e-06
-3.29822e-07
-1.67423e-06
-3.68246e-07
-1.61724e-06
-4.03997e-07
-1.55459e-06
-4.36608e-07
-1.48662e-06
-4.65623e-07
-1.41373e-06
-4.90609e-07
-1.33639e-06
-5.11171e-07
-1.25514e-06
-5.26954e-07
-1.1706e-06
-5.37665e-07
-1.08345e-06
-5.4308e-07
-9.94428e-07
-5.43055e-07
-9.04314e-07
-5.37539e-07
-8.13937e-07
-5.26581e-07
-7.24146e-07
-5.10335e-07
-6.35795e-07
-4.89063e-07
-5.49725e-07
-4.63131e-07
-4.66747e-07
-4.33006e-07
-3.87622e-07
-3.99242e-07
-3.13042e-07
-3.62467e-07
-2.43614e-07
-3.23363e-07
-1.79849e-07
-2.82651e-07
-1.22147e-07
-2.41061e-07
-7.07975e-08
-1.99315e-07
-2.59716e-08
-1.58108e-07
1.22753e-08
-1.1808e-07
4.39988e-08
-7.98126e-08
6.93583e-08
-4.38059e-08
8.8612e-08
-1.04792e-08
1.021e-07
1.98321e-08
1.10235e-07
4.68763e-08
1.13492e-07
7.04672e-08
1.12398e-07
9.04769e-08
1.07519e-07
1.06812e-07
9.94534e-08
1.19389e-07
8.88288e-08
1.28108e-07
7.62981e-08
1.32825e-07
6.25436e-08
1.33324e-07
4.82858e-08
1.29295e-07
3.42989e-08
1.20319e-07
2.14344e-08
1.05853e-07
1.06538e-08
8.52321e-08
3.0687e-09
5.76707e-08
2.22365e-08
-9.7682e-10
-1.49421e-09
-4.08583e-09
8.15531e-10
-9.36819e-09
6.65354e-09
-1.67926e-08
1.48215e-08
-2.62986e-08
2.44937e-08
-3.78262e-08
3.51102e-08
-5.13367e-08
4.63309e-08
-6.68241e-08
5.79866e-08
-8.43207e-08
7.00313e-08
-1.03897e-07
8.25009e-08
-1.25656e-07
9.54787e-08
-1.49728e-07
1.09068e-07
-1.76263e-07
1.23372e-07
-2.05419e-07
1.38477e-07
-2.37356e-07
1.54445e-07
-2.72228e-07
1.71304e-07
-3.10173e-07
1.89051e-07
-3.51307e-07
2.07642e-07
-3.95718e-07
2.27001e-07
-4.43461e-07
2.47012e-07
-4.94549e-07
2.67525e-07
-5.48951e-07
2.88357e-07
-6.06587e-07
3.0929e-07
-6.67326e-07
3.30077e-07
-7.30982e-07
3.5044e-07
-7.97317e-07
3.70079e-07
-8.66037e-07
3.88675e-07
-9.36801e-07
4.05895e-07
-1.00922e-06
4.21404e-07
-1.08288e-06
4.34866e-07
-1.15731e-06
4.4596e-07
-1.23204e-06
4.54381e-07
-1.30658e-06
4.59853e-07
-1.38044e-06
4.62134e-07
-1.45311e-06
4.61018e-07
-1.52411e-06
4.56344e-07
-1.59298e-06
4.47994e-07
-1.65926e-06
4.35895e-07
-1.72253e-06
4.2002e-07
-1.78239e-06
4.00385e-07
-1.83846e-06
3.77048e-07
-1.89038e-06
3.50104e-07
-1.93783e-06
3.19688e-07
-1.9805e-06
2.85965e-07
-2.01812e-06
2.49134e-07
-2.05041e-06
2.09422e-07
-2.07715e-06
1.67084e-07
-2.09811e-06
1.22402e-07
-2.11308e-06
7.56819e-08
-2.12189e-06
2.72583e-08
-2.12437e-06
-2.25204e-08
-2.12039e-06
-7.32786e-08
-2.10982e-06
-1.24602e-07
-2.09257e-06
-1.76068e-07
-2.06858e-06
-2.27228e-07
-2.03782e-06
-2.77612e-07
-2.00029e-06
-3.2673e-07
-1.95603e-06
-3.74075e-07
-1.90515e-06
-4.19126e-07
-1.8478e-06
-4.61355e-07
-1.78417e-06
-5.00234e-07
-1.71455e-06
-5.3524e-07
-1.63929e-06
-5.65869e-07
-1.55882e-06
-5.91646e-07
-1.47363e-06
-6.12138e-07
-1.38433e-06
-6.26969e-07
-1.29158e-06
-6.35834e-07
-1.19612e-06
-6.38513e-07
-1.09877e-06
-6.34886e-07
-1.00041e-06
-6.24946e-07
-9.01937e-07
-6.08803e-07
-8.04304e-07
-5.86696e-07
-7.08448e-07
-5.58987e-07
-6.15293e-07
-5.26161e-07
-5.25723e-07
-4.88812e-07
-4.40556e-07
-4.47633e-07
-3.60527e-07
-4.03392e-07
-2.86269e-07
-3.56909e-07
-2.18298e-07
-3.09031e-07
-1.57008e-07
-2.60606e-07
-1.02658e-07
-2.12458e-07
-5.53789e-08
-1.65359e-07
-1.51755e-08
-1.20016e-07
1.80691e-08
-7.70504e-08
4.45804e-08
-3.69906e-08
6.46879e-08
-2.75415e-10
7.87948e-08
3.27694e-08
8.73887e-08
6.18733e-08
9.10124e-08
8.68532e-08
9.02584e-08
1.07566e-07
8.57594e-08
1.23888e-07
7.81813e-08
1.35687e-07
6.82206e-08
1.42786e-07
5.66064e-08
1.44938e-07
4.41061e-08
1.41795e-07
3.15389e-08
1.32886e-07
1.97944e-08
1.17597e-07
9.85723e-09
9.51694e-08
2.83571e-09
6.46922e-08
2.50722e-08
-1.38609e-09
-1.08122e-10
-5.56141e-09
4.99086e-09
-1.24304e-08
1.35225e-08
-2.18474e-08
2.42385e-08
-3.36646e-08
3.63109e-08
-4.77595e-08
4.92051e-08
-6.40529e-08
6.26243e-08
-8.25177e-08
7.64514e-08
-1.0318e-07
9.06937e-08
-1.26115e-07
1.05436e-07
-1.5144e-07
1.20803e-07
-1.79299e-07
1.36928e-07
-2.09861e-07
1.53934e-07
-2.43299e-07
1.71915e-07
-2.79786e-07
1.90931e-07
-3.19481e-07
2.11e-07
-3.62525e-07
2.32095e-07
-4.09028e-07
2.54145e-07
-4.59066e-07
2.77038e-07
-5.12672e-07
3.00618e-07
-5.69834e-07
3.24687e-07
-6.30487e-07
3.4901e-07
-6.94512e-07
3.73316e-07
-7.61735e-07
3.97299e-07
-8.31922e-07
4.20626e-07
-9.04785e-07
4.42942e-07
-9.79985e-07
4.63875e-07
-1.05714e-06
4.83045e-07
-1.13581e-06
5.00077e-07
-1.21554e-06
5.14603e-07
-1.29586e-06
5.26277e-07
-1.37626e-06
5.34781e-07
-1.45624e-06
5.39834e-07
-1.5353e-06
5.41196e-07
-1.61296e-06
5.38671e-07
-1.68872e-06
5.32112e-07
-1.76215e-06
5.21421e-07
-1.83281e-06
5.06549e-07
-1.90028e-06
4.87491e-07
-1.96418e-06
4.64289e-07
-2.02416e-06
4.37023e-07
-2.07987e-06
4.05814e-07
-2.131e-06
3.70818e-07
-2.17725e-06
3.32222e-07
-2.21836e-06
2.90244e-07
-2.25407e-06
2.4513e-07
-2.28414e-06
1.97152e-07
-2.30835e-06
1.4661e-07
-2.32649e-06
9.38239e-08
-2.33837e-06
3.91427e-08
-2.34383e-06
-1.70625e-08
-2.3427e-06
-7.44087e-08
-2.33484e-06
-1.3246e-07
-2.32013e-06
-1.90777e-07
-2.29847e-06
-2.4889e-07
-2.26978e-06
-3.06302e-07
-2.23402e-06
-3.62494e-07
-2.19117e-06
-4.16924e-07
-2.14126e-06
-4.6903e-07
-2.08438e-06
-5.18235e-07
-2.02067e-06
-5.63952e-07
-1.95031e-06
-6.05594e-07
-1.8736e-06
-6.42582e-07
-1.79089e-06
-6.74358e-07
-1.70262e-06
-7.00402e-07
-1.60935e-06
-7.20244e-07
-1.5117e-06
-7.33481e-07
-1.41041e-06
-7.398e-07
-1.30631e-06
-7.38991e-07
-1.20029e-06
-7.30965e-07
-1.09333e-06
-7.15768e-07
-9.86435e-07
-6.93587e-07
-8.80661e-07
-6.64761e-07
-7.7705e-07
-6.29771e-07
-6.7662e-07
-5.89242e-07
-5.80336e-07
-5.43918e-07
-4.89079e-07
-4.94648e-07
-4.03631e-07
-4.42357e-07
-3.24646e-07
-3.88016e-07
-2.52641e-07
-3.32611e-07
-1.87987e-07
-2.77111e-07
-1.30908e-07
-2.22439e-07
-8.14773e-08
-1.69446e-07
-3.9633e-08
-1.18895e-07