/*--------------------------------*- C++ -*----------------------------------*\
  =========                 |
  \\      /  F ield         | OpenFOAM: The Open Source CFD Toolbox
   \\    /   O peration     | Website:  https://openfoam.org
    \\  /    A nd           | Version:  9
     \\/     M anipulation  |
\*---------------------------------------------------------------------------*/
FoamFile
{
    format      ascii;
    class       volVectorField;
    location    "1.75";
    object      U;
}
// * * * * * * * * * * * * * * * * * * * * * * * * * * * * * * * * * * * * * //

dimensions      [0 1 -1 0 0 0 0];

internalField   nonuniform List<vector> 
10000
(
(1.92984e-06 -1.86928e-06 0)
(2.87471e-05 -1.55798e-05 0)
(8.71502e-05 -2.37568e-05 0)
(0.000155645 -2.5991e-05 0)
(0.000222967 -2.46848e-05 0)
(0.000282546 -2.15707e-05 0)
(0.000330666 -1.76884e-05 0)
(0.000365616 -1.36261e-05 0)
(0.000386892 -9.67745e-06 0)
(0.000394595 -5.9588e-06 0)
(0.000389052 -2.47098e-06 0)
(0.000370573 8.34929e-07 0)
(0.000339323 4.03623e-06 0)
(0.000295256 7.21933e-06 0)
(0.00023809 1.04679e-05 0)
(0.000167316 1.38564e-05 0)
(8.22289e-05 1.74477e-05 0)
(-1.80408e-05 2.1292e-05 0)
(-0.000134489 2.54284e-05 0)
(-0.000268201 2.98862e-05 0)
(-0.000420319 3.46865e-05 0)
(-0.000592011 3.98434e-05 0)
(-0.000784444 4.53651e-05 0)
(-0.000998752 5.12535e-05 0)
(-0.00123601 5.75034e-05 0)
(-0.00149719 6.41014e-05 0)
(-0.00178314 7.10239e-05 0)
(-0.00209454 7.82354e-05 0)
(-0.00243182 8.5686e-05 0)
(-0.00279516 9.331e-05 0)
(-0.00318441 0.000101024 0)
(-0.00359902 0.000108726 0)
(-0.004038 0.000116294 0)
(-0.00449986 0.000123587 0)
(-0.00498257 0.000130444 0)
(-0.00548349 0.000136687 0)
(-0.00599936 0.000142121 0)
(-0.00652627 0.000146539 0)
(-0.00705964 0.000149723 0)
(-0.00759423 0.00015145 0)
(-0.00812416 0.0001515 0)
(-0.00864299 0.000149655 0)
(-0.0091437 0.000145715 0)
(-0.00961885 0.000139499 0)
(-0.0100607 0.000130857 0)
(-0.0104611 0.000119677 0)
(-0.0108122 0.000105892 0)
(-0.0111059 8.94934e-05 0)
(-0.0113345 7.05464e-05 0)
(-0.0114908 4.9219e-05 0)
(-0.0115685 2.57414e-05 0)
(-0.0115617 9.01896e-08 0)
(-0.0114657 -2.72236e-05 0)
(-0.0112772 -5.57157e-05 0)
(-0.0109945 -8.49073e-05 0)
(-0.0106172 -0.000114257 0)
(-0.0101469 -0.000143165 0)
(-0.00958661 -0.000170998 0)
(-0.00894157 -0.000197104 0)
(-0.00821866 -0.000220834 0)
(-0.00742655 -0.00024157 0)
(-0.00657556 -0.000258746 0)
(-0.00567745 -0.000271868 0)
(-0.00474518 -0.000280547 0)
(-0.00379262 -0.00028451 0)
(-0.0028342 -0.000283618 0)
(-0.00188455 -0.000277879 0)
(-0.000958087 -0.000267451 0)
(-6.86268e-05 -0.000252644 0)
(0.000770968 -0.000233898 0)
(0.0015492 -0.000211751 0)
(0.00225622 -0.000186871 0)
(0.00288407 -0.000159978 0)
(0.00342684 -0.000131823 0)
(0.00388075 -0.000103161 0)
(0.00424421 -7.47169e-05 0)
(0.00451767 -4.71572e-05 0)
(0.00470353 -2.10655e-05 0)
(0.00480587 3.07608e-06 0)
(0.00483022 2.48972e-05 0)
(0.00478325 4.41451e-05 0)
(0.00467241 6.06934e-05 0)
(0.00450565 7.45101e-05 0)
(0.00429113 8.56692e-05 0)
(0.00403688 9.43281e-05 0)
(0.00375061 0.000100708 0)
(0.00343952 0.000105071 0)
(0.00311018 0.000107701 0)
(0.00276852 0.000108868 0)
(0.00241984 0.000108799 0)
(0.00206901 0.000107634 0)
(0.00172076 0.000105372 0)
(0.00138012 0.000101802 0)
(0.00105302 9.6419e-05 0)
(0.000747041 8.83196e-05 0)
(0.000472391 7.61311e-05 0)
(0.000242427 5.81351e-05 0)
(7.29147e-05 3.29263e-05 0)
(-1.88199e-05 1.8536e-06 0)
(-2.14892e-05 -2.15935e-05 0)
(1.59242e-05 -2.88844e-05 0)
(8.6409e-05 -8.58043e-05 0)
(0.000209637 -0.00011687 0)
(0.000347543 -0.000124163 0)
(0.000478747 -0.000115494 0)
(0.000590034 -9.72695e-05 0)
(0.000672785 -7.39457e-05 0)
(0.0007221 -4.83857e-05 0)
(0.000735642 -2.22387e-05 0)
(0.000712556 3.70786e-06 0)
(0.000652648 2.9209e-05 0)
(0.00055583 5.43834e-05 0)
(0.000421808 7.95482e-05 0)
(0.000249879 0.000105109 0)
(3.88512e-05 0.000131486 0)
(-0.000212955 0.000159072 0)
(-0.000507657 0.000188203 0)
(-0.000847733 0.000219148 0)
(-0.00123593 0.000252109 0)
(-0.00167518 0.000287219 0)
(-0.00216847 0.000324547 0)
(-0.00271881 0.000364108 0)
(-0.00332908 0.000405855 0)
(-0.00400198 0.000449686 0)
(-0.00473993 0.000495432 0)
(-0.00554494 0.000542856 0)
(-0.00641851 0.000591642 0)
(-0.00736153 0.000641384 0)
(-0.00837412 0.000691581 0)
(-0.0094555 0.00074163 0)
(-0.0106039 0.000790819 0)
(-0.0118162 0.000838329 0)
(-0.0130883 0.000883237 0)
(-0.0144145 0.000924521 0)
(-0.0157874 0.000961074 0)
(-0.0171984 0.000991717 0)
(-0.0186371 0.00101522 0)
(-0.0200915 0.00103034 0)
(-0.0215479 0.00103581 0)
(-0.0229913 0.00103043 0)
(-0.0244052 0.00101305 0)
(-0.0257721 0.000982654 0)
(-0.0270733 0.000938346 0)
(-0.0282895 0.00087944 0)
(-0.029401 0.000805471 0)
(-0.0303882 0.000716245 0)
(-0.0312316 0.000611862 0)
(-0.0319128 0.000492755 0)
(-0.0324141 0.000359702 0)
(-0.0327199 0.000213807 0)
(-0.032817 5.65616e-05 0)
(-0.0326935 -0.000109757 0)
(-0.0323404 -0.000283223 0)
(-0.0317528 -0.00046125 0)
(-0.030929 -0.000640935 0)
(-0.0298708 -0.000819157 0)
(-0.028584 -0.000992624 0)
(-0.0270785 -0.00115794 0)
(-0.025368 -0.00131172 0)
(-0.0234702 -0.00145063 0)
(-0.0214065 -0.00157156 0)
(-0.0192018 -0.00167168 0)
(-0.0168838 -0.00174854 0)
(-0.0144828 -0.00180023 0)
(-0.0120311 -0.00182537 0)
(-0.00956203 -0.00182328 0)
(-0.0071094 -0.00179394 0)
(-0.00470674 -0.00173808 0)
(-0.0023864 -0.00165715 0)
(-0.000178818 -0.00155327 0)
(0.00188823 -0.00142912 0)
(0.00379033 -0.00128797 0)
(0.00550703 -0.00113346 0)
(0.00702217 -0.000969462 0)
(0.00832427 -0.000799982 0)
(0.00940662 -0.000628961 0)
(0.0102672 -0.000460152 0)
(0.0109086 -0.000296985 0)
(0.0113375 -0.000142456 0)
(0.0115644 9.54753e-07 0)
(0.0116027 0.000131339 0)
(0.0114684 0.000247405 0)
(0.0111791 0.000348407 0)
(0.0107538 0.000434169 0)
(0.0102115 0.000504999 0)
(0.00957141 0.000561599 0)
(0.00885182 0.000604951 0)
(0.00807025 0.000636187 0)
(0.00724313 0.000656425 0)
(0.00638588 0.000666581 0)
(0.0055132 0.000667155 0)
(0.00463972 0.000657986 0)
(0.00378072 0.00063799 0)
(0.00295326 0.000604909 0)
(0.00217729 0.000555135 0)
(0.00147677 0.000483856 0)
(0.000879553 0.000386059 0)
(0.000414859 0.000259216 0)
(0.000112161 0.000110357 0)
(2.53462e-06 -1.87565e-05 0)
(2.45816e-05 -8.82376e-05 0)
(0.000118436 -0.000209539 0)
(0.000270178 -0.000269268 0)
(0.000431436 -0.000278394 0)
(0.000575843 -0.00025177 0)
(0.000687115 -0.000202159 0)
(0.000754039 -0.000139115 0)
(0.00076967 -6.9153e-05 0)
(0.000730159 3.73672e-06 0)
(0.000633473 7.74727e-05 0)
(0.00047844 0.000151299 0)
(0.000264087 0.00022536 0)
(-1.08331e-05 0.00030033 0)
(-0.000348092 0.000377142 0)
(-0.000750091 0.0004568 0)
(-0.00121986 0.00054025 0)
(-0.001761 0.000628307 0)
(-0.00237757 0.000721616 0)
(-0.0030739 0.000820631 0)
(-0.00385454 0.000925618 0)
(-0.00472403 0.00103666 0)
(-0.00568674 0.00115365 0)
(-0.00674681 0.00127632 0)
(-0.00790786 0.0014042 0)
(-0.00917295 0.00153661 0)
(-0.0105443 0.00167268 0)
(-0.0120232 0.0018113 0)
(-0.0136097 0.00195108 0)
(-0.0153026 0.0020904 0)
(-0.0170989 0.00222733 0)
(-0.0189941 0.00235968 0)
(-0.0209816 0.00248499 0)
(-0.0230526 0.00260054 0)
(-0.0251963 0.00270341 0)
(-0.0273994 0.00279048 0)
(-0.0296463 0.00285856 0)
(-0.0319191 0.00290437 0)
(-0.0341977 0.00292468 0)
(-0.0364597 0.00291636 0)
(-0.0386812 0.00287649 0)
(-0.0408362 0.00280246 0)
(-0.0428979 0.00269204 0)
(-0.0448384 0.0025435 0)
(-0.0466295 0.00235567 0)
(-0.0482429 0.00212807 0)
(-0.0496511 0.00186093 0)
(-0.0508276 0.00155529 0)
(-0.0517478 0.00121301 0)
(-0.052389 0.000836803 0)
(-0.0527316 0.000430153 0)
(-0.0527587 -2.52833e-06 0)
(-0.0524576 -0.000455047 0)
(-0.0518195 -0.000922079 0)
(-0.0508399 -0.00139696 0)
(-0.0495195 -0.00187234 0)
(-0.0478634 -0.00234044 0)
(-0.0458823 -0.00279321 0)
(-0.0435916 -0.00322248 0)
(-0.0410119 -0.00362016 0)
(-0.0381686 -0.00397845 0)
(-0.035092 -0.00429003 0)
(-0.0318161 -0.00454831 0)
(-0.0283791 -0.00474766 0)
(-0.024822 -0.00488354 0)
(-0.0211883 -0.00495279 0)
(-0.0175231 -0.00495369 0)
(-0.0138723 -0.00488612 0)
(-0.0102814 -0.00475159 0)
(-0.00679494 -0.00455328 0)
(-0.00345511 -0.00429593 0)
(-0.000301112 -0.00398574 0)
(0.00263181 -0.00363016 0)
(0.00531317 -0.00323768 0)
(0.0077179 -0.00281755 0)
(0.00982679 -0.00237937 0)
(0.0116268 -0.00193285 0)
(0.0131113 -0.0014874 0)
(0.0142796 -0.00105185 0)
(0.0151371 -0.000634125 0)
(0.0156947 -0.000241072 0)
(0.0159679 0.000121767 0)
(0.0159762 0.00045018 0)
(0.0157423 0.000741452 0)
(0.0152911 0.000994183 0)
(0.0146492 0.00120821 0)
(0.0138433 0.00138442 0)
(0.0129003 0.00152449 0)
(0.0118465 0.00163055 0)
(0.0107072 0.0017048 0)
(0.00950688 0.00174904 0)
(0.00826925 0.00176419 0)
(0.00701809 0.00174972 0)
(0.00577796 0.00170319 0)
(0.00457529 0.00161981 0)
(0.00343949 0.00149244 0)
(0.00240386 0.00131231 0)
(0.00150494 0.00107147 0)
(0.000779074 0.000767779 0)
(0.000267149 0.000415254 0)
(3.52532e-05 7.5613e-05 0)
(2.71631e-05 -0.000158188 0)
(0.000125089 -0.000347332 0)
(0.000274895 -0.000429886 0)
(0.000422679 -0.000430477 0)
(0.000539685 -0.000372837 0)
(0.000608431 -0.000276806 0)
(0.000616701 -0.000157399 0)
(0.000556585 -2.50211e-05 0)
(0.000423254 0.000113818 0)
(0.000213668 0.000255625 0)
(-7.44097e-05 0.000399126 0)
(-0.000443108 0.000544528 0)
(-0.000894927 0.000692942 0)
(-0.00143299 0.000845932 0)
(-0.00206115 0.00100519 0)
(-0.00278396 0.00117232 0)
(-0.00360658 0.00134866 0)
(-0.0045346 0.00153526 0)
(-0.0055739 0.0017328 0)
(-0.00673039 0.00194159 0)
(-0.00800986 0.00216157 0)
(-0.00941772 0.00239233 0)
(-0.0109588 0.00263307 0)
(-0.0126371 0.00288263 0)
(-0.0144556 0.00313942 0)
(-0.0164161 0.00340143 0)
(-0.0185186 0.00366618 0)
(-0.0207615 0.00393073 0)
(-0.0231411 0.00419161 0)
(-0.0256515 0.00444487 0)
(-0.0282841 0.00468605 0)
(-0.0310278 0.00491028 0)
(-0.0338686 0.00511226 0)
(-0.0367894 0.00528642 0)
(-0.0397705 0.00542695 0)
(-0.0427892 0.005528 0)
(-0.0458199 0.00558374 0)
(-0.0488347 0.00558857 0)
(-0.0518034 0.00553723 0)
(-0.054694 0.00542503 0)
(-0.0574732 0.00524795 0)
(-0.0601066 0.00500282 0)
(-0.0625596 0.00468749 0)
(-0.0647979 0.00430093 0)
(-0.0667881 0.00384334 0)
(-0.068498 0.00331624 0)
(-0.0698976 0.00272254 0)
(-0.0709595 0.00206659 0)
(-0.0716597 0.00135411 0)
(-0.0719776 0.000592256 0)
(-0.0718962 -0.0002105 0)
(-0.0714039 -0.00104428 0)
(-0.0704936 -0.00189841 0)
(-0.0691632 -0.0027611 0)
(-0.067416 -0.00361976 0)
(-0.0652606 -0.0044612 0)
(-0.0627113 -0.00527192 0)
(-0.0597878 -0.0060383 0)
(-0.0565153 -0.00674699 0)
(-0.0529239 -0.00738514 0)
(-0.0490488 -0.00794075 0)
(-0.0449299 -0.00840301 0)
(-0.0406108 -0.00876263 0)
(-0.0361388 -0.00901211 0)
(-0.0315638 -0.00914609 0)
(-0.0269377 -0.00916151 0)
(-0.0223135 -0.00905786 0)
(-0.0177444 -0.00883727 0)
(-0.0132826 -0.00850451 0)
(-0.00897861 -0.00806696 0)
(-0.00487987 -0.00753446 0)
(-0.00102996 -0.006919 0)
(0.00253234 -0.00623438 0)
(0.00577391 -0.00549581 0)
(0.00866796 -0.00471946 0)
(0.0111945 -0.00392178 0)
(0.0133406 -0.00311908 0)
(0.0151006 -0.00232691 0)
(0.0164758 -0.00155963 0)
(0.0174743 -0.000829926 0)
(0.0181102 -0.000148502 0)
(0.018403 0.000476117 0)
(0.018377 0.00103783 0)
(0.0180597 0.0015328 0)
(0.0174814 0.00195937 0)
(0.0166741 0.00231773 0)
(0.0156705 0.00260961 0)
(0.0145037 0.00283763 0)
(0.013206 0.00300474 0)
(0.0118097 0.00311342 0)
(0.0103464 0.00316487 0)
(0.00884786 0.00315818 0)
(0.00734664 0.00308957 0)
(0.00587692 0.00295192 0)
(0.00447555 0.00273488 0)
(0.00318294 0.00242611 0)
(0.00204235 0.00201467 0)
(0.00109689 0.00149717 0)
(0.000401851 0.000888951 0)
(6.27416e-05 0.000252448 0)
(2.56891e-05 -0.000226187 0)
(0.00011225 -0.000473994 0)
(0.000233913 -0.000566151 0)
(0.000336675 -0.000543095 0)
(0.000391585 -0.000438671 0)
(0.000381223 -0.000280139 0)
(0.00029348 -8.79077e-05 0)
(0.000120312 0.000123929 0)
(-0.000143577 0.000346547 0)
(-0.000502008 0.000575263 0)
(-0.000958258 0.00080843 0)
(-0.00151573 0.00104646 0)
(-0.00217837 0.00129103 0)
(-0.00295085 0.00154443 0)
(-0.00383865 0.00180908 0)
(-0.00484799 0.00208725 0)
(-0.00598563 0.00238082 0)
(-0.0072587 0.00269112 0)
(-0.00867447 0.00301895 0)
(-0.01024 0.00336448 0)
(-0.0119621 0.00372729 0)
(-0.0138468 0.00410632 0)
(-0.015899 0.0044999 0)
(-0.0181226 0.00490572 0)
(-0.0205199 0.00532078 0)
(-0.0230912 0.00574137 0)
(-0.0258346 0.00616303 0)
(-0.028746 0.00658055 0)
(-0.0318183 0.00698793 0)
(-0.0350415 0.00737847 0)
(-0.0384023 0.00774475 0)
(-0.0418842 0.00807877 0)
(-0.0454673 0.00837207 0)
(-0.049128 0.00861586 0)
(-0.0528398 0.00880123 0)
(-0.0565729 0.00891936 0)
(-0.0602948 0.00896174 0)
(-0.0639705 0.00892039 0)
(-0.0675631 0.00878815 0)
(-0.0710344 0.00855887 0)
(-0.0743452 0.00822766 0)
(-0.0774562 0.00779106 0)
(-0.0803287 0.00724726 0)
(-0.0829249 0.00659618 0)
(-0.0852088 0.00583962 0)
(-0.0871467 0.00498131 0)
(-0.0887077 0.00402695 0)
(-0.0898642 0.00298417 0)
(-0.0905927 0.00186254 0)
(-0.0908738 0.00067346 0)
(-0.090692 -0.000570011 0)
(-0.0900374 -0.00185339 0)
(-0.088905 -0.00316055 0)
(-0.0872949 -0.00447433 0)
(-0.0852124 -0.00577668 0)
(-0.0826685 -0.00704886 0)
(-0.0796797 -0.00827179 0)
(-0.0762676 -0.00942641 0)
(-0.0724597 -0.010494 0)
(-0.0682881 -0.0114566 0)
(-0.0637905 -0.0122974 0)
(-0.0590088 -0.0130013 0)
(-0.0539894 -0.013555 0)
(-0.0487824 -0.0139478 0)
(-0.043441 -0.0141717 0)
(-0.038021 -0.0142221 0)
(-0.0325797 -0.0140975 0)
(-0.0271751 -0.0138002 0)
(-0.021865 -0.013336 0)
(-0.0167058 -0.0127147 0)
(-0.0117516 -0.0119491 0)
(-0.00705283 -0.0110557 0)
(-0.00265571 -0.0100534 0)
(0.00139914 -0.0089633 0)
(0.00507737 -0.00780836 0)
(0.00835165 -0.00661218 0)
(0.011202 -0.00539852 0)
(0.0136164 -0.00419048 0)
(0.0155903 -0.00300976 0)
(0.017127 -0.00187604 0)
(0.018237 -0.000806416 0)
(0.0189375 0.000185029 0)
(0.0192512 0.00108738 0)
(0.0192061 0.00189307 0)
(0.0188337 0.00259772 0)
(0.0181688 0.0031997 0)
(0.0172479 0.00369976 0)
(0.0161086 0.00410022 0)
(0.0147892 0.00440413 0)
(0.013328 0.00461418 0)
(0.0117633 0.00473163 0)
(0.0101337 0.00475512 0)
(0.00847863 0.00467972 0)
(0.00683889 0.00449632 0)
(0.00525766 0.00419177 0)
(0.00378154 0.0037503 0)
(0.00246027 0.00315706 0)
(0.00134455 0.00240422 0)
(0.000504797 0.00150077 0)
(8.25995e-05 0.00049424 0)
(2.15677e-05 -0.000283352 0)
(8.46654e-05 -0.000570281 0)
(0.000156003 -0.000652598 0)
(0.000186474 -0.000586789 0)
(0.000149034 -0.000417219 0)
(2.7441e-05 -0.000178553 0)
(-0.000189399 0.00010372 0)
(-0.000509002 0.000412238 0)
(-0.000936703 0.000736312 0)
(-0.00147687 0.00107046 0)
(-0.00213378 0.00141298 0)
(-0.00291216 0.00176474 0)
(-0.0038175 0.00212814 0)
(-0.0048562 0.00250628 0)
(-0.0060355 0.00290238 0)
(-0.00736332 0.00331933 0)
(-0.00884807 0.00375941 0)
(-0.0104984 0.00422414 0)
(-0.0123227 0.00471418 0)
(-0.0143291 0.0052293 0)
(-0.016525 0.00576837 0)
(-0.0189164 0.00632929 0)
(-0.0215083 0.00690907 0)
(-0.0243034 0.00750369 0)
(-0.0273027 0.00810816 0)
(-0.0305044 0.00871642 0)
(-0.0339039 0.00932136 0)
(-0.0374935 0.0099148 0)
(-0.0412621 0.0104875 0)
(-0.0451948 0.0110294 0)
(-0.049273 0.0115294 0)
(-0.0534743 0.0119759 0)
(-0.0577726 0.0123568 0)
(-0.0621378 0.0126598 0)
(-0.066537 0.0128728 0)
(-0.0709337 0.0129841 0)
(-0.0752895 0.0129825 0)
(-0.0795636 0.0128582 0)
(-0.0837141 0.0126027 0)
(-0.0876983 0.0122089 0)
(-0.0914736 0.0116718 0)
(-0.0949978 0.0109887 0)
(-0.0982304 0.0101588 0)
(-0.101133 0.00918398 0)
(-0.103668 0.00806838 0)
(-0.105803 0.0068187 0)
(-0.107508 0.00544405 0)
(-0.108756 0.00395592 0)
(-0.109526 0.00236805 0)
(-0.1098 0.000696315 0)
(-0.109563 -0.00104145 0)
(-0.108808 -0.00282584 0)
(-0.107531 -0.00463564 0)
(-0.105733 -0.00644847 0)
(-0.10342 -0.00824095 0)
(-0.100603 -0.00998899 0)
(-0.0972995 -0.0116681 0)
(-0.0935311 -0.013254 0)
(-0.0893249 -0.0147226 0)
(-0.0847132 -0.0160508 0)
(-0.0797332 -0.0172171 0)
(-0.0744273 -0.0182016 0)
(-0.0688422 -0.018987 0)
(-0.0630289 -0.0195588 0)
(-0.0570422 -0.0199061 0)
(-0.0509398 -0.0200218 0)
(-0.0447818 -0.019903 0)
(-0.0386299 -0.0195515 0)
(-0.032546 -0.0189735 0)
(-0.0265918 -0.0181801 0)
(-0.0208272 -0.0171872 0)
(-0.015309 -0.0160146 0)
(-0.0100906 -0.0146861 0)
(-0.00521992 -0.0132288 0)
(-0.000738976 -0.0116719 0)
(0.00331711 -0.0100464 0)
(0.00692083 -0.00838383 0)
(0.0100527 -0.0067153 0)
(0.0127017 -0.00507059 0)
(0.0148651 -0.00347722 0)
(0.016548 -0.00195972 0)
(0.0177637 -0.000538969 0)
(0.0185319 0.000768135 0)
(0.018879 0.00194897 0)
(0.0188361 0.00299517 0)
(0.0184387 0.00390202 0)
(0.0177255 0.00466815 0)
(0.0167373 0.00529459 0)
(0.0155165 0.00578366 0)
(0.0141064 0.00613766 0)
(0.0125507 0.00635751 0)
(0.0108939 0.00644128 0)
(0.0091814 0.00638294 0)
(0.00745979 0.00617158 0)
(0.00577806 0.00579136 0)
(0.0041888 0.00522275 0)
(0.00274835 0.00444563 0)
(0.00151544 0.00344439 0)
(0.000574434 0.0022156 0)
(9.52704e-05 0.000782605 0)
(1.5592e-05 -0.00032285 0)
(4.5537e-05 -0.000619818 0)
(4.77464e-05 -0.000666626 0)
(-1.78046e-05 -0.000535 0)
(-0.000174288 -0.00027941 0)
(-0.000435667 5.8511e-05 0)
(-0.000811219 0.000448794 0)
(-0.00130735 0.000871469 0)
(-0.00192906 0.00131463 0)
(-0.0026811 0.00177253 0)
(-0.00356867 0.00224389 0)
(-0.00459786 0.00273035 0)
(-0.00577582 0.00323524 0)
(-0.00711073 0.00376257 0)
(-0.00861168 0.00431635 0)
(-0.0102884 0.00489999 0)
(-0.0121508 0.00551604 0)
(-0.0142089 0.00616594 0)
(-0.0164722 0.00684993 0)
(-0.0189495 0.007567 0)
(-0.0216483 0.00831486 0)
(-0.0245744 0.00908991 0)
(-0.0277319 0.00988723 0)
(-0.031122 0.0107005 0)
(-0.0347436 0.0115222 0)
(-0.038592 0.0123431 0)
(-0.0426592 0.0131527 0)
(-0.0469333 0.0139394 0)
(-0.0513984 0.0146899 0)
(-0.0560344 0.0153902 0)
(-0.0608168 0.0160252 0)
(-0.0657174 0.0165793 0)
(-0.0707038 0.0170366 0)
(-0.0757401 0.0173814 0)
(-0.0807873 0.0175984 0)
(-0.0858039 0.0176733 0)
(-0.0907464 0.0175931 0)
(-0.0955701 0.0173467 0)
(-0.10023 0.0169247 0)
(-0.10468 0.0163205 0)
(-0.108878 0.0155296 0)
(-0.112779 0.0145506 0)
(-0.116344 0.013385 0)
(-0.119533 0.012037 0)
(-0.122313 0.0105138 0)
(-0.12465 0.00882545 0)
(-0.126517 0.00698481 0)
(-0.12789 0.00500729 0)
(-0.128746 0.00291078 0)
(-0.12907 0.000715535 0)
(-0.12885 -0.00155607 0)
(-0.128076 -0.00388008 0)
(-0.126746 -0.00623058 0)
(-0.124859 -0.00858037 0)
(-0.122423 -0.0109011 0)
(-0.119445 -0.0131638 0)
(-0.115943 -0.0153387 0)
(-0.111934 -0.0173964 0)
(-0.107446 -0.0193077 0)
(-0.102508 -0.0210444 0)
(-0.0971562 -0.0225798 0)
(-0.0914308 -0.0238892 0)
(-0.085378 -0.0249506 0)
(-0.0790482 -0.0257454 0)
(-0.0724967 -0.0262589 0)
(-0.0657824 -0.0264808 0)
(-0.0589673 -0.026406 0)
(-0.0521161 -0.0260348 0)
(-0.0452948 -0.025373 0)
(-0.0385699 -0.0244326 0)
(-0.0320069 -0.023231 0)
(-0.0256695 -0.0217914 0)
(-0.019618 -0.0201416 0)
(-0.0139082 -0.0183141 0)
(-0.00858996 -0.0163446 0)
(-0.00370675 -0.0142713 0)
(0.000705839 -0.0121336 0)
(0.00462048 -0.00997098 0)
(0.0080186 -0.00782183 0)
(0.0108906 -0.0057223 0)
(0.0132359 -0.00370522 0)
(0.0150622 -0.00179932 0)
(0.0163856 -2.85957e-05 0)
(0.0172293 0.00158802 0)
(0.0176231 0.00303692 0)
(0.0176018 0.00430907 0)
(0.0172049 0.00539978 0)
(0.0164754 0.00630772 0)
(0.0154584 0.00703355 0)
(0.0142012 0.00757847 0)
(0.012752 0.00794253 0)
(0.0111604 0.00812292 0)
(0.00947675 0.0081124 0)
(0.00775326 0.00789823 0)
(0.0060444 0.00746173 0)
(0.00440865 0.00677907 0)
(0.00290893 0.00582348 0)
(0.00161178 0.00456906 0)
(0.000613018 0.00299606 0)
(0.000101826 0.00109953 0)
(8.1923e-06 -0.000339332 0)
(-3.09689e-06 -0.000608759 0)
(-8.62761e-05 -0.000588491 0)
(-0.000268744 -0.000364073 0)
(-0.000568022 8.60309e-07 0)
(-0.000994804 0.000458615 0)
(-0.00155575 0.000975658 0)
(-0.00225563 0.00153032 0)
(-0.00309882 0.0021103 0)
(-0.00409031 0.0027103 0)
(-0.00523618 0.00332998 0)
(-0.00654393 0.00397214 0)
(-0.00802242 0.00464128 0)
(-0.0096817 0.00534244 0)
(-0.0115327 0.00608032 0)
(-0.0135869 0.00685877 0)
(-0.0158557 0.00768032 0)
(-0.0183503 0.00854603 0)
(-0.0210811 0.00945531 0)
(-0.024057 0.0104059 0)
(-0.0272853 0.0113939 0)
(-0.0307712 0.0124135 0)
(-0.034517 0.0134574 0)
(-0.0385221 0.0145162 0)
(-0.0427823 0.015579 0)
(-0.0472897 0.016633 0)
(-0.052032 0.0176638 0)
(-0.0569926 0.0186552 0)
(-0.0621505 0.0195898 0)
(-0.0674799 0.0204492 0)
(-0.0729509 0.0212139 0)
(-0.0785292 0.0218644 0)
(-0.0841769 0.0223811 0)
(-0.089853 0.0227451 0)
(-0.0955139 0.0229385 0)
(-0.101114 0.0229452 0)
(-0.106606 0.022751 0)
(-0.111945 0.0223441 0)
(-0.117081 0.0217156 0)
(-0.121971 0.0208597 0)
(-0.126571 0.0197737 0)
(-0.130837 0.0184581 0)
(-0.134731 0.0169169 0)
(-0.138216 0.0151574 0)
(-0.141259 0.0131899 0)
(-0.143829 0.0110281 0)
(-0.1459 0.0086883 0)
(-0.147448 0.00618964 0)
(-0.148454 0.00355384 0)
(-0.148901 0.000805046 0)
(-0.148777 -0.00203032 0)
(-0.148073 -0.00492429 0)
(-0.146783 -0.00784679 0)
(-0.144906 -0.0107663 0)
(-0.142446 -0.01365 0)
(-0.13941 -0.0164641 0)
(-0.135809 -0.0191743 0)
(-0.131662 -0.0217459 0)
(-0.126989 -0.0241447 0)
(-0.121817 -0.0263372 0)
(-0.11618 -0.0282913 0)
(-0.110116 -0.0299769 0)
(-0.103669 -0.0313669 0)
(-0.0968868 -0.0324377 0)
(-0.0898256 -0.0331699 0)
(-0.0825443 -0.0335494 0)
(-0.0751068 -0.0335677 0)
(-0.0675802 -0.0332224 0)
(-0.0600345 -0.0325183 0)
(-0.052541 -0.0314667 0)
(-0.0451714 -0.0300862 0)
(-0.0379961 -0.0284022 0)
(-0.0310833 -0.0264462 0)
(-0.0244968 -0.0242555 0)
(-0.0182955 -0.021872 0)
(-0.0125315 -0.0193409 0)
(-0.00724931 -0.0167098 0)
(-0.00248474 -0.0140269 0)
(0.00173548 -0.0113398 0)
(0.00539428 -0.00869368 0)
(0.00848433 -0.00613069 0)
(0.0110077 -0.00368833 0)
(0.0129757 -0.00139873 0)
(0.014408 0.000711762 0)
(0.0153318 0.00262263 0)
(0.0157808 0.00431972 0)
(0.0157944 0.00579392 0)
(0.0154166 0.00704031 0)
(0.0146948 0.00805695 0)
(0.0136792 0.00884312 0)
(0.0124218 0.00939737 0)
(0.0109764 0.00971557 0)
(0.00939835 0.00978899 0)
(0.00774483 0.00960281 0)
(0.00607565 0.00913521 0)
(0.00445499 0.00835752 0)
(0.00295207 0.00723534 0)
(0.00164046 0.00573101 0)
(0.000624343 0.00380684 0)
(0.00010338 0.00142904 0)
(-3.78207e-07 -0.000328239 0)
(-5.99809e-05 -0.000525192 0)
(-0.000242973 -0.000400856 0)
(-0.000561026 -5.29708e-05 0)
(-0.00102447 0.000446972 0)
(-0.00163974 0.00104655 0)
(-0.00241017 0.00170991 0)
(-0.00333845 0.00241483 0)
(-0.00442808 0.00314959 0)
(-0.00568417 0.00391017 0)
(-0.00711371 0.0046978 0)
(-0.0087256 0.00551689 0)
(-0.0105305 0.00637332 0)
(-0.0125403 0.0072732 0)
(-0.0147678 0.00822189 0)
(-0.0172261 0.0092234 0)
(-0.019928 0.01028 0)
(-0.0228856 0.0113919 0)
(-0.0261097 0.0125572 0)
(-0.0296091 0.0137719 0)
(-0.0333904 0.0150297 0)
(-0.0374574 0.0163223 0)
(-0.0418104 0.0176389 0)
(-0.0464461 0.0189668 0)
(-0.0513567 0.0202907 0)
(-0.0565304 0.0215938 0)
(-0.0619503 0.0228568 0)
(-0.0675947 0.0240591 0)
(-0.0734373 0.0251785 0)
(-0.0794468 0.0261919 0)
(-0.0855879 0.0270758 0)
(-0.0918213 0.0278068 0)
(-0.0981042 0.028362 0)
(-0.104392 0.02872 0)
(-0.110637 0.028861 0)
(-0.116791 0.0287678 0)
(-0.122807 0.0284259 0)
(-0.128636 0.027824 0)
(-0.134232 0.0269543 0)
(-0.13955 0.0258125 0)
(-0.144547 0.024398 0)
(-0.149183 0.0227142 0)
(-0.15342 0.0207677 0)
(-0.157224 0.0185688 0)
(-0.160563 0.0161311 0)
(-0.163408 0.0134712 0)
(-0.165734 0.0106088 0)
(-0.167517 0.00756634 0)
(-0.168739 0.00436872 0)
(-0.169381 0.00104339 0)
(-0.16943 -0.00237988 0)
(-0.168876 -0.0058696 0)
(-0.167711 -0.0093921 0)
(-0.165931 -0.012912 0)
(-0.163536 -0.0163926 0)
(-0.160528 -0.0197956 0)
(-0.156918 -0.0230821 0)
(-0.152715 -0.0262128 0)
(-0.14794 -0.0291479 0)
(-0.142614 -0.0318485 0)
(-0.136766 -0.0342769 0)
(-0.130431 -0.0363973 0)
(-0.123649 -0.0381764 0)
(-0.116469 -0.039585 0)
(-0.108942 -0.0405982 0)
(-0.10113 -0.0411966 0)
(-0.0930949 -0.0413672 0)
(-0.0849079 -0.0411042 0)
(-0.0766421 -0.0404094 0)
(-0.0683739 -0.0392929 0)
(-0.060181 -0.0377732 0)
(-0.0521414 -0.0358768 0)
(-0.0443314 -0.0336383 0)
(-0.0368242 -0.0310993 0)
(-0.0296879 -0.0283074 0)
(-0.0229847 -0.0253151 0)
(-0.0167688 -0.022178 0)
(-0.0110856 -0.0189536 0)
(-0.0059706 -0.015699 0)
(-0.00144923 -0.0124695 0)
(0.00246382 -0.00931728 0)
(0.00576437 -0.00628962 0)
(0.00845839 -0.00342794 0)
(0.0105612 -0.000767133 0)
(0.0120974 0.0016646 0)
(0.0130991 0.00384643 0)
(0.013605 0.00576367 0)
(0.0136596 0.00740684 0)
(0.0133118 0.00877038 0)
(0.0126143 0.00985079 0)
(0.0116225 0.0106445 0)
(0.010394 0.0111454 0)
(0.00898875 0.0113429 0)
(0.00746858 0.0112198 0)
(0.0058985 0.0107508 0)
(0.00434812 0.00990194 0)
(0.00289236 0.00863079 0)
(0.00161073 0.00688752 0)
(0.000612768 0.00461668 0)
(0.000100955 0.00175769 0)
(-1.01167e-05 -0.000285476 0)
(-0.000124482 -0.000358421 0)
(-0.000420285 -8.81227e-05 0)
(-0.000890838 0.00041723 0)
(-0.00153779 0.00108001 0)
(-0.00236242 0.0018447 0)
(-0.00336409 0.00267469 0)
(-0.00454303 0.00354855 0)
(-0.00590168 0.00445634 0)
(-0.00744519 0.00539624 0)
(-0.00918146 0.00637174 0)
(-0.0111209 0.00738927 0)
(-0.0132759 0.00845634 0)
(-0.0156602 0.00958014 0)
(-0.0182884 0.0107665 0)
(-0.0211751 0.0120194 0)
(-0.0243343 0.0133404 0)
(-0.0277785 0.0147283 0)
(-0.0315187 0.0161794 0)
(-0.0355631 0.0176874 0)
(-0.0399171 0.019243 0)
(-0.0445824 0.0208343 0)
(-0.0495568 0.0224469 0)
(-0.0548335 0.0240634 0)
(-0.0604011 0.0256643 0)
(-0.0662431 0.0272276 0)
(-0.0723376 0.0287292 0)
(-0.0786581 0.0301433 0)
(-0.0851728 0.0314431 0)
(-0.0918455 0.032601 0)
(-0.098636 0.0335896 0)
(-0.105501 0.034382 0)
(-0.112393 0.0349529 0)
(-0.119266 0.035279 0)
(-0.126069 0.0353396 0)
(-0.132755 0.0351171 0)
(-0.139274 0.0345978 0)
(-0.145579 0.0337714 0)
(-0.151625 0.0326319 0)
(-0.157368 0.0311773 0)
(-0.162768 0.0294094 0)
(-0.167786 0.0273342 0)
(-0.172386 0.0249612 0)
(-0.176535 0.0223035 0)
(-0.180204 0.0193774 0)
(-0.183364 0.0162025 0)
(-0.185991 0.012801 0)
(-0.18806 0.00919799 0)
(-0.189553 0.0054212 0)
(-0.19045 0.00150069 0)
(-0.190737 -0.00253108 0)
(-0.1904 -0.0066396 0)
(-0.189429 -0.0107881 0)
(-0.187817 -0.014938 0)
(-0.185559 -0.0190488 0)
(-0.182655 -0.0230784 0)
(-0.179109 -0.0269835 0)
(-0.174927 -0.0307199 0)
(-0.170123 -0.0342427 0)
(-0.164715 -0.0375076 0)
(-0.158726 -0.0404706 0)
(-0.152186 -0.0430896 0)
(-0.145132 -0.0453249 0)
(-0.137609 -0.0471407 0)
(-0.129666 -0.0485053 0)
(-0.121361 -0.0493932 0)
(-0.11276 -0.0497855 0)
(-0.103933 -0.0496713 0)
(-0.0949561 -0.0490484 0)
(-0.0859112 -0.0479239 0)
(-0.076882 -0.0463148 0)
(-0.067954 -0.0442479 0)
(-0.0592124 -0.0417597 0)
(-0.0507404 -0.0388952 0)
(-0.042617 -0.0357077 0)
(-0.0349152 -0.0322565 0)
(-0.0277004 -0.0286056 0)
(-0.0210288 -0.024822 0)
(-0.0149462 -0.0209732 0)
(-0.00948734 -0.0171256 0)
(-0.00467516 -0.0133421 0)
(-0.000520992 -0.00968099 0)
(0.0029753 -0.00619428 0)
(0.00582461 -0.00292659 0)
(0.00804808 8.53883e-05 0)
(0.00967596 0.00281259 0)
(0.0107461 0.00523365 0)
(0.0113032 0.00733346 0)
(0.0113976 0.00910193 0)
(0.0110843 0.0105319 0)
(0.0104216 0.0116169 0)
(0.00947086 0.0123485 0)
(0.00829617 0.0127135 0)
(0.00696409 0.012692 0)
(0.00554454 0.0122549 0)
(0.00411217 0.011363 0)
(0.00274693 0.00996574 0)
(0.00153307 0.00800169 0)
(0.000582861 0.00539921 0)
(9.55006e-05 0.00207452 0)
(-2.09997e-05 -0.000207283 0)
(-0.000196194 -9.85735e-05 0)
(-0.000616816 0.000363983 0)
(-0.00125534 0.00106377 0)
(-0.00210339 0.00191907 0)
(-0.00315622 0.0028733 0)
(-0.00440871 0.00389086 0)
(-0.00585827 0.00495274 0)
(-0.00750617 0.00605208 0)
(-0.00935759 0.0071903 0)
(-0.0114214 0.00837387 0)
(-0.0137094 0.00961168 0)
(-0.0162358 0.0109131 0)
(-0.0190163 0.0122862 0)
(-0.022067 0.0137373 0)
(-0.0254037 0.0152698 0)
(-0.0290413 0.016884 0)
(-0.0329926 0.018577 0)
(-0.037268 0.0203425 0)
(-0.0418748 0.022171 0)
(-0.0468165 0.0240498 0)
(-0.0520924 0.0259628 0)
(-0.0576969 0.0278909 0)
(-0.0636197 0.029812 0)
(-0.0698448 0.0317012 0)
(-0.0763511 0.0335313 0)
(-0.0831119 0.0352729 0)
(-0.0900954 0.0368952 0)
(-0.0972651 0.0383669 0)
(-0.10458 0.0396561 0)
(-0.111997 0.040732 0)
(-0.119467 0.0415651 0)
(-0.126944 0.0421284 0)
(-0.134376 0.0423974 0)
(-0.141715 0.0423516 0)
(-0.14891 0.0419739 0)
(-0.155916 0.0412517 0)
(-0.162684 0.0401768 0)
(-0.169172 0.0387451 0)
(-0.175339 0.0369571 0)
(-0.181144 0.0348172 0)
(-0.186551 0.032334 0)
(-0.191528 0.0295195 0)
(-0.196041 0.0263892 0)
(-0.200062 0.0229621 0)
(-0.203563 0.0192598 0)
(-0.206521 0.0153068 0)
(-0.20891 0.0111306 0)
(-0.210711 0.00676076 0)
(-0.211904 0.00222962 0)
(-0.212472 -0.00242821 0)
(-0.212399 -0.00717572 0)
(-0.211674 -0.0119736 0)
(-0.210285 -0.0167804 0)
(-0.208224 -0.0215525 0)
(-0.205486 -0.0262443 0)
(-0.20207 -0.0308085 0)
(-0.197979 -0.0351964 0)
(-0.19322 -0.0393582 0)
(-0.187803 -0.0432438 0)
(-0.181748 -0.0468032 0)
(-0.175079 -0.0499878 0)
(-0.167826 -0.0527507 0)
(-0.160028 -0.0550486 0)
(-0.151732 -0.0568423 0)
(-0.142992 -0.0580987 0)
(-0.133872 -0.0587917 0)
(-0.124443 -0.0589036 0)
(-0.114783 -0.0584263 0)
(-0.104975 -0.0573625 0)
(-0.095111 -0.0557258 0)
(-0.0852828 -0.0535417 0)
(-0.0755852 -0.0508472 0)
(-0.0661122 -0.04769 0)
(-0.0569546 -0.044128 0)
(-0.048198 -0.0402272 0)
(-0.0399208 -0.0360602 0)
(-0.0321915 -0.0317038 0)
(-0.0250682 -0.0272367 0)
(-0.0185963 -0.0227372 0)
(-0.0128088 -0.0182807 0)
(-0.00772508 -0.0139375 0)
(-0.00335187 -0.00977153 0)
(0.000316654 -0.00583854 0)
(0.0032979 -0.00218545 0)
(0.00561988 0.00114964 0)
(0.00731956 0.00413719 0)
(0.00844183 0.00675563 0)
(0.00903845 0.00898934 0)
(0.00916651 0.0108267 0)
(0.00888745 0.0122575 0)
(0.00826634 0.0132702 0)
(0.00737133 0.0138489 0)
(0.00627358 0.0139705 0)
(0.00504774 0.0136021 0)
(0.00377312 0.012699 0)
(0.00253404 0.0112034 0)
(0.00141843 0.00904329 0)
(0.000539224 0.00613333 0)
(8.79116e-05 0.00237112 0)
(-3.30029e-05 -9.0079e-05 0)
(-0.000274792 0.000263576 0)
(-0.000831469 0.000968633 0)
(-0.00165222 0.00190239 0)
(-0.0027173 0.00298148 0)
(-0.00401528 0.00415053 0)
(-0.00553604 0.00537709 0)
(-0.00727396 0.00664636 0)
(-0.00922902 0.00795601 0)
(-0.0114065 0.0093118 0)
(-0.0138161 0.0107239 0)
(-0.0164713 0.0122041 0)
(-0.019388 0.0137637 0)
(-0.0225836 0.0154118 0)
(-0.0260756 0.0171545 0)
(-0.0298808 0.0189944 0)
(-0.0340146 0.0209299 0)
(-0.0384895 0.0229557 0)
(-0.0433151 0.0250625 0)
(-0.0484969 0.0272367 0)
(-0.0540363 0.0294614 0)
(-0.0599293 0.0317156 0)