/*--------------------------------*- C++ -*----------------------------------*\
  =========                 |
  \\      /  F ield         | OpenFOAM: The Open Source CFD Toolbox
   \\    /   O peration     | Website:  https://openfoam.org
    \\  /    A nd           | Version:  9
     \\/     M anipulation  |
\*---------------------------------------------------------------------------*/
FoamFile
{
    format      ascii;
    class       volScalarField;
    location    "3";
    object      p;
}
// * * * * * * * * * * * * * * * * * * * * * * * * * * * * * * * * * * * * * //

dimensions      [0 2 -2 0 0 0 0];

internalField   nonuniform List<scalar> 
1260
(
-0.107678
-0.108517
-0.109257
-0.109897
-0.110436
-0.110874
-0.11121
-0.111444
-0.111576
-0.111606
-0.111533
-0.11136
-0.111085
-0.110711
-0.110237
-0.109665
-0.108996
-0.108232
-0.107374
-0.106424
-0.105384
-0.104256
-0.103043
-0.101746
-0.100371
-0.0989186
-0.107727
-0.108569
-0.109312
-0.109955
-0.110497
-0.110937
-0.111274
-0.11151
-0.111642
-0.111672
-0.1116
-0.111425
-0.111149
-0.110773
-0.110296
-0.109721
-0.109049
-0.108281
-0.107419
-0.106464
-0.105419
-0.104286
-0.103067
-0.101766
-0.100385
-0.0989279
-0.107671
-0.108517
-0.109264
-0.10991
-0.110454
-0.110896
-0.111236
-0.111473
-0.111606
-0.111636
-0.111563
-0.111387
-0.11111
-0.110731
-0.110251
-0.109673
-0.108996
-0.108224
-0.107356
-0.106396
-0.105344
-0.104205
-0.10298
-0.101672
-0.100284
-0.0988202
-0.10751
-0.108361
-0.109112
-0.109761
-0.110309
-0.110754
-0.111096
-0.111334
-0.111468
-0.111498
-0.111424
-0.111247
-0.110968
-0.110586
-0.110103
-0.10952
-0.108839
-0.10806
-0.107186
-0.106219
-0.105161
-0.104013
-0.10278
-0.101464
-0.100068
-0.0985955
-0.107245
-0.108101
-0.108857
-0.10951
-0.110062
-0.11051
-0.110854
-0.111093
-0.111228
-0.111259
-0.111185
-0.111006
-0.110724
-0.110339
-0.109852
-0.109264
-0.108577
-0.107792
-0.106911
-0.105936
-0.104869
-0.103712
-0.102469
-0.101143
-0.0997365
-0.0982541
-0.106876
-0.107738
-0.108499
-0.109158
-0.109713
-0.110165
-0.110511
-0.110753
-0.110889
-0.11092
-0.110845
-0.110665
-0.11038
-0.109992
-0.1095
-0.108907
-0.108213
-0.107421
-0.106531
-0.105547
-0.10447
-0.103303
-0.102048
-0.10071
-0.0992915
-0.0977967
-0.106404
-0.107272
-0.10804
-0.108704
-0.109264
-0.10972
-0.11007
-0.110314
-0.110451
-0.110482
-0.110407
-0.110225
-0.109937
-0.109545
-0.109048
-0.108449
-0.107748
-0.106947
-0.106048
-0.105053
-0.103965
-0.102785
-0.101518
-0.100166
-0.0987335
-0.0972242
-0.105828
-0.106705
-0.107479
-0.10815
-0.108716
-0.109176
-0.10953
-0.109776
-0.109916
-0.109947
-0.109871
-0.109687
-0.109397
-0.109
-0.108498
-0.107892
-0.107183
-0.106373
-0.105463
-0.104457
-0.103355
-0.102162
-0.10088
-0.0995128
-0.0980639
-0.0965379
-0.10515
-0.106036
-0.106818
-0.107496
-0.108069
-0.108534
-0.108893
-0.109143
-0.109284
-0.109316
-0.10924
-0.109054
-0.108761
-0.10836
-0.107852
-0.107238
-0.10652
-0.1057
-0.104779
-0.103759
-0.102644
-0.101435
-0.100136
-0.0987515
-0.0972842
-0.0957392
-0.10437
-0.105266
-0.106058
-0.106745
-0.107325
-0.107797
-0.10816
-0.108414
-0.108558
-0.108591
-0.108515
-0.108328
-0.108031
-0.107625
-0.10711
-0.106489
-0.105762
-0.10493
-0.103996
-0.102963
-0.101832
-0.100606
-0.0992889
-0.0978844
-0.0963966
-0.0948301
-0.10349
-0.104397
-0.1052
-0.105896
-0.106485
-0.106964
-0.107334
-0.107592
-0.107739
-0.107774
-0.107698
-0.107509
-0.107209
-0.106798
-0.106277
-0.105647
-0.10491
-0.104066
-0.103119
-0.10207
-0.100921
-0.099677
-0.0983399
-0.0969138
-0.0954032
-0.0938129
-0.102508
-0.10343
-0.104245
-0.104952
-0.105551
-0.106038
-0.106415
-0.106679
-0.10683
-0.106867
-0.106791
-0.106601
-0.106298
-0.105882
-0.105354
-0.104715
-0.103967
-0.10311
-0.102148
-0.101083
-0.0999159
-0.0986512
-0.0972921
-0.0958425
-0.0943069
-0.0926904
-0.101428
-0.102365
-0.103194
-0.103914
-0.104524
-0.105021
-0.105406
-0.105676
-0.105832
-0.105872
-0.105797
-0.105606
-0.1053
-0.104879
-0.104343
-0.103695
-0.102936
-0.102066
-0.101088
-0.100005
-0.098818
-0.0975316
-0.0961488
-0.0946737
-0.0931109
-0.0914657
-0.100249
-0.101203
-0.102048
-0.102783
-0.103405
-0.103914
-0.104308
-0.104586
-0.104747
-0.104791
-0.104717
-0.104526
-0.104217
-0.103791
-0.103249
-0.102591
-0.101819
-0.100936
-0.0999412
-0.0988389
-0.0976312
-0.0963215
-0.0949133
-0.0934108
-0.0918188
-0.0901427
-0.0989729
-0.0999467
-0.10081
-0.101561
-0.102198
-0.102719
-0.103124
-0.10341
-0.103578
-0.103627
-0.103555
-0.103364
-0.103053
-0.102622
-0.102073
-0.101405
-0.100622
-0.0997228
-0.0987113
-0.0975892
-0.0963593
-0.0950249
-0.0935897
-0.092058
-0.0904347
-0.0887255
-0.0976007
-0.0985965
-0.0994801
-0.100249
-0.100903
-0.101439
-0.101856
-0.102153
-0.102328
-0.102382
-0.102314
-0.102123
-0.10181
-0.101375
-0.100819
-0.100142
-0.0993455
-0.0984316
-0.0974022
-0.0962595
-0.0950063
-0.0936461
-0.0921825
-0.09062
-0.0889636
-0.0872192
-0.0853934
-0.0834936
-0.0815283
-0.0961339
-0.0971543
-0.0980605
-0.0988506
-0.0995226
-0.100075
-0.100506
-0.100815
-0.101
-0.10106
-0.100996
-0.100807
-0.100493
-0.100054
-0.0994907
-0.098804
-0.0979953
-0.0970661
-0.0960183
-0.0948543
-0.0935771
-0.0921899
-0.0906967
-0.0891019
-0.0874108
-0.0856294
-0.0837644
-0.0818236
-0.0798158
-0.0945741
-0.0956219
-0.0965534
-0.0973666
-0.0980595
-0.0986302
-0.0990773
-0.0993994
-0.0995953
-0.0996643
-0.0996057
-0.0994191
-0.0991045
-0.0986622
-0.0980926
-0.0973966
-0.0965755
-0.0956308
-0.0945644
-0.0933788
-0.0920768
-0.0906619
-0.089138
-0.0875097
-0.0857825
-0.0839623
-0.0820564
-0.0800726
-0.07802
-0.0929234
-0.0940015
-0.0949611
-0.0958001
-0.0965162
-0.0971077
-0.0975729
-0.0979103
-0.0981189
-0.0981975
-0.0981456
-0.0979628
-0.0976489
-0.0972041
-0.0966289
-0.0959241
-0.0950909
-0.0941308
-0.0930459
-0.0918384
-0.0905113
-0.0890681
-0.0875128
-0.0858502
-0.0840856
-0.0822255
-0.080277
-0.0782485
-0.0761491
-0.0911844
-0.0922958
-0.0932865
-0.0941539
-0.0948959
-0.0955106
-0.0959961
-0.096351
-0.096574
-0.0966641
-0.0966205
-0.0964428
-0.0961307
-0.0956845
-0.0951046
-0.0943917
-0.093547
-0.092572
-0.0914687
-0.0902394
-0.0888872
-0.0874155
-0.0858284
-0.0841307
-0.0823281
-0.0804271
-0.0784349
-0.0763602
-0.0742124
-0.0893602
-0.0905081
-0.0915328
-0.0924316
-0.0932023
-0.0938427
-0.094351
-0.0947255
-0.094965
-0.0950684
-0.0950349
-0.0948639
-0.0945551
-0.0941088
-0.0935252
-0.0928052
-0.0919498
-0.0909606
-0.0898394
-0.0885888
-0.0872117
-0.0857116
-0.0840927
-0.0823599
-0.0805189
-0.0785763
-0.0765398
-0.0744179
-0.0722205
-0.0874549
-0.0886425
-0.0897043
-0.0906375
-0.0914396
-0.0921084
-0.092642
-0.0930386
-0.0932969
-0.0934157
-0.0933941
-0.0932316
-0.0929278
-0.0924828
-0.091897
-0.0911711
-0.0903062
-0.0893037
-0.0881656
-0.0868945
-0.0854931
-0.0839651
-0.0823148
-0.0805471
-0.0786678
-0.0766837
-0.0746026
-0.0724331
-0.0701854
-0.0854733
-0.0867038
-0.0878059
-0.0887765
-0.089613
-0.090313
-0.0908746
-0.0912958
-0.0915752
-0.0917117
-0.0917042
-0.0915521
-0.0912552
-0.0908133
-0.0902269
-0.0894967
-0.0886236
-0.0876093
-0.0864556
-0.085165
-0.0837405
-0.0821856
-0.0805048
-0.078703
-0.0767861
-0.074761
-0.0726355
-0.0704186
-0.0681204
-0.0834217
-0.0846983
-0.0858438
-0.0868548
-0.0877286
-0.0884628
-0.089055
-0.0895035
-0.0898066
-0.0899631
-0.089972
-0.0898326
-0.0895446
-0.0891079
-0.0885229
-0.0877902
-0.0869108
-0.0858863
-0.0847186
-0.0834102
-0.0819641
-0.0803839
-0.0786739
-0.0768393
-0.074886
-0.072821
-0.0706521
-0.0683884
-0.0660402
-0.0813077
-0.0826334
-0.0838253
-0.0848798
-0.0857939
-0.086565
-0.0871908
-0.0876692
-0.0879987
-0.0881778
-0.0882055
-0.0880812
-0.0878045
-0.0873752
-0.0867937
-0.0860607
-0.0851772
-0.0841446
-0.0829651
-0.0816409
-0.0801752
-0.0785716
-0.0768345
-0.074969
-0.0729812
-0.070878
-0.0686673
-0.0663582
-0.0639611
-0.0791404
-0.0805182
-0.0817594
-0.0828603
-0.0838176
-0.0846285
-0.0852906
-0.0858017
-0.0861602
-0.0863646
-0.0864138
-0.0863072
-0.0860442
-0.0856249
-0.0850495
-0.0843186
-0.0834334
-0.0823954
-0.0812064
-0.079869
-0.0783863
-0.0767619
-0.0750002
-0.0731064
-0.0710865
-0.0689475
-0.0666972
-0.0643448
-0.0619005
-0.0769308
-0.0783633
-0.0796566
-0.0808066
-0.0818099
-0.0826634
-0.0833645
-0.0839111
-0.0843014
-0.0845338
-0.0846072
-0.0845209
-0.0842745
-0.0838679
-0.0833013
-0.0825754
-0.0816914
-0.0806507
-0.0794553
-0.0781077
-0.076611
-0.0749689
-0.0731858
-0.0712668
-0.0692179
-0.0670461
-0.0647592
-0.0623662
-0.0598771
-0.0746919
-0.0761815
-0.0775293
-0.0787309
-0.0797827
-0.0806814
-0.0814243
-0.082009
-0.0824337
-0.0826969
-0.0827974
-0.0827343
-0.0825073
-0.0821162
-0.0815615
-0.0808437
-0.079964
-0.0789239
-0.0777255
-0.0763712
-0.0748641
-0.0732079
-0.071407
-0.0694666
-0.0673925
-0.0651916
-0.0628716
-0.0604412
-0.0579103
-0.0724386
-0.0739873
-0.0753916
-0.0766471
-0.0777497
-0.078696
-0.0794831
-0.0801086
-0.0805704
-0.0808671
-0.0809973
-0.0809603
-0.0807557
-0.0803834
-0.0798438
-0.0791374
-0.0782654
-0.0772296
-0.0760318
-0.0746745
-0.073161
-0.0714949
-0.0696805
-0.0677229
-0.0656278
-0.0634021
-0.0610531
-0.0585893
-0.0560201
-0.070188
-0.0717972
-0.0732598
-0.0745709
-0.0757263
-0.0767224
-0.0775559
-0.0782245
-0.078726
-0.0790587
-0.0792215
-0.0792135
-0.0790344
-0.0786839
-0.0781626
-0.0774712
-0.0766107
-0.0755829
-0.0743898
-0.0730339
-0.0715183
-0.0698467
-0.0680233
-0.0660532
-0.0639419
-0.061696
-0.0593225
-0.0568295
-0.054226
-0.0679588
-0.0696295
-0.0711517
-0.0725199
-0.0737297
-0.0747772
-0.0756592
-0.0763729
-0.0769163
-0.0772876
-0.0774856
-0.0775094
-0.0773587
-0.0770333
-0.0765338
-0.0758609
-0.0750157
-0.0739999
-0.0728156
-0.0714654
-0.0699524
-0.06828
-0.0664526
-0.0644749
-0.0623523
-0.060091
-0.0576978
-0.0551801
-0.0525462
-0.0657717
-0.0675045
-0.0690868
-0.070513
-0.0717783
-0.0728786
-0.0738106
-0.0745713
-0.0751586
-0.0755706
-0.0758062
-0.0758645
-0.075745
-0.0754478
-0.0749734
-0.0743225
-0.0734963
-0.0724966
-0.0713255
-0.0699854
-0.0684795
-0.0668112
-0.0649846
-0.0630042
-0.0608753
-0.0586035
-0.0561951
-0.0536571
-0.0509968
-0.0636487
-0.0654434
-0.067086
-0.0685705
-0.0698919
-0.0710459
-0.0720288
-0.0728379
-0.0734706
-0.0739253
-0.0742005
-0.0742956
-0.07421
-0.0739438
-0.0734975
-0.072872
-0.0720686
-0.0710887
-0.0699347
-0.068609
-0.0671145
-0.0654548
-0.0636336
-0.0616552
-0.0595245
-0.0572468
-0.0548277
-0.0522733
-0.0495901
-0.0616128
-0.0634686
-0.0651709
-0.0667134
-0.0680909
-0.0692987
-0.0703332
-0.0711914
-0.0718706
-0.0723692
-0.0726858
-0.0728194
-0.0727699
-0.0725371
-0.0721217
-0.0715244
-0.0707466
-0.0697901
-0.0686567
-0.067349
-0.06587
-0.0642227
-0.0624109
-0.0604386
-0.0583102
-0.0560303
-0.0536041
-0.0510367
-0.0483335
-0.0596871
-0.0616025
-0.0633632
-0.0649628
-0.0663955
-0.0676568
-0.0687427
-0.06965
-0.0703761
-0.0709193
-0.071278
-0.0714515
-0.0714394
-0.0712418
-0.0708591
-0.0702922
-0.0695426
-0.0686117
-0.0675018
-0.066215
-0.0647543
-0.0631226
-0.0613233
-0.0593601
-0.057237
-0.0549579
-0.0525272
-0.0499492
-0.0472281
-0.0578942
-0.0598668
-0.0616839
-0.0633385
-0.064825
-0.0661383
-0.0672744
-0.0682301
-0.0690026
-0.06959
-0.0699909
-0.0702045
-0.0702303
-0.0700685
-0.0697194
-0.0691841
-0.0684639
-0.0675602
-0.0664752
-0.0652111
-0.0637705
-0.0621563
-0.0603714
-0.0584193
-0.0563032
-0.0540267
-0.0515932
-0.049006
-0.0462681
-0.0562542
-0.0582807
-0.0601509
-0.0618577
-0.0633952
-0.0647581
-0.0659422
-0.0669443
-0.0677614
-0.0683917
-0.0688335
-0.0690862
-0.0691492
-0.0690225
-0.0687068
-0.0682029
-0.067512
-0.0666357
-0.0655759
-0.0643348
-0.0629148
-0.0613185
-0.0595488
-0.0576083
-0.0554999
-0.0532266
-0.0507909
-0.048195
-0.0454406
-0.0547821
-0.056858
-0.058777
-0.0605318
-0.0621162
-0.0635249
-0.0647536
-0.0657988
-0.0666575
-0.0673278
-0.0678081
-0.0680974
-0.0681954
-0.0681021
-0.067818
-0.0673439
-0.066681
-0.0658309
-0.0647954
-0.0635764
-0.0621762
-0.060597
-0.0588418
-0.0569125
-0.0548115
-0.0525411
-0.0501029
-0.0474981
-0.044727
-0.0534847
-0.055604
-0.0575661
-0.0593634
-0.0609896
-0.0624391
-0.0637075
-0.0647911
-0.0656871
-0.0663933
-0.0669081
-0.0672306
-0.0673603
-0.0672972
-0.0670418
-0.0665948
-0.0659575
-0.0651313
-0.0641179
-0.0629192
-0.0615372
-0.059974
-0.0582315
-0.0563123
-0.0542178
-0.0519495
-0.0495082
-0.046894
-0.0441059
-0.0523564
-0.0545124
-0.0565109
-0.0583442
-0.0600057
-0.0614899
-0.0627922
-0.0639089
-0.064837
-0.0655742
-0.0661189
-0.0664702
-0.0666275
-0.0665909
-0.0663606
-0.0659376
-0.0653229
-0.0645179
-0.0635242
-0.0623434
-0.0609776
-0.0594284
-0.0576977
-0.0557872
-0.0536981
-0.0514312
-0.0489865
-0.0463628
-0.043558
-0.0513787
-0.0535641
-0.0555919
-0.0574545
-0.0591449
-0.0606577
-0.0619881
-0.0631323
-0.0640872
-0.0648505
-0.0654206
-0.0657965
-0.0659775
-0.0659637
-0.0657554
-0.0653533
-0.0647585
-0.0639723
-0.0629962
-0.0618317
-0.0604804
-0.0589439
-0.0572239
-0.0553214
-0.0532375
-0.0509721
-0.0485243
-0.045892
-0.0430718
-0.0505269
-0.0527352
-0.0547862
-0.0566721
-0.0583859
-0.059922
-0.0612756
-0.0624427
-0.0634202
-0.0642057
-0.0647976
-0.0651948
-0.0653966
-0.0654029
-0.0652141
-0.0648307
-0.0642539
-0.063485
-0.0625255
-0.0613766
-0.0600394
-0.058515
-0.0568056
-0.0549115
-0.0528334
-0.0505704
-0.048121
-0.0454823
-0.0426496
-0.0497861
-0.0520129
-0.0540831
-0.0559884
-0.0577221
-0.0592782
-0.0606518
-0.0618389
-0.0628364
-0.0636418
-0.0642534
-0.0646699
-0.0648908
-0.0649159
-0.0647454
-0.0643798
-0.0638199
-0.0630669
-0.062123
-0.0609898
-0.0596679
-0.0581547
-0.0564562
-0.0545727
-0.0525021
-0.0502436
-0.0477954
-0.0451537
-0.0423131
-0.0491221
-0.0513696
-0.0534609
-0.0553877
-0.0571429
-0.0587208
-0.0601161
-0.061325
-0.0623441
-0.0631708
-0.0638035
-0.0642408
-0.0644821
-0.0645272
-0.0643765
-0.0640303
-0.0634891
-0.0627528
-0.0618243
-0.0607052
-0.0593965
-0.0579028
-0.0562195
-0.0543473
-0.0522865
-0.0500361
-0.0475935
-0.0449548
-0.0421135
-0.0484305
-0.0507122
-0.0528374
-0.0547979
-0.0565864
-0.0581969
-0.0596244
-0.0608647
-0.0619144
-0.0627711
-0.0634328
-0.0638982
-0.0641667
-0.0642381
-0.0641124
-0.0637906
-0.0632743
-0.0625654
-0.0616611
-0.0605621
-0.0592734
-0.057797
-0.056131
-0.0542753
-0.05223
-0.0499941
-0.0475648
-0.0449377
-0.0421064
)
;

boundaryField
{
    movingWall
    {
        type            zeroGradient;
    }
    fixedWalls
    {
        type            zeroGradient;
    }
    frontAndBack
    {
        type            empty;
    }
    procBoundary5to2
    {
        type            processor;
        value           nonuniform List<scalar> 
29
(
-0.0950014
-0.0934124
-0.0917293
-0.0899548
-0.0880919
-0.0861445
-0.0841177
-0.0820175
-0.0798519
-0.0776302
-0.0753636
-0.0730654
-0.0707511
-0.0684379
-0.0661455
-0.0638949
-0.0617088
-0.0596108
-0.0576247
-0.055774
-0.0540797
-0.052558
-0.0512168
-0.0500518
-0.0490449
-0.0481706
-0.0474119
-0.0467277
-0.0460019
)
;
    }
    procBoundary5to3
    {
        type            processor;
        value           nonuniform List<scalar> 
21
(
-0.107525
-0.108361
-0.109098
-0.109735
-0.110272
-0.106741
-0.106786
-0.106726
-0.10656
-0.10629
-0.105915
-0.105435
-0.104851
-0.104163
-0.103372
-0.102478
-0.101483
-0.100385
-0.0991878
-0.0978906
-0.0964947
)
;
    }
    procBoundary5to4
    {
        type            processor;
        value           nonuniform List<scalar> 
48
(
-0.097394
-0.0973988
-0.0972847
-0.0970518
-0.0967002
-0.0962304
-0.0956432
-0.0949397
-0.0941214
-0.0931902
-0.0921484
-0.0909986
-0.0897441
-0.0883887
-0.0869368
-0.0869368
-0.0850757
-0.0831504
-0.079507
-0.0777508
-0.0759088
-0.0739894
-0.0720023
-0.0699586
-0.0678706
-0.0657523
-0.0636189
-0.0614873
-0.0593756
-0.057303
-0.0552897
-0.0533559
-0.0515215
-0.0498049
-0.048222
-0.0467848
-0.0454999
-0.0443679
-0.043382
-0.0425287
-0.041789
-0.0411416
-0.0405681
-0.0400581
-0.0396158
-0.0392652
-0.0390606
-0.0390617
)
;
    }
    procBoundary5to6
    {
        type            processor;
        value           nonuniform List<scalar> 
21
(
-0.110708
-0.111043
-0.111275
-0.111407
-0.111436
-0.111364
-0.111191
-0.110918
-0.110544
-0.110073
-0.109503
-0.108837
-0.108076
-0.107222
-0.106275
-0.105239
-0.104115
-0.102905
-0.101613
-0.100241
-0.0987923
)
;
    }
}


// ************************************************************************* //
