/*--------------------------------*- C++ -*----------------------------------*\
  =========                 |
  \\      /  F ield         | OpenFOAM: The Open Source CFD Toolbox
   \\    /   O peration     | Website:  https://openfoam.org
    \\  /    A nd           | Version:  9
     \\/     M anipulation  |
\*---------------------------------------------------------------------------*/
FoamFile
{
    format      ascii;
    class       surfaceScalarField;
    location    "3";
    object      phi;
}
// * * * * * * * * * * * * * * * * * * * * * * * * * * * * * * * * * * * * * //

dimensions      [0 3 -1 0 0 0 0];

internalField   nonuniform List<scalar> 
2446
(
-3.60469e-08
9.01613e-07
-4.40674e-08
7.98151e-07
-5.24803e-08
6.94676e-07
-6.13152e-08
5.91161e-07
-7.05986e-08
4.87582e-07
-8.03544e-08
3.83923e-07
-9.06037e-08
2.80166e-07
-1.01365e-07
1.76297e-07
-1.12654e-07
7.22957e-08
-1.24483e-07
-3.18561e-08
-1.36864e-07
-1.36182e-07
-1.49803e-07
-2.40709e-07
-1.63306e-07
-3.45468e-07
-1.77375e-07
-4.50492e-07
-1.92006e-07
-5.55821e-07
-2.07196e-07
-6.61494e-07
-2.22934e-07
-7.67554e-07
-2.39206e-07
-8.74041e-07
-2.55993e-07
-9.80997e-07
-2.73269e-07
-1.08846e-06
-2.91002e-07
-1.19644e-06
-3.09154e-07
-1.30498e-06
-3.27678e-07
-1.41405e-06
-3.46521e-07
-1.52365e-06
-3.65621e-07
-1.63372e-06
-1.74419e-06
6.27501e-08
9.08927e-07
5.50312e-08
8.0587e-07
4.68724e-08
7.02835e-07
3.82414e-08
5.99792e-07
2.91095e-08
4.96714e-07
1.9451e-08
3.93582e-07
9.24327e-09
2.90374e-07
-1.53342e-09
1.87073e-07
-1.28959e-08
8.36581e-08
-2.48583e-08
-1.98938e-08
-3.74318e-08
-1.23609e-07
-5.0625e-08
-2.27516e-07
-6.44433e-08
-3.31649e-07
-7.88894e-08
-4.36046e-07
-9.39623e-08
-5.40748e-07
-1.09658e-07
-6.45799e-07
-1.25967e-07
-7.51244e-07
-1.42879e-07
-8.5713e-07
-1.60374e-07
-9.63502e-07
-1.7843e-07
-1.0704e-06
-1.97018e-07
-1.17785e-06
-2.16104e-07
-1.28589e-06
-2.35642e-07
-1.39451e-06
-2.55585e-07
-1.5037e-06
-2.75875e-07
-1.61343e-06
-1.72362e-06
1.61945e-07
9.15872e-07
1.54551e-07
8.13263e-07
1.46669e-07
7.10717e-07
1.38265e-07
6.08196e-07
1.29306e-07
5.05673e-07
1.19766e-07
4.03122e-07
1.09619e-07
3.00521e-07
9.88449e-08
1.97847e-07
8.74253e-08
9.50777e-08
7.53451e-08
-7.81351e-09
6.25919e-08
-1.10855e-07
4.91565e-08
-2.1408e-07
3.50323e-08
-3.17525e-07
2.0216e-08
-4.2123e-07
4.70751e-09
-5.2524e-07
-1.14901e-08
-6.29601e-07
-2.83698e-08
-7.34364e-07
-4.59205e-08
-8.3958e-07
-6.41267e-08
-9.45296e-07
-8.29678e-08
-1.05156e-06
-1.02418e-07
-1.1584e-06
-1.22444e-07
-1.26586e-06
-1.43009e-07
-1.37395e-06
-1.64065e-07
-1.48265e-06
-1.85559e-07
-1.59193e-06
-1.70175e-06
2.6156e-07
9.22423e-07
2.54514e-07
8.20309e-07
2.46933e-07
7.18298e-07
2.38778e-07
6.16351e-07
2.30015e-07
5.14436e-07
2.20615e-07
4.12523e-07
2.1055e-07
3.10586e-07
1.99798e-07
2.08599e-07
1.88339e-07
1.06536e-07
1.76158e-07
4.36802e-09
1.6324e-07
-9.79375e-08
1.49575e-07
-2.00416e-07
1.35157e-07
-3.03106e-07
1.19979e-07
-4.06053e-07
1.04042e-07
-5.09302e-07
8.73472e-08
-6.12906e-07
6.99003e-08
-7.16917e-07
5.17106e-08
-8.2139e-07
3.27919e-08
-9.26377e-07
1.31621e-08
-1.03193e-06
-7.15541e-09
-1.13809e-06
-2.81319e-08
-1.24489e-06
-4.97323e-08
-1.35235e-06
-7.19148e-08
-1.46046e-06
-9.4631e-08
-1.56922e-06
-1.67855e-06
3.61622e-07
9.28557e-07
3.54949e-07
8.26981e-07
3.47693e-07
7.25555e-07
3.39811e-07
6.24233e-07
3.31267e-07
5.2298e-07
3.22029e-07
4.21761e-07
3.12068e-07
3.20547e-07
3.01359e-07
2.19308e-07
2.89881e-07
1.18014e-07
2.77616e-07
1.66326e-08
2.6455e-07
-8.48714e-08
2.50671e-07
-1.86537e-07
2.35971e-07
-2.88406e-07
2.20443e-07
-3.90525e-07
2.04086e-07
-4.92945e-07
1.86901e-07
-5.95721e-07
1.68891e-07
-6.98908e-07
1.50064e-07
-8.02563e-07
1.30432e-07
-9.06745e-07
1.10011e-07
-1.01151e-06
8.882e-08
-1.1169e-06
6.68855e-08
-1.22295e-06
4.42381e-08
-1.3297e-06
2.09152e-08
-1.43714e-06
-3.03926e-09
-1.54526e-06
-1.65402e-06
4.62166e-07
9.34251e-07
4.5589e-07
8.33257e-07
4.48982e-07
7.32463e-07
4.41398e-07
6.31818e-07
4.33097e-07
5.3128e-07
4.24045e-07
4.30813e-07
4.14211e-07
3.30381e-07
4.03567e-07
2.29952e-07
3.92091e-07
1.2949e-07
3.79763e-07
2.89606e-08
3.66567e-07
-7.16753e-08
3.5249e-07
-1.7246e-07
3.37522e-07
-2.73438e-07
3.21657e-07
-3.7466e-07
3.04891e-07
-4.76179e-07
2.87223e-07
-5.78053e-07
2.68656e-07
-6.80341e-07
2.49196e-07
-7.83103e-07
2.28851e-07
-8.86401e-07
2.07636e-07
-9.90292e-07
1.85568e-07
-1.09483e-06
1.62667e-07
-1.20005e-06
1.38962e-07
-1.30599e-06
1.14484e-07
-1.41266e-06
8.92721e-08
-1.52005e-06
-1.62812e-06
5.63236e-07
9.3948e-07
5.5738e-07
8.39113e-07
5.50845e-07
7.38998e-07
5.43582e-07
6.3908e-07
5.35549e-07
5.39314e-07
5.26707e-07
4.39655e-07
5.17023e-07
3.40066e-07
5.06467e-07
2.40507e-07
4.95015e-07
1.40942e-07
4.82645e-07
4.13309e-08
4.69339e-07
-5.83692e-08
4.55082e-07
-1.58203e-07
4.39864e-07
-2.5822e-07
4.23676e-07
-3.58472e-07
4.06513e-07
-4.59016e-07
3.88373e-07
-5.59913e-07
3.69257e-07
-6.61224e-07
3.49168e-07
-7.63014e-07
3.28113e-07
-8.65346e-07
3.06104e-07
-9.68282e-07
2.83153e-07
-1.07188e-06
2.59279e-07
-1.17618e-06
2.34505e-07
-1.28122e-06
2.08858e-07
-1.38702e-06
1.82371e-07
-1.49356e-06
-1.60083e-06
6.64881e-07
9.44221e-07
6.5947e-07
8.44524e-07
6.53332e-07
7.45136e-07
6.46415e-07
6.45997e-07
6.38674e-07
5.47055e-07
6.30067e-07
4.48262e-07
6.20558e-07
3.49575e-07
6.10115e-07
2.50951e-07
5.98709e-07
1.52348e-07
5.86319e-07
5.37211e-08
5.72924e-07
-4.49741e-08
5.58508e-07
-1.43787e-07
5.43057e-07
-2.42769e-07
5.26563e-07
-3.41978e-07
5.09018e-07
-4.41471e-07
4.90417e-07
-5.41313e-07
4.70761e-07
-6.41568e-07
4.5005e-07
-7.42303e-07
4.28289e-07
-8.43585e-07
4.05485e-07
-9.45478e-07
3.81649e-07
-1.04804e-06
3.56795e-07
-1.15132e-06
3.30941e-07
-1.25537e-06
3.04109e-07
-1.36019e-06
2.76328e-07
-1.46578e-06
-1.57213e-06
7.67162e-07
9.48452e-07
7.62219e-07
8.49467e-07
7.56503e-07
7.50852e-07
7.49957e-07
6.52542e-07
7.42533e-07
5.54479e-07
7.34186e-07
4.56609e-07
7.24877e-07
3.58884e-07
7.1457e-07
2.61257e-07
7.03237e-07
1.63681e-07
6.9085e-07
6.61078e-08
6.77388e-07
-3.15125e-08
6.62833e-07
-1.29232e-07
6.4717e-07
-2.27106e-07
6.30387e-07
-3.25195e-07
6.12475e-07
-4.23559e-07
5.93428e-07
-5.22266e-07
5.73242e-07
-6.21382e-07
5.51917e-07
-7.20978e-07
5.29454e-07
-8.21122e-07
5.05857e-07
-9.21881e-07
4.81134e-07
-1.02332e-06
4.55293e-07
-1.12548e-06
4.28349e-07
-1.22842e-06
4.00318e-07
-1.33215e-06
3.71222e-07
-1.43669e-06
-1.542e-06
8.70149e-07
9.52147e-07
8.65699e-07
8.53918e-07
8.60428e-07
7.56123e-07
8.54278e-07
6.58692e-07
8.47197e-07
5.6156e-07
8.39135e-07
4.64671e-07
8.3005e-07
3.67969e-07
8.19906e-07
2.71402e-07
8.08668e-07
1.74919e-07
7.9631e-07
7.84667e-08
7.82805e-07
-1.80078e-08
7.68134e-07
-1.14561e-07
7.52279e-07
-2.11252e-07
7.35226e-07
-3.08142e-07
7.16965e-07
-4.05298e-07
6.97486e-07
-5.02786e-07
6.76783e-07
-6.00679e-07
6.54853e-07
-6.99048e-07
6.31694e-07
-7.97963e-07
6.07306e-07
-8.97494e-07
5.81693e-07
-9.97704e-07
5.5486e-07
-1.09865e-06
5.26814e-07
-1.20038e-06
4.97568e-07
-1.30291e-06
4.67136e-07
-1.40625e-06
-1.5104e-06
9.7392e-07
9.5528e-07
9.69987e-07
8.57851e-07
9.65188e-07
7.60923e-07
9.59459e-07
6.6442e-07
9.52745e-07
5.68275e-07
9.44994e-07
4.72422e-07
9.3616e-07
3.76803e-07
9.26203e-07
2.81359e-07
9.15087e-07
1.86035e-07
9.02781e-07
9.0773e-08
8.89257e-07
-4.48401e-09
8.74493e-07
-9.97966e-08
8.58468e-07
-1.95227e-07
8.41166e-07
-2.9084e-07
8.22573e-07
-3.86705e-07
8.02678e-07
-4.82891e-07
7.81471e-07
-5.79473e-07
7.58946e-07
-6.76523e-07
7.35097e-07
-7.74114e-07
7.09921e-07
-8.72318e-07
6.83417e-07
-9.712e-07
6.55584e-07
-1.07082e-06
6.26426e-07
-1.17122e-06
5.95948e-07
-1.27243e-06
5.64158e-07
-1.37447e-06
-1.47731e-06
1.07856e-06
9.57825e-07
1.07517e-06
8.61239e-07
1.07087e-06
7.65225e-07
1.06559e-06
6.69702e-07
1.05927e-06
5.74595e-07
1.05185e-06
4.79837e-07
1.0433e-06
3.8536e-07
1.03355e-06
2.91103e-07
1.02258e-06
1.97004e-07
1.01035e-06
1.03002e-07
9.96836e-07
9.03428e-09
9.82002e-07
-8.49625e-08
9.65829e-07
-1.79054e-07
9.48299e-07
-2.73309e-07
9.29393e-07
-3.67799e-07
9.09098e-07
-4.62596e-07
8.87401e-07
-5.57775e-07
8.64291e-07
-6.53413e-07
8.39759e-07
-7.49582e-07
8.13797e-07
-8.46356e-07
7.864e-07
-9.43802e-07
7.57561e-07
-1.04198e-06
7.27279e-07
-1.14093e-06
6.95551e-07
-1.2407e-06
6.62379e-07
-1.34129e-06
-1.4427e-06
1.18416e-06
9.59749e-07
1.18135e-06
8.64053e-07
1.17757e-06
7.69002e-07
1.17277e-06
6.7451e-07
1.16686e-06
5.80496e-07
1.15981e-06
4.86888e-07
1.15156e-06
3.93615e-07
1.14205e-06
3.00607e-07
1.13126e-06
2.078e-07
1.11913e-06
1.15128e-07
1.10564e-06
2.25228e-08
1.09076e-06
-7.0082e-08
1.07446e-06
-1.62756e-07
1.05672e-06
-2.5557e-07
1.03752e-06
-3.48599e-07
1.01685e-06
-4.41917e-07
9.94671e-07
-5.35601e-07
9.70986e-07
-6.29728e-07
9.45777e-07
-7.24374e-07
9.19032e-07
-8.19611e-07
8.90739e-07
-9.15509e-07
8.60886e-07
-1.01213e-06
8.29466e-07
-1.10951e-06
7.96469e-07
-1.20771e-06
7.6189e-07
-1.30672e-06
-1.40654e-06
1.29083e-06
9.61016e-07
1.28862e-06
8.66261e-07
1.2854e-06
7.72223e-07
1.28109e-06
6.78814e-07
1.27564e-06
5.85949e-07
1.26898e-06
4.9355e-07
1.26105e-06
4.0154e-07
1.25181e-06
3.09847e-07
1.24121e-06
2.18399e-07
1.22922e-06
1.27126e-07
1.21578e-06
3.59577e-08
1.20088e-06
-5.5178e-08
1.18447e-06
-1.46354e-07
1.16655e-06
-2.37643e-07
1.14707e-06
-3.29123e-07
1.12602e-06
-4.20869e-07
1.10338e-06
-5.12962e-07
1.07913e-06
-6.05477e-07
1.05325e-06
-6.98493e-07
1.02572e-06
-7.92083e-07
9.96531e-07
-8.86315e-07
9.65655e-07
-9.81251e-07
9.33082e-07
-1.07694e-06
8.98794e-07
-1.17342e-06
8.62781e-07
-1.2707e-06
-1.36879e-06
1.39864e-06
9.61584e-07
1.39707e-06
8.67822e-07
1.39444e-06
7.74853e-07
1.39068e-06
6.82583e-07
1.3857e-06
5.90924e-07
1.37946e-06
4.99793e-07
1.37189e-06
4.09109e-07
1.36294e-06
3.18795e-07
1.35257e-06
2.28774e-07
1.34072e-06
1.38973e-07
1.32736e-06
4.93154e-08
1.31246e-06
-4.02728e-08
1.29597e-06
-1.29868e-07
1.27787e-06
-2.19546e-07
1.25814e-06
-3.09386e-07
1.23674e-06
-3.99467e-07
1.21364e-06
-4.89868e-07
1.18883e-06
-5.80668e-07
1.16228e-06
-6.71944e-07
1.13397e-06
-7.63771e-07
1.10387e-06
-8.56216e-07
1.07196e-06
-9.49341e-07
1.03822e-06
-1.0432e-06
1.00262e-06
-1.13782e-06
9.65138e-07
-1.23322e-06
-1.32941e-06
1.50768e-06
9.61401e-07
1.50681e-06
8.68693e-07
1.50481e-06
7.7685e-07
1.50162e-06
6.85779e-07
1.49715e-06
5.95386e-07
1.49136e-06
5.05586e-07
1.48418e-06
4.16292e-07
1.47555e-06
3.27424e-07
1.46542e-06
2.38901e-07
1.45375e-06
1.50643e-07
1.44049e-06
6.25731e-08
1.42561e-06
-2.53875e-08
1.40906e-06
-1.13318e-07
1.39081e-06
-2.01297e-07
1.37083e-06
-2.89405e-07
1.34908e-06
-3.77722e-07
1.32554e-06
-4.66329e-07
1.30018e-06
-5.55305e-07
1.27296e-06
-6.44727e-07
1.24386e-06
-7.3467e-07
1.21285e-06
-8.25201e-07
1.17989e-06
-9.16381e-07
1.14495e-06
-1.00826e-06
1.10801e-06
-1.10088e-06
1.06904e-06
-1.19425e-06
1.028e-06
-1.28838e-06
9.84878e-07
-1.38324e-06
9.39654e-07
-1.47879e-06
-1.57496e-06
1.61802e-06
9.60405e-07
1.6179e-06
8.68818e-07
1.61658e-06
7.78168e-07
1.614e-06
6.88359e-07
1.61009e-06
5.99298e-07
1.60478e-06
5.10894e-07
1.59801e-06
4.23058e-07
1.58973e-06
3.35705e-07
1.57988e-06
2.48751e-07
1.56841e-06
1.62113e-07
1.55528e-06
7.57089e-08
1.54043e-06
-1.05417e-08
1.52383e-06
-9.67211e-08
1.50545e-06
-1.8291e-07
1.48523e-06
-2.6919e-07
1.46315e-06
-3.55644e-07
1.43918e-06
-4.4235e-07
1.41326e-06
-5.29391e-07
1.38538e-06
-6.16841e-07
1.35548e-06
-7.04775e-07
1.32354e-06
-7.9326e-07
1.28951e-06
-8.82356e-07
1.25336e-06
-9.72112e-07
1.21505e-06
-1.06257e-06
1.17455e-06
-1.15374e-06
1.1318e-06
-1.24563e-06
1.08679e-06
-1.33823e-06
1.03949e-06
-1.43149e-06
-1.52536e-06
1.7297e-06
9.58518e-07
1.73039e-06
8.6813e-07
1.72981e-06
7.78747e-07
1.7279e-06
6.90274e-07
1.72458e-06
6.02615e-07
1.7198e-06
5.15678e-07
1.71348e-06
4.29372e-07
1.70558e-06
3.43608e-07
1.69603e-06
2.58298e-07
1.68479e-06
1.73357e-07
1.6718e-06
8.87009e-08
1.65701e-06
4.24563e-09
1.64038e-06
-8.00938e-08
1.62187e-06
-1.64399e-07
1.60143e-06
-2.48753e-07
1.57903e-06
-3.33238e-07
1.55461e-06
-4.17935e-07
1.52815e-06
-5.02923e-07
1.49958e-06
-5.88279e-07
1.46888e-06
-6.74074e-07
1.436e-06
-7.60376e-07
1.40089e-06
-8.47243e-07
1.3635e-06
-9.34724e-07
1.32379e-06
-1.02286e-06
1.28171e-06
-1.11166e-06
1.23722e-06
-1.20114e-06
1.19027e-06
-1.29129e-06
1.14084e-06
-1.38206e-06
-1.47341e-06
1.84272e-06
9.5565e-07
1.8443e-06
8.6655e-07
1.84453e-06
7.78519e-07
1.84334e-06
6.91462e-07
1.84068e-06
6.05284e-07
1.83646e-06
5.19893e-07
1.83064e-06
4.35194e-07
1.82315e-06
3.51097e-07
1.81394e-06
2.67512e-07
1.80294e-06
1.84351e-07
1.79012e-06
1.01528e-07
1.77541e-06
1.8956e-08
1.75876e-06
-6.345e-08
1.74014e-06
-1.45774e-07
1.71948e-06
-2.28099e-07
1.69675e-06
-3.10508e-07
1.6719e-06
-3.93082e-07
1.64487e-06
-4.75898e-07
1.61563e-06
-5.59032e-07
1.58411e-06
-6.42555e-07
1.55026e-06
-7.26532e-07
1.51404e-06
-8.1102e-07
1.47538e-06
-8.96067e-07
1.43424e-06
-9.81709e-07
1.39055e-06
-1.06797e-06
1.34426e-06
-1.15485e-06
1.29533e-06
-1.24235e-06
1.24371e-06
-1.33044e-06
-1.41907e-06
1.95703e-06
9.51692e-07
1.9596e-06
8.63982e-07
1.96071e-06
7.77399e-07
1.96033e-06
6.91851e-07
1.95837e-06
6.07243e-07
1.95478e-06
5.23483e-07
1.94949e-06
4.40478e-07
1.94246e-06
3.58133e-07
1.93361e-06
2.7636e-07
1.92289e-06
1.95067e-07
1.91025e-06
1.14167e-07
1.89564e-06
3.35722e-08
1.87899e-06
-4.68032e-08
1.86026e-06
-1.27044e-07
1.8394e-06
-2.07234e-07
1.81634e-06
-2.87455e-07
1.79105e-06
-3.67787e-07
1.76346e-06
-4.48307e-07
1.73351e-06
-5.29088e-07
1.70116e-06
-6.102e-07
1.66633e-06
-6.91706e-07
1.62897e-06
-7.7366e-07
1.58902e-06
-8.56111e-07
1.5464e-06
-9.39092e-07
1.50106e-06
-1.02263e-06
1.45293e-06
-1.10673e-06
1.40197e-06
-1.19139e-06
1.34811e-06
-1.27658e-06
-1.36229e-06
2.07249e-06
9.46513e-07
2.07616e-06
8.60313e-07
2.07827e-06
7.75289e-07
2.07877e-06
6.91354e-07
2.07759e-06
6.08418e-07
2.07469e-06
5.26387e-07
2.07e-06
4.45169e-07
2.06346e-06
3.64671e-07
2.05502e-06
2.84803e-07
2.04461e-06
2.05473e-07
2.03218e-06
1.26593e-07
2.01768e-06
4.80754e-08
2.00104e-06
-3.01666e-08
1.98222e-06
-1.08218e-07
1.96114e-06
-1.86162e-07
1.93777e-06
-2.64078e-07
1.91202e-06
-3.42045e-07
1.88386e-06
-4.2014e-07
1.8532e-06
-4.98432e-07
1.81999e-06
-5.7699e-07
1.78416e-06
-6.55873e-07
1.74563e-06
-7.35136e-07
1.70435e-06
-8.14823e-07
1.66022e-06
-8.94969e-07
1.61319e-06
-9.75598e-07
1.56319e-06
-1.05672e-06
1.51014e-06
-1.13834e-06
1.45399e-06
-1.22044e-06
-1.303e-06
2.18891e-06
9.39966e-07
2.19382e-06
8.55411e-07
2.19703e-06
7.72074e-07
2.19851e-06
6.89873e-07
2.19821e-06
6.08721e-07
2.19607e-06
5.28528e-07
2.19203e-06
4.49205e-07
2.18605e-06
3.70658e-07
2.17805e-06
2.92798e-07
2.16799e-06
2.15535e-07
2.1558e-06
1.38779e-07
2.14144e-06
6.24446e-08
2.12482e-06
-1.35544e-08
2.10591e-06
-8.93041e-08
2.08463e-06
-1.64884e-07
2.06093e-06
-2.40373e-07
2.03473e-06
-3.15849e-07
2.00597e-06
-3.91384e-07
1.97459e-06
-4.67048e-07
1.9405e-06
-5.42904e-07
1.90364e-06
-6.19011e-07
1.86393e-06
-6.9542e-07
1.82128e-06
-7.72174e-07
1.77561e-06
-8.49306e-07
1.72686e-06
-9.26843e-07
1.67493e-06
-1.0048e-06
1.61977e-06
-1.08317e-06
1.5613e-06
-1.16197e-06
-1.24118e-06
2.30599e-06
9.31879e-07
2.31228e-06
8.49124e-07
2.31673e-06
7.67618e-07
2.31932e-06
6.87287e-07
2.31999e-06
6.0805e-07
2.3187e-06
5.2982e-07
2.31539e-06
4.52509e-07
2.31002e-06
3.7603e-07
2.30252e-06
3.00293e-07
2.29285e-06
2.25209e-07
2.28094e-06
1.50692e-07
2.26673e-06
7.66547e-08
2.25016e-06
3.01662e-09
2.23116e-06
-7.03125e-08
2.20968e-06
-1.43404e-07
2.18565e-06
-2.16339e-07
2.15899e-06
-2.89191e-07
2.12964e-06
-3.62029e-07
2.09751e-06
-4.3492e-07
2.06253e-06
-5.07924e-07
2.02462e-06
-5.81097e-07
1.98368e-06
-6.54487e-07
1.93965e-06
-7.28136e-07
1.89242e-06
-8.02077e-07
1.84191e-06
-8.76336e-07
1.78804e-06
-9.50929e-07
1.73074e-06
-1.02587e-06
1.66992e-06
-1.10116e-06
-1.17681e-06
2.4233e-06
9.22065e-07
2.43115e-06
8.41283e-07
2.43699e-06
7.61772e-07
2.44081e-06
6.83465e-07
2.44258e-06
6.06288e-07
2.44224e-06
5.3016e-07
2.43975e-06
4.54997e-07
2.43506e-06
3.80714e-07
2.42813e-06
3.07226e-07
2.41889e-06
2.34447e-07
2.40729e-06
1.62291e-07
2.39327e-06
9.06765e-08
2.37677e-06
1.95212e-08
2.35771e-06
-5.12567e-08
2.33604e-06
-1.21732e-07
2.31168e-06
-1.91979e-07
2.28456e-06
-2.62068e-07
2.25459e-06
-3.32066e-07
2.22171e-06
-4.02036e-07
2.18582e-06
-4.72034e-07
2.14684e-06
-5.42114e-07
2.10467e-06
-6.1232e-07
2.05923e-06
-6.82693e-07
2.01041e-06
-7.53265e-07
1.95814e-06
-8.24062e-07
1.90232e-06
-8.95106e-07
1.84286e-06
-9.66415e-07
1.77971e-06
-1.03801e-06
-1.1099e-06
2.54032e-06
9.10316e-07
2.54991e-06
8.317e-07
2.55731e-06
7.54367e-07
2.56252e-06
6.78257e-07
2.5655e-06
6.03303e-07
2.56623e-06
5.29432e-07
2.56466e-06
4.56566e-07
2.56075e-06
3.84624e-07
2.55445e-06
3.13525e-07
2.54571e-06
2.43187e-07
2.53448e-06
1.73529e-07
2.52068e-06
1.0447e-07
2.50427e-06
3.59331e-08
2.48517e-06
-3.21588e-08
2.46332e-06
-9.98798e-08
2.43864e-06
-1.67299e-07
2.41106e-06
-2.34482e-07
2.38048e-06
-3.01494e-07
2.34684e-06
-3.68391e-07
2.31003e-06
-4.35229e-07
2.26997e-06
-5.02055e-07
2.22657e-06
-5.68912e-07
2.17971e-06
-6.35839e-07
2.12932e-06
-7.02867e-07
2.07528e-06
-7.70026e-07
2.01751e-06
-8.3734e-07
1.95593e-06
-9.04835e-07
1.89047e-06
-9.72541e-07
-1.0405e-06
2.65638e-06
8.96412e-07
2.66791e-06
8.20175e-07
2.67706e-06
7.4522e-07
2.68381e-06
6.71497e-07
2.68817e-06
5.98949e-07
2.69009e-06
5.27508e-07
2.68956e-06
4.57104e-07
2.68652e-06
3.87662e-07
2.68094e-06
3.19106e-07
2.67277e-06
2.51359e-07
2.66195e-06
1.84345e-07
2.64843e-06
1.17987e-07
2.63215e-06
5.2213e-08
2.61304e-06
-1.30487e-08
2.59103e-06
-7.78717e-08
2.56605e-06
-1.42316e-07
2.53802e-06
-2.06447e-07
2.50684e-06
-2.70322e-07
2.47245e-06
-3.33994e-07
2.43473e-06
-3.97515e-07
2.39361e-06
-4.60928e-07
2.34897e-06
-5.24275e-07
2.30072e-06
-5.87591e-07
2.24876e-06
-6.50909e-07
2.193e-06
-7.1426e-07
2.13333e-06
-7.77675e-07
2.06968e-06
-8.41189e-07
2.00199e-06
-9.04845e-07
-9.68705e-07
2.77069e-06
8.80125e-07
2.78437e-06
8.06497e-07
2.79545e-06
7.34138e-07
2.80394e-06
6.63011e-07
2.80982e-06
5.93066e-07
2.81308e-06
5.24245e-07
2.8137e-06
4.56484e-07
2.81165e-06
3.89716e-07
2.80688e-06
3.23872e-07
2.79936e-06
2.58879e-07
2.78904e-06
1.94668e-07
2.77586e-06
1.31168e-07
2.75976e-06
6.83095e-08
2.74068e-06
6.03034e-09
2.71855e-06
-5.57435e-08
2.6933e-06
-1.17063e-07
2.66484e-06
-1.77989e-07
2.6331e-06
-2.38575e-07
2.59797e-06
-2.98869e-07
2.55938e-06
-3.58919e-07
2.51721e-06
-4.18765e-07
2.47138e-06
-4.78445e-07
2.42179e-06
-5.37995e-07
2.36833e-06
-5.97448e-07
2.3109e-06
-6.56839e-07
2.24943e-06
-7.16204e-07
2.18383e-06
-7.7559e-07
2.11404e-06
-8.35054e-07
-8.94679e-07
2.88233e-06
8.61225e-07
2.89838e-06
7.9045e-07
2.91159e-06
7.20923e-07
2.92199e-06
6.52615e-07
2.92957e-06
5.85488e-07
2.93432e-06
5.19491e-07
2.93623e-06
4.5457e-07
2.93528e-06
3.90666e-07
2.93144e-06
3.27714e-07
2.92467e-06
2.65652e-07
2.91492e-06
2.04414e-07
2.90215e-06
1.43937e-07
2.88631e-06
8.41574e-08
2.86732e-06
2.50165e-08
2.84512e-06
-3.35476e-08
2.81965e-06
-9.15884e-08
2.79082e-06
-1.49157e-07
2.75854e-06
-2.06302e-07
2.72274e-06
-2.63069e-07
2.68332e-06
-3.19499e-07
2.64019e-06
-3.7563e-07
2.59324e-06
-4.315e-07
2.54239e-06
-4.87143e-07
2.48754e-06
-5.42595e-07
2.42859e-06
-5.97893e-07
2.36547e-06
-6.53084e-07
2.29811e-06
-7.08224e-07
2.22644e-06
-7.63389e-07
-8.18681e-07
2.99026e-06
8.39489e-07
3.00889e-06
7.71822e-07
3.02444e-06
7.05373e-07
3.03693e-06
6.40123e-07
3.04638e-06
5.76041e-07
3.05278e-06
5.13088e-07
3.05613e-06
4.51217e-07
3.05642e-06
3.90376e-07
3.05363e-06
3.30512e-07
3.04771e-06
2.71566e-07
3.03864e-06
2.13482e-07
3.02638e-06
1.56202e-07
3.01086e-06
9.96703e-08
2.99205e-06
4.38327e-08
2.96986e-06
-1.13618e-08
2.94424e-06
-6.5969e-08
2.91511e-06
-1.20028e-07
2.8824e-06
-1.73585e-07
2.84601e-06
-2.26681e-07
2.80587e-06
-2.79354e-07
2.76188e-06
-3.3164e-07
2.71395e-06
-3.83573e-07
2.662e-06
-4.35191e-07
2.60593e-06
-4.8653e-07
2.54567e-06
-5.37636e-07
2.48115e-06
-5.88562e-07
2.41231e-06
-6.39378e-07
2.33909e-06
-6.90177e-07
-7.41084e-07
3.09336e-06
8.14704e-07
3.11477e-06
7.50412e-07
3.13285e-06
6.87298e-07
3.14762e-06
6.25352e-07
3.15911e-06
5.64554e-07
3.16732e-06
5.04874e-07
3.17227e-06
4.46272e-07
3.17393e-06
3.88707e-07
3.17231e-06
3.32132e-07
3.16738e-06
2.76498e-07
3.15911e-06
2.21754e-07
3.14746e-06
1.67851e-07
3.13239e-06
1.14739e-07
3.11385e-06
6.23706e-08
3.09179e-06
1.07021e-08
3.06614e-06
-4.03182e-08
3.03684e-06
-9.07245e-08
3.00381e-06
-1.40558e-07
2.96698e-06
-1.89854e-07
2.92628e-06
-2.3865e-07
2.88162e-06
-2.8698e-07
2.83292e-06
-3.34878e-07
2.78011e-06
-3.82382e-07
2.72312e-06
-4.29535e-07
2.66187e-06
-4.76387e-07
2.59631e-06
-5.23004e-07
2.5264e-06
-5.69467e-07
2.45211e-06
-6.15887e-07
-6.62411e-07
3.19042e-06
7.86681e-07
3.2148e-06
7.26033e-07
3.23558e-06
6.66516e-07
3.25281e-06
6.08128e-07
3.2665e-06
5.50858e-07
3.27669e-06
4.94685e-07
3.28339e-06
4.3958e-07
3.28659e-06
3.85507e-07
3.28629e-06
3.32428e-07
3.28249e-06
2.80303e-07
3.27515e-06
2.29088e-07
3.26426e-06
1.7874e-07
3.24978e-06
1.29218e-07
3.23167e-06
8.04789e-08
3.20989e-06
3.24838e-08
3.18438e-06
-1.4807e-08
3.15509e-06
-6.1433e-08
3.12196e-06
-1.07425e-07
3.08492e-06
-1.52817e-07
3.04392e-06
-1.97645e-07
2.99888e-06
-2.41941e-07
2.94974e-06
-2.85742e-07
2.89645e-06
-3.29089e-07
2.83894e-06
-3.72028e-07
2.77717e-06
-4.14619e-07
2.71111e-06
-4.56936e-07
2.64071e-06
-4.99075e-07
2.56599e-06
-5.41163e-07
-5.83367e-07
3.28019e-06
7.55258e-07
3.3077e-06
6.98521e-07
3.33136e-06
6.42861e-07
3.3512e-06
5.88284e-07
3.36727e-06
5.34788e-07
3.3796e-06
4.82357e-07
3.38821e-06
4.30973e-07
3.39311e-06
3.80607e-07
3.39431e-06
3.31229e-07
3.39181e-06
2.82805e-07
3.38559e-06
2.35301e-07
3.37566e-06
1.88678e-07
3.36197e-06
1.42903e-07
3.34451e-06
9.79374e-08
3.32325e-06
5.37475e-08
3.29814e-06
1.03009e-08
3.26915e-06
-3.24412e-08
3.23623e-06
-7.45065e-08
3.19934e-06
-1.15927e-07
3.15843e-06
-1.56736e-07
3.11346e-06
-1.96967e-07
3.06437e-06
-2.3666e-07
3.01114e-06
-2.75859e-07
2.95373e-06
-3.14616e-07
2.89211e-06
-3.52998e-07
2.82626e-06
-3.91089e-07
2.75619e-06
-4.28998e-07
2.68189e-06
-4.66867e-07
-5.04879e-07
3.36143e-06
7.20295e-07
3.39223e-06
6.67728e-07
3.41891e-06
6.16178e-07
3.44154e-06
5.65657e-07
3.46016e-06
5.16168e-07
3.47481e-06
4.67706e-07
3.48552e-06
4.20257e-07
3.49233e-06
3.738e-07
3.49525e-06
3.28313e-07
3.49428e-06
2.83768e-07
3.48945e-06
2.40136e-07
3.48074e-06
1.97386e-07
3.46815e-06
1.55489e-07
3.45168e-06
1.14413e-07
3.4313e-06
7.41265e-08
3.407e-06
3.46002e-08
3.37875e-06
-4.19406e-09
3.34654e-06
-4.22951e-08
3.31034e-06
-7.9724e-08
3.27012e-06
-1.16518e-07
3.22586e-06
-1.52711e-07
3.17755e-06
-1.88346e-07
3.12516e-06
-2.2347e-07
3.06869e-06
-2.58142e-07
3.00812e-06
-2.92435e-07
2.94348e-06
-3.26442e-07
2.87476e-06
-3.60282e-07
2.802e-06
-3.94108e-07
-4.28118e-07
3.43307e-06
6.81659e-07
3.46729e-06
6.33502e-07
3.49718e-06
5.86293e-07
3.52278e-06
5.40051e-07
3.54417e-06
4.94784e-07
3.56138e-06
4.50491e-07
3.57447e-06
4.07165e-07
3.58348e-06
3.64793e-07
3.58844e-06
3.23356e-07
3.58937e-06
2.82832e-07
3.58631e-06
2.43199e-07
3.57927e-06
2.04431e-07
3.56826e-06
1.66501e-07
3.55329e-06
1.29383e-07
3.53436e-06
9.30485e-08
3.51149e-06
5.74711e-08
3.48468e-06
2.26222e-08
3.45391e-06
-1.15289e-08
3.4192e-06
-4.50111e-08
3.38054e-06
-7.78575e-08
3.33793e-06
-1.10106e-07
3.29138e-06
-1.418e-07
3.24091e-06
-1.7299e-07
3.1865e-06
-2.0374e-07
3.1282e-06
-2.3413e-07
3.06601e-06
-2.64256e-07
2.99998e-06
-2.94247e-07
2.93013e-06
-3.2426e-07
-3.54501e-07
3.49454e-06
6.39162e-07
3.53243e-06
5.95618e-07
3.56577e-06
5.52946e-07
3.59466e-06
5.11167e-07
3.61915e-06
4.70294e-07
3.63931e-06
4.30329e-07
3.6552e-06
3.9127e-07
3.66689e-06
3.53109e-07
3.67441e-06
3.15831e-07
3.67782e-06
2.7942e-07
3.67717e-06
2.43857e-07
3.67248e-06
2.09121e-07
3.66379e-06
1.75188e-07
3.65114e-06
1.42035e-07
3.63455e-06
1.09638e-07
3.61405e-06
7.79703e-08
3.58966e-06
4.70061e-08
3.56142e-06
1.67166e-08
3.52934e-06
-1.29283e-08
3.49344e-06
-4.19617e-08
3.45376e-06
-7.04218e-08
3.41031e-06
-9.83536e-08
3.36313e-06
-1.25811e-07
3.31225e-06
-1.52859e-07
3.2577e-06
-1.79579e-07
3.19952e-06
-2.06073e-07
3.13774e-06
-2.3247e-07
3.07241e-06
-2.5893e-07
-2.85658e-07
3.54685e-06
5.92443e-07
3.58881e-06
5.53659e-07
3.62609e-06
5.15659e-07
3.65879e-06
4.78467e-07
3.68699e-06
4.42096e-07
3.71077e-06
4.06553e-07
3.7302e-06
3.71839e-07
3.74536e-06
3.37948e-07
3.75632e-06
3.04872e-07
3.76314e-06
2.72596e-07
3.7659e-06
2.41106e-07
3.76463e-06
2.10383e-07
3.75941e-06
1.80408e-07
3.75029e-06
1.51161e-07
3.73731e-06
1.22618e-07
3.72052e-06
9.47573e-08
3.69997e-06
6.75534e-08
3.67571e-06
4.09795e-08
3.64778e-06
1.50059e-08
3.61621e-06
-1.04005e-08
3.58107e-06
-3.52761e-08
3.54238e-06
-5.96657e-08
3.50019e-06
-8.36238e-08
3.45455e-06
-1.07216e-07
3.40549e-06
-1.30523e-07
3.35306e-06
-1.53644e-07
3.2973e-06
-1.76706e-07
3.23824e-06
-1.99867e-07
-2.23324e-07
3.59482e-06
5.40768e-07
3.64166e-06
5.06813e-07
3.68378e-06
4.73542e-07
3.72127e-06
4.40981e-07
3.75422e-06
4.09144e-07
3.78273e-06
3.78041e-07
3.8069e-06
3.47673e-07
3.8268e-06
3.1804e-07
3.84254e-06
2.89135e-07
3.85419e-06
2.60948e-07
3.86183e-06
2.33467e-07
3.86553e-06
2.06677e-07
3.86538e-06
1.80563e-07
3.86143e-06
1.55106e-07
3.85376e-06
1.30288e-07
3.84243e-06
1.06087e-07
3.82751e-06
8.2481e-08
3.80904e-06
5.94456e-08
3.78709e-06
3.69535e-08
3.76172e-06
1.49726e-08
3.73298e-06
-6.53455e-09
3.70091e-06
-2.76028e-08
3.66558e-06
-4.82891e-08
3.62702e-06
-6.86568e-08
3.58528e-06
-8.87819e-08
3.5404e-06
-1.08759e-07
3.4924e-06
-1.28708e-07
3.44131e-06
-1.48777e-07
-1.69152e-07
3.65177e-06
4.82842e-07
3.70488e-06
4.53703e-07
3.75328e-06
4.25142e-07
3.79708e-06
3.97183e-07
3.83638e-06
3.69842e-07
3.87129e-06
3.4313e-07
3.90191e-06
3.17052e-07
3.92834e-06
2.91608e-07
3.95068e-06
2.66796e-07
3.96902e-06
2.42609e-07
3.98345e-06
2.19039e-07
3.99405e-06
1.96074e-07
4.00091e-06
1.73702e-07
4.00411e-06
1.51909e-07
4.00372e-06
1.30678e-07
3.99981e-06
1.09992e-07
3.99246e-06
8.98319e-08
3.98173e-06
7.0176e-08
3.96769e-06
5.10002e-08
3.95038e-06
3.22767e-08
3.92988e-06
1.39722e-08
3.90623e-06
-3.95755e-09
3.87948e-06
-2.15395e-08
3.84968e-06
-3.88524e-08
3.81685e-06
-5.59593e-08
3.78104e-06
-7.2947e-08
3.74226e-06
-8.99241e-08
3.70051e-06
-1.07026e-07
-1.24423e-07
3.74697e-06
4.16868e-07
3.80819e-06
3.92483e-07
3.86476e-06
3.68569e-07
3.9168e-06
3.45149e-07
3.9644e-06
3.2224e-07
4.00767e-06
2.99853e-07
4.04673e-06
2.77997e-07
4.08166e-06
2.56674e-07
4.11258e-06
2.35884e-07
4.13956e-06
2.15624e-07
4.16271e-06
1.95889e-07
4.18211e-06
1.76672e-07
4.19785e-06
1.57962e-07
4.21001e-06
1.39751e-07
4.21867e-06
1.22024e-07
4.22389e-06
1.04768e-07
4.22575e-06
8.79681e-08
4.22433e-06
7.16051e-08
4.21967e-06
5.56592e-08
4.21184e-06
4.01064e-08
4.20089e-06
2.4919e-08
4.18687e-06
1.00599e-08
4.16984e-06
-4.5096e-09
4.14983e-06
-1.88354e-08
4.12686e-06
-3.29894e-08
4.10095e-06
-4.70422e-08
4.07212e-06
-6.10904e-08
4.04034e-06
-7.52537e-08
-8.9681e-08
3.93459e-06
3.41253e-07
4.0055e-06
3.21576e-07
4.07179e-06
3.02271e-07
4.13358e-06
2.83359e-07
4.19096e-06
2.64859e-07
4.24404e-06
2.46782e-07
4.2929e-06
2.29136e-07
4.33764e-06
2.11928e-07
4.37837e-06
1.95159e-07
4.41516e-06
1.78828e-07
4.44812e-06
1.62934e-07
4.47732e-06
1.47472e-07
4.50284e-06
1.32436e-07
4.52478e-06
1.17818e-07
4.54319e-06
1.03608e-07
4.55816e-06
8.9796e-08
4.56976e-06
7.637e-08
4.57805e-06
6.33146e-08
4.5831e-06
5.06136e-08
4.58496e-06
3.82466e-08
4.58368e-06
2.6193e-08
4.57932e-06
1.44196e-08
4.57192e-06
2.89044e-09
4.56152e-06
-8.435e-09
4.54814e-06
-1.96096e-08
4.5318e-06
-3.06965e-08
4.51249e-06
-4.1778e-08
4.49019e-06
-5.29554e-08
-6.4354e-08
4.29888e-06
2.56278e-07
4.37912e-06
2.41329e-07
4.45473e-06
2.26666e-07
4.52578e-06
2.1231e-07
4.59236e-06
1.98275e-07
4.65457e-06
1.84574e-07
4.71249e-06
1.71214e-07
4.76622e-06
1.58201e-07
4.81584e-06
1.45538e-07
4.86144e-06
1.33226e-07
4.90311e-06
1.21263e-07
4.94094e-06
1.09648e-07
4.975e-06
9.83762e-08
5.00537e-06
8.74415e-08
5.03214e-06
7.68368e-08
5.05539e-06
6.65534e-08
5.07517e-06
5.65823e-08
5.09158e-06
4.69114e-08
5.10466e-06
3.75286e-08
5.11449e-06
2.84178e-08
5.12112e-06
1.95619e-08
5.12461e-06
1.09311e-08
5.125e-06
2.50152e-09
5.12234e-06
-5.77759e-09
5.11666e-06
-1.3925e-08
5.10796e-06
-2.19995e-08
5.09625e-06
-3.00692e-08
5.08151e-06
-3.8214e-08
-4.65338e-08
4.94627e-06
1.66485e-07
5.03129e-06
1.56306e-07
5.11162e-06
1.46339e-07
5.18733e-06
1.366e-07
5.2585e-06
1.271e-07
5.32523e-06
1.17846e-07
5.3876e-06
1.08846e-07
5.4457e-06
1.00103e-07
5.49961e-06
9.16192e-08
5.54944e-06
8.33958e-08
5.59528e-06
7.54313e-08
5.6372e-06
6.77236e-08
5.67531e-06
6.02693e-08
5.70968e-06
5.30642e-08
5.74042e-06
4.61025e-08
5.7676e-06
3.93761e-08
5.7913e-06
3.28756e-08
5.81162e-06
2.65918e-08
5.82863e-06
2.05207e-08
5.84239e-06
1.46596e-08
5.85296e-06
8.99205e-09
5.86044e-06
3.45146e-09
5.86485e-06
-1.91467e-09
5.86628e-06
-7.20728e-09
5.86474e-06
-1.2384e-08
5.86026e-06
-1.75153e-08
5.85284e-06
-2.26475e-08
5.84246e-06
-2.78382e-08
-3.31601e-08
5.97417e-06
8.26764e-08
6.05337e-06
7.71049e-08
6.12804e-06
7.16724e-08
6.19825e-06
6.63867e-08
6.2641e-06
6.12535e-08
6.32567e-06
5.6277e-08
6.38305e-06
5.14598e-08
6.43635e-06
4.68033e-08
6.48566e-06
4.23079e-08
6.53109e-06
3.79727e-08
6.57272e-06
3.37962e-08
6.61067e-06
2.9776e-08
6.64503e-06
2.59089e-08
6.6759e-06
2.21923e-08
6.70338e-06
1.86224e-08
6.72756e-06
1.51967e-08
6.74854e-06
1.19009e-08
6.76642e-06
8.70906e-09
6.78129e-06
5.64596e-09
6.79324e-06
2.71774e-09
6.80222e-06
1.14358e-11
6.80851e-06
-2.83769e-09
6.81207e-06
-5.47729e-09
6.81294e-06
-8.07669e-09
6.81118e-06
-1.06317e-08
6.80683e-06
-1.31652e-08
6.7999e-06
-1.57083e-08
6.79035e-06
-1.82973e-08
-2.0976e-08
7.41193e-06
2.15144e-08
7.4693e-06
1.97419e-08
7.52294e-06
1.80289e-08
7.57295e-06
1.63771e-08
7.61942e-06
1.47875e-08
7.66243e-06
1.32607e-08
7.7021e-06
1.17965e-08
7.73851e-06
1.03944e-08
7.77176e-06
9.05351e-09
7.80196e-06
7.77272e-09
7.82921e-06
6.55041e-09
7.8536e-06
5.38507e-09
7.87523e-06
4.2743e-09
7.89421e-06
3.21702e-09
7.91062e-06
2.21033e-09
7.92455e-06
1.26098e-09
7.93607e-06
3.83799e-10
7.94532e-06
-5.38519e-10
7.95235e-06
-1.38971e-09
7.95722e-06
-2.14808e-09
7.96012e-06
-2.88444e-09
7.96092e-06
-3.64103e-09
7.95979e-06
-4.35232e-09
7.95676e-06
-5.04437e-09