/*--------------------------------*- C++ -*----------------------------------*\
  =========                 |
  \\      /  F ield         | OpenFOAM: The Open Source CFD Toolbox
   \\    /   O peration     | Website:  https://openfoam.org
    \\  /    A nd           | Version:  9
     \\/     M anipulation  |
\*---------------------------------------------------------------------------*/
FoamFile
{
    format      ascii;
    class       volVectorField;
    location    "3";
    object      U;
}
// * * * * * * * * * * * * * * * * * * * * * * * * * * * * * * * * * * * * * //

dimensions      [0 1 -1 0 0 0 0];

internalField   nonuniform List<vector> 
1260
(
(-0.00321373 0.0897866 0)
(-0.00399686 0.0794213 0)
(-0.00481769 0.0690531 0)
(-0.00567929 0.0586793 0)
(-0.00658448 0.0482978 0)
(-0.00753579 0.0379069 0)
(-0.00853544 0.0275052 0)
(-0.00958543 0.0170913 0)
(-0.0106875 0.00666338 0)
(-0.011843 -0.00378027 0)
(-0.0130531 -0.0142419 0)
(-0.0143189 -0.024724 0)
(-0.0156408 -0.0352295 0)
(-0.0170193 -0.0457618 0)
(-0.0184543 -0.0563244 0)
(-0.0199454 -0.0669212 0)
(-0.021492 -0.0775562 0)
(-0.0230928 -0.0882334 0)
(-0.0247462 -0.0989564 0)
(-0.0264499 -0.109729 0)
(-0.0282011 -0.120552 0)
(-0.0299962 -0.131428 0)
(-0.0318311 -0.142356 0)
(-0.0337007 -0.153334 0)
(-0.0355992 -0.164356 0)
(-0.0375202 -0.175415 0)
(0.00664971 0.090536 0)
(0.00589904 0.080209 0)
(0.00510607 0.0698824 0)
(0.00426742 0.0595532 0)
(0.00338006 0.0492191 0)
(0.00244124 0.0388782 0)
(0.00144857 0.0285286 0)
(0.000399916 0.0181687 0)
(-0.000706544 0.00779643 0)
(-0.00187236 -0.00259023 0)
(-0.00309879 -0.0129938 0)
(-0.00438684 -0.023417 0)
(-0.00573721 -0.0338632 0)
(-0.00715029 -0.0443358 0)
(-0.0086262 -0.054839 0)
(-0.0101647 -0.0653768 0)
(-0.0117651 -0.0759537 0)
(-0.0134264 -0.0865741 0)
(-0.0151471 -0.0972423 0)
(-0.0169251 -0.107962 0)
(-0.018758 -0.118736 0)
(-0.0206425 -0.129566 0)
(-0.0225747 -0.140453 0)
(-0.0245499 -0.151395 0)
(-0.0265628 -0.162387 0)
(-0.0286072 -0.173423 0)
(0.0165518 0.0912496 0)
(0.0158359 0.0809652 0)
(0.0150731 0.0706851 0)
(0.0142597 0.0604056 0)
(0.0133924 0.0501243 0)
(0.0124682 0.0398388 0)
(0.0114845 0.0295469 0)
(0.0104391 0.0192468 0)
(0.00932993 0.00893607 0)
(0.0081554 -0.0013876 0)
(0.00691411 -0.011727 0)
(0.00560499 -0.0220852 0)
(0.00422725 -0.0324657 0)
(0.00278039 -0.0428724 0)
(0.00126422 -0.0533096 0)
(-0.000321095 -0.0637819 0)
(-0.00197506 -0.0742941 0)
(-0.00369679 -0.0848509 0)
(-0.00548495 -0.0954572 0)
(-0.00733775 -0.106117 0)
(-0.00925288 -0.116834 0)
(-0.0112274 -0.127611 0)
(-0.0132578 -0.138448 0)
(-0.0153398 -0.149345 0)
(-0.0174685 -0.160298 0)
(-0.0196382 -0.171301 0)
(0.0264946 0.0919251 0)
(0.0258159 0.0816879 0)
(0.0250857 0.0714589 0)
(0.0242999 0.0612343 0)
(0.0234549 0.051011 0)
(0.0225475 0.0407865 0)
(0.021575 0.0305581 0)
(0.0205348 0.0203237 0)
(0.0194248 0.0100805 0)
(0.0182433 -0.000173981 0)
(0.0169888 -0.0104429 0)
(0.01566 -0.0207297 0)
(0.0142561 -0.0310381 0)
(0.0127764 -0.0413723 0)
(0.0112208 -0.051737 0)
(0.00958925 -0.062137 0)
(0.0078821 -0.0725775 0)
(0.00610012 -0.0830638 0)
(0.00424444 -0.0936008 0)
(0.00231665 -0.104193 0)
(0.000318793 -0.114846 0)
(-0.00174652 -0.125561 0)
(-0.0038761 -0.13634 0)
(-0.00606614 -0.147183 0)
(-0.00831212 -0.158088 0)
(-0.0106088 -0.169048 0)
(0.036481 0.09256 0)
(0.0358419 0.0823744 0)
(0.0351466 0.0722014 0)
(0.0343907 0.0620368 0)
(0.0335704 0.051877 0)
(0.0326822 0.0417191 0)
(0.031723 0.0315601 0)
(0.0306902 0.0213973 0)
(0.0295815 0.011228 0)
(0.0283949 0.0010489 0)
(0.0271288 -0.00914319 0)
(0.0257819 -0.019352 0)
(0.0243533 -0.0295817 0)
(0.0228421 -0.0398367 0)
(0.021248 -0.050122 0)
(0.0195709 -0.0604427 0)
(0.0178112 -0.0708044 0)
(0.0159692 -0.0812127 0)
(0.0140461 -0.0916731 0)
(0.0120431 -0.102191 0)
(0.00996214 -0.11277 0)
(0.00780536 -0.123415 0)
(0.00557564 -0.134128 0)
(0.00327636 -0.144908 0)
(0.000911529 -0.155755 0)
(-0.00151406 -0.166662 0)
(0.0465144 0.093152 0)
(0.0459173 0.0830225 0)
(0.0452593 0.0729103 0)
(0.0445359 0.0628108 0)
(0.0437427 0.05272 0)
(0.0428759 0.0426343 0)
(0.0419325 0.0325506 0)
(0.0409093 0.0224656 0)
(0.0398039 0.0123763 0)
(0.0386143 0.00227915 0)
(0.0373386 -0.0078295 0)
(0.0359754 -0.0179537 0)
(0.0345235 -0.0280978 0)
(0.0329821 -0.0382666 0)
(0.0313507 -0.0484654 0)
(0.0296291 -0.0586997 0)
(0.0278174 -0.0689753 0)
(0.025916 -0.0792982 0)
(0.0239257 -0.0896741 0)
(0.0218475 -0.100109 0)
(0.019683 -0.110607 0)
(0.0174341 -0.121174 0)
(0.0151033 -0.13181 0)
(0.0126935 -0.142519 0)
(0.0102083 -0.153297 0)
(0.00765182 -0.16414 0)
(0.0565992 0.0936988 0)
(0.0560464 0.0836297 0)
(0.0554282 0.0735831 0)
(0.0547395 0.0635538 0)
(0.0539758 0.0535373 0)
(0.0531331 0.0435297 0)
(0.0522077 0.0335272 0)
(0.0511965 0.0235263 0)
(0.0500968 0.0135234 0)
(0.0489063 0.00351471 0)
(0.047623 -0.00650377 0)
(0.0462453 -0.0165364 0)
(0.044772 -0.0265879 0)
(0.043202 -0.0366634 0)
(0.0415347 -0.0467685 0)
(0.0397697 -0.0569089 0)
(0.037907 -0.0670908 0)
(0.0359467 -0.0773204 0)
(0.0338895 -0.087604 0)
(0.0317362 -0.0979475 0)
(0.0294879 -0.108356 0)
(0.0271464 -0.118835 0)
(0.0247136 -0.129387 0)
(0.0221921 -0.140013 0)
(0.0195848 -0.150712 0)
(0.0168953 -0.161481 0)
(0.0667403 0.0941979 0)
(0.0662342 0.0841937 0)
(0.0656582 0.0742175 0)
(0.0650068 0.0642635 0)
(0.0642751 0.0543267 0)
(0.0634588 0.0444028 0)
(0.0625539 0.0344876 0)
(0.0615572 0.0245769 0)
(0.0604655 0.0146669 0)
(0.0592764 0.00475341 0)
(0.0579877 -0.00516805 0)
(0.0565977 -0.0151021 0)
(0.0551048 -0.0250539 0)
(0.0535079 -0.0350288 0)
(0.0518062 -0.0450326 0)
(0.0499991 -0.0550714 0)
(0.0480864 -0.0651518 0)
(0.0460681 -0.0752801 0)
(0.0439445 -0.085463 0)
(0.0417162 -0.0957066 0)
(0.0393841 -0.106017 0)
(0.0369495 -0.116399 0)
(0.0344138 -0.126855 0)
(0.0317792 -0.137389 0)
(0.0290481 -0.147999 0)
(0.0262236 -0.158682 0)
(0.0769439 0.0946472 0)
(0.0764868 0.0847121 0)
(0.0759554 0.0748109 0)
(0.0753437 0.0649372 0)
(0.0746465 0.0550857 0)
(0.0738591 0.0452512 0)
(0.0729773 0.0354292 0)
(0.0719975 0.0256152 0)
(0.0709163 0.0158046 0)
(0.069731 0.00599295 0)
(0.0684392 -0.00382454 0)
(0.067039 -0.0136529 0)
(0.0655286 -0.0234976 0)
(0.0639067 -0.0333643 0)
(0.0621722 -0.0432592 0)
(0.0603246 -0.0531886 0)
(0.0583631 -0.0631592 0)
(0.0562878 -0.0731779 0)
(0.0540985 -0.0832515 0)
(0.0517955 -0.0933864 0)
(0.0493795 -0.103589 0)
(0.0468512 -0.113864 0)
(0.0442119 -0.124215 0)
(0.041463 -0.134646 0)
(0.0386063 -0.145155 0)
(0.0356444 -0.155741 0)
(0.0872168 0.0950441 0)
(0.0868112 0.0851825 0)
(0.0863268 0.0753609 0)
(0.0857572 0.0655727 0)
(0.0850971 0.0558117 0)
(0.0843411 0.0460724 0)
(0.0834849 0.0363496 0)
(0.0825245 0.0266384 0)
(0.0814563 0.0169339 0)
(0.0802773 0.00723094 0)
(0.0789848 -0.00247553 0)
(0.0775767 -0.012191 0)
(0.0760509 -0.0219211 0)
(0.074406 -0.0316719 0)
(0.0726407 -0.0414499 0)
(0.070754 -0.0512617 0)
(0.0687452 -0.0611143 0)
(0.0666138 -0.0710148 0)
(0.0643596 -0.08097 0)
(0.0619824 -0.0909869 0)
(0.0594825 -0.101072 0)
(0.0568603 -0.11123 0)
(0.0541163 -0.121466 0)
(0.0512517 -0.131782 0)
(0.0482677 -0.142179 0)
(0.0451661 -0.152655 0)
(0.0975668 0.0953862 0)
(0.0972153 0.0856023 0)
(0.0967803 0.0758651 0)
(0.0962555 0.0661673 0)
(0.0956348 0.0565022 0)
(0.0949129 0.0468637 0)
(0.0940849 0.0372463 0)
(0.0931464 0.0276442 0)
(0.0920937 0.0180523 0)
(0.0909235 0.00846492 0)
(0.0896328 -0.0011234 0)
(0.0882191 -0.0107185 0)
(0.0866802 -0.0203264 0)
(0.0850144 -0.0299536 0)
(0.0832202 -0.0396066 0)
(0.0812962 -0.0492925 0)
(0.0792415 -0.0590184 0)
(0.0770552 -0.0687916 0)
(0.0747368 -0.0786193 0)
(0.0722859 -0.0885085 0)
(0.0697021 -0.0984657 0)
(0.0669855 -0.108497 0)
(0.0641362 -0.118606 0)
(0.0611545 -0.128796 0)
(0.0580412 -0.139068 0)
(0.0547974 -0.149421 0)
(0.108002 0.0956709 0)
(0.107708 0.0859691 0)
(0.107325 0.0763209 0)
(0.106847 0.0667185 0)
(0.106269 0.0571547 0)
(0.105583 0.0476228 0)
(0.104786 0.0381165 0)
(0.103872 0.02863 0)
(0.102838 0.0191573 0)
(0.101679 0.0096924 0)
(0.100392 0.000229419 0)
(0.0989754 -0.00923786 0)
(0.0974257 -0.0187159 0)
(0.0957412 -0.0282113 0)
(0.0939199 -0.037731 0)
(0.0919604 -0.0472824 0)
(0.0898613 -0.0568727 0)
(0.0876213 -0.0665094 0)
(0.0852397 -0.0761999 0)
(0.0827154 -0.0859514 0)
(0.0800479 -0.0957705 0)
(0.0772364 -0.105663 0)
(0.0742808 -0.115634 0)
(0.0711806 -0.125686 0)
(0.0679359 -0.135821 0)
(0.0645471 -0.146037 0)
(0.118533 0.0958952 0)
(0.118298 0.0862801 0)
(0.11797 0.0767257 0)
(0.117543 0.0672238 0)
(0.117009 0.0577665 0)
(0.116363 0.0483468 0)
(0.115599 0.0389579 0)
(0.114712 0.0295932 0)
(0.113698 0.0202463 0)
(0.112553 0.0109109 0)
(0.111273 0.00158049 0)
(0.109856 -0.00775142 0)
(0.108297 -0.0170916 0)
(0.106596 -0.0264471 0)
(0.10475 -0.0358252 0)
(0.102757 -0.0452331 0)
(0.100615 -0.0546786 0)
(0.0983221 -0.0641692 0)
(0.095878 -0.0737125 0)
(0.0932809 -0.0833158 0)
(0.0905295 -0.0929858 0)
(0.0876227 -0.102728 0)
(0.0845596 -0.112549 0)
(0.0813393 -0.12245 0)
(0.077961 -0.132434 0)
(0.0744245 -0.142499 0)
(0.129167 0.0960559 0)
(0.128996 0.0865321 0)
(0.128726 0.0770765 0)
(0.128352 0.0676802 0)
(0.127865 0.058335 0)
(0.127261 0.0490333 0)
(0.126533 0.0397677 0)
(0.125676 0.0305311 0)
(0.124686 0.0213168 0)
(0.123557 0.0121178 0)
(0.122286 0.00292739 0)
(0.12087 -0.0062615 0)
(0.119306 -0.0154559 0)
(0.11759 -0.0246632 0)
(0.115721 -0.0338907 0)
(0.113695 -0.0431462 0)
(0.111512 -0.0524374 0)
(0.109168 -0.061772 0)
(0.106662 -0.0711577 0)
(0.103992 -0.0806019 0)
(0.101157 -0.0901113 0)
(0.098154 -0.0996921 0)
(0.0949823 -0.109349 0)
(0.09164 -0.119086 0)
(0.0881257 -0.128904 0)
(0.0844382 -0.138804 0)
(0.139915 0.0961489 0)
(0.13981 0.0867217 0)
(0.139602 0.0773701 0)
(0.139284 0.0680848 0)
(0.138849 0.0588573 0)
(0.13829 0.0496794 0)
(0.137601 0.0405432 0)
(0.136776 0.0314413 0)
(0.135811 0.0223663 0)
(0.134701 0.0133108 0)
(0.133442 0.00426773 0)
(0.13203 -0.00477036 0)
(0.130462 -0.0138109 0)
(0.128733 -0.0228614 0)
(0.126843 -0.0319295 0)
(0.124787 -0.0410232 0)
(0.122563 -0.0501503 0)
(0.120168 -0.0593187 0)
(0.117601 -0.068536 0)
(0.114859 -0.0778096 0)
(0.111939 -0.0871465 0)
(0.10884 -0.0965528 0)
(0.105558 -0.106033 0)
(0.102092 -0.115592 0)
(0.0984386 -0.12523 0)
(0.0945969 -0.134948 0)
(0.150783 0.0961697 0)
(0.15075 0.0868447 0)
(0.150609 0.0776027 0)
(0.150351 0.0684342 0)
(0.14997 0.0593302 0)
(0.149459 0.0502821 0)
(0.148812 0.0412817 0)
(0.148022 0.032321 0)
(0.147086 0.0233921 0)
(0.145998 0.0144874 0)
(0.144752 0.00559923 0)
(0.143346 -0.00328014 0)
(0.141776 -0.0121584 0)
(0.140037 -0.0210434 0)
(0.138126 -0.0299431 0)
(0.136041 -0.0388654 0)
(0.133778 -0.0478183 0)
(0.131333 -0.0568097 0)
(0.128706 -0.0658474 0)
(0.125891 -0.0749388 0)
(0.122886 -0.0840908 0)
(0.119688 -0.0933093 0)
(0.116295 -0.1026 0)
(0.112702 -0.111965 0)
(0.108908 -0.121408 0)
(0.104908 -0.130928 0)
(0.100701 -0.140523 0)
(0.0962849 -0.150188 0)
(0.0916578 -0.159915 0)
(0.161778 0.0961126 0)
(0.161824 0.0868962 0)
(0.161753 0.07777 0)
(0.16156 0.0687243 0)
(0.161238 0.0597501 0)
(0.160778 0.0508383 0)
(0.160176 0.0419802 0)
(0.159425 0.0331674 0)
(0.15852 0.0243918 0)
(0.157456 0.0156452 0)
(0.156227 0.00691964 0)
(0.154829 -0.00179291 0)
(0.153258 -0.0105005 0)
(0.15151 -0.0192111 0)
(0.149581 -0.0279328 0)
(0.147467 -0.0366737 0)
(0.145166 -0.045442 0)
(0.142672 -0.0542455 0)
(0.139983 -0.063092 0)
(0.137095 -0.0719889 0)
(0.134005 -0.0809429 0)
(0.130708 -0.0899601 0)
(0.1272 -0.0990455 0)
(0.123479 -0.108203 0)
(0.119539 -0.117434 0)
(0.115378 -0.126739 0)
(0.110992 -0.136117 0)
(0.106378 -0.145562 0)
(0.101533 -0.155069 0)
(0.172904 0.0959708 0)
(0.173034 0.0868701 0)
(0.173042 0.0778666 0)
(0.172919 0.0689507 0)
(0.172659 0.060113 0)
(0.172256 0.0513442 0)
(0.171702 0.0426353 0)
(0.170993 0.0339777 0)
(0.170122 0.0253626 0)
(0.169084 0.0167818 0)
(0.167874 0.0082268 0)
(0.166486 -0.000310597 0)
(0.164916 -0.00883864 0)
(0.163161 -0.0173656 0)
(0.161215 -0.0258997 0)
(0.159074 -0.0344491 0)
(0.156734 -0.043022 0)
(0.154191 -0.0516262 0)
(0.151441 -0.0602694 0)
(0.148479 -0.0689591 0)
(0.145302 -0.0777017 0)
(0.141903 -0.0865033 0)
(0.13828 -0.0953689 0)
(0.134427 -0.104302 0)
(0.130339 -0.113305 0)
(0.126012 -0.122378 0)
(0.121441 -0.13152 0)
(0.116624 -0.140726 0)
(0.111556 -0.149992 0)
(0.184159 0.095736 0)
(0.184383 0.0867592 0)
(0.184475 0.0778864 0)
(0.184429 0.0691078 0)
(0.184238 0.060414 0)
(0.183895 0.0517956 0)
(0.183395 0.0432434 0)
(0.182731 0.0347484 0)
(0.181898 0.0263017 0)
(0.180889 0.0178946 0)
(0.179699 0.00951859 0)
(0.178324 0.00116503 0)
(0.176757 -0.00717444 0)
(0.174995 -0.0155082 0)
(0.173033 -0.0238447 0)
(0.170865 -0.032192 0)
(0.168487 -0.0405582 0)
(0.165895 -0.0489513 0)
(0.163083 -0.0573789 0)
(0.160046 -0.065848 0)
(0.15678 -0.0743654 0)
(0.153278 -0.0829367 0)
(0.149536 -0.0915669 0)
(0.145548 -0.10026 0)
(0.141308 -0.109017 0)
(0.136811 -0.11784 0)
(0.132052 -0.126727 0)
(0.127026 -0.135675 0)
(0.121729 -0.144679 0)
(0.195537 0.0953981 0)
(0.195865 0.0865548 0)
(0.196051 0.0778216 0)
(0.196089 0.069189 0)
(0.195974 0.0606475 0)
(0.195698 0.0521877 0)
(0.195256 0.0438003 0)
(0.194641 0.0354761 0)
(0.193849 0.027206 0)
(0.192872 0.0189812 0)
(0.191706 0.0107928 0)
(0.190345 0.0026322 0)
(0.188783 -0.00550922 0)
(0.187016 -0.0136399 0)
(0.185038 -0.0217683 0)
(0.182843 -0.0299025 0)
(0.180427 -0.0380505 0)
(0.177785 -0.0462203 0)
(0.17491 -0.0544192 0)
(0.171797 -0.0626543 0)
(0.16844 -0.0709319 0)
(0.164832 -0.0792577 0)
(0.160968 -0.0876364 0)
(0.156842 -0.0960717 0)
(0.152446 -0.104566 0)
(0.147775 -0.113119 0)
(0.142822 -0.121732 0)
(0.137583 -0.130401 0)
(0.132052 -0.139123 0)
(0.207026 0.0949452 0)
(0.207469 0.0862466 0)
(0.20776 0.0776633 0)
(0.207892 0.0691864 0)
(0.207859 0.0608066 0)
(0.207657 0.0525146 0)
(0.207279 0.044301 0)
(0.206719 0.0361565 0)
(0.205972 0.028072 0)
(0.205031 0.0200385 0)
(0.203891 0.0120472 0)
(0.202546 0.00408909 0)
(0.20099 -0.00384429 0)
(0.199219 -0.0117615 0)
(0.197226 -0.0196709 0)
(0.195005 -0.0275805 0)
(0.19255 -0.0354984 0)
(0.189857 -0.0434322 0)
(0.186918 -0.0513891 0)
(0.183726 -0.059376 0)
(0.180276 -0.067399 0)
(0.176561 -0.0754636 0)
(0.172572 -0.0835744 0)
(0.168304 -0.0917349 0)
(0.163749 -0.0999474 0)
(0.158899 -0.108213 0)
(0.153749 -0.116532 0)
(0.148291 -0.124901 0)
(0.142521 -0.133319 0)
(0.218603 0.0943636 0)
(0.219176 0.0858222 0)
(0.219583 0.0774008 0)
(0.21982 0.0690908 0)
(0.21988 0.0608834 0)
(0.21976 0.0527694 0)
(0.219452 0.0447396 0)
(0.218953 0.0367847 0)
(0.218255 0.0288957 0)
(0.217354 0.0210634 0)
(0.216243 0.013279 0)
(0.214917 0.00553377 0)
(0.21337 -0.00218099 0)
(0.211595 -0.00987375 0)
(0.209587 -0.0175527 0)
(0.20734 -0.0252259 0)
(0.204847 -0.0329011 0)
(0.202101 -0.0405858 0)
(0.199096 -0.0482869 0)
(0.195825 -0.0560111 0)
(0.19228 -0.0637642 0)
(0.188454 -0.0715516 0)
(0.184338 -0.0793776 0)
(0.179925 -0.0872457 0)
(0.175206 -0.0951582 0)
(0.170175 -0.103117 0)
(0.164823 -0.111121 0)
(0.159144 -0.119171 0)
(0.153131 -0.127264 0)
(0.230237 0.0936372 0)
(0.230957 0.0852676 0)
(0.231495 0.0770216 0)
(0.231848 0.0688913 0)
(0.232012 0.0608684 0)
(0.231983 0.0529441 0)
(0.231754 0.0451092 0)
(0.231322 0.037355 0)
(0.23068 0.0296722 0)
(0.229823 0.0220519 0)
(0.228746 0.0144855 0)
(0.227441 0.006964 0)
(0.225904 -0.000520954 0)
(0.224128 -0.00797761 0)
(0.222106 -0.0154142 0)
(0.219832 -0.0228384 0)
(0.2173 -0.0302579 0)
(0.214501 -0.0376799 0)
(0.211429 -0.045111 0)
(0.208076 -0.0525576 0)
(0.204434 -0.0600252 0)
(0.200494 -0.067519 0)
(0.196249 -0.0750431 0)
(0.191688 -0.0826009 0)
(0.186804 -0.0901949 0)
(0.181588 -0.0978267 0)
(0.176032 -0.105497 0)
(0.170128 -0.113206 0)
(0.163871 -0.120954 0)
(0.241886 0.0927481 0)
(0.24277 0.0845666 0)
(0.243455 0.0765114 0)
(0.24394 0.0685754 0)
(0.24422 0.0607507 0)
(0.244292 0.0530291 0)
(0.244152 0.0454019 0)
(0.243795 0.0378605 0)
(0.243216 0.0303959 0)
(0.242409 0.0229996 0)
(0.241369 0.0156628 0)
(0.24009 0.00837711 0)
(0.238565 0.00113411 0)
(0.236789 -0.00607416 0)
(0.234754 -0.0132557 0)
(0.232455 -0.020418 0)
(0.229883 -0.0275683 0)
(0.227031 -0.0347135 0)
(0.223891 -0.0418599 0)
(0.220455 -0.0490137 0)
(0.216714 -0.05618 0)
(0.212659 -0.0633637 0)
(0.208281 -0.0705687 0)
(0.203571 -0.0777983 0)
(0.19852 -0.0850553 0)
(0.193118 -0.0923414 0)
(0.187357 -0.099658 0)
(0.181229 -0.107007 0)
(0.174727 -0.114388 0)
(0.253496 0.0916764 0)
(0.254563 0.0837013 0)
(0.255413 0.0758542 0)
(0.256045 0.0681287 0)
(0.256456 0.0605178 0)
(0.256642 0.0530137 0)
(0.256602 0.0456083 0)
(0.256329 0.0382933 0)
(0.25582 0.0310603 0)
(0.25507 0.0239009 0)
(0.254072 0.0168068 0)
(0.252822 0.00976968 0)
(0.251314 0.00278167 0)
(0.24954 -0.00416513 0)
(0.247495 -0.0110783 0)
(0.245171 -0.0179649 0)
(0.24256 -0.024832 0)
(0.239654 -0.0316859 0)
(0.236446 -0.0385328 0)
(0.232926 -0.0453783 0)
(0.229085 -0.0522272 0)
(0.224915 -0.0590842 0)
(0.220405 -0.065953 0)
(0.215545 -0.0728369 0)
(0.210327 -0.0797386 0)
(0.204739 -0.0866605 0)
(0.198775 -0.0936047 0)
(0.192425 -0.100574 0)
(0.185683 -0.10757 0)
(0.265 0.0904005 0)
(0.266272 0.0826522 0)
(0.267306 0.0750324 0)
(0.268101 0.0675356 0)
(0.268658 0.0601557 0)
(0.268973 0.0528855 0)
(0.269043 0.0457175 0)
(0.268866 0.0386442 0)
(0.268436 0.0316574 0)
(0.26775 0.0247493 0)
(0.266802 0.0179119 0)
(0.265587 0.0111374 0)
(0.264099 0.00441817 0)
(0.262332 -0.00225317 0)
(0.260278 -0.00888379 0)
(0.25793 -0.0154805 0)
(0.255282 -0.0220497 0)
(0.252324 -0.0285976 0)
(0.249048 -0.0351297 0)
(0.245445 -0.0416512 0)
(0.241506 -0.0481668 0)
(0.237221 -0.0546806 0)
(0.232579 -0.0611964 0)
(0.227572 -0.0677174 0)
(0.222189 -0.0742465 0)
(0.21642 -0.0807866 0)
(0.210257 -0.0873406 0)
(0.203692 -0.0939123 0)
(0.196719 -0.100507 0)
(0.276317 0.088898 0)
(0.277815 0.0813986 0)
(0.279054 0.074027 0)
(0.280032 0.066779 0)
(0.280751 0.059649 0)
(0.281209 0.0526308 0)
(0.281404 0.0457177 0)
(0.281334 0.0389027 0)
(0.280994 0.0321782 0)
(0.280381 0.025537 0)
(0.27949 0.0189717 0)
(0.278317 0.0124748 0)
(0.276855 0.00603925 0)
(0.275098 -0.000341903 0)
(0.27304 -0.00667517 0)
(0.270673 -0.012967 0)
(0.267989 -0.0192235 0)
(0.264982 -0.0254501 0)
(0.261641 -0.031652 0)
(0.257957 -0.037834 0)
(0.253922 -0.0440005 0)
(0.249526 -0.0501553 0)
(0.244757 -0.056302 0)
(0.239607 -0.0624439 0)
(0.234066 -0.0685842 0)
(0.228124 -0.0747263 0)
(0.221773 -0.0808743 0)
(0.215006 -0.0870331 0)
(0.207817 -0.09321 0)
(0.287356 0.0871457 0)
(0.289103 0.0799189 0)
(0.290566 0.0728184 0)
(0.291747 0.0658407 0)
(0.292646 0.0589813 0)
(0.293263 0.0522349 0)
(0.293598 0.0455956 0)
(0.293647 0.039057 0)
(0.293408 0.0326125 0)
(0.292879 0.0262551 0)
(0.292054 0.0199783 0)
(0.29093 0.0137751 0)
(0.289501 0.00763913 0)
(0.287761 0.00156385 0)
(0.285704 -0.00445667 0)
(0.283322 -0.0104284 0)
(0.280609 -0.0163568 0)
(0.277557 -0.0222469 0)
(0.274155 -0.0281034 0)
(0.270397 -0.0339308 0)
(0.266272 -0.039733 0)
(0.261771 -0.0455136 0)
(0.256884 -0.0512763 0)
(0.251602 -0.0570243 0)
(0.245915 -0.0627614 0)
(0.239814 -0.0684917 0)
(0.233292 -0.0742202 0)
(0.226342 -0.0799536 0)
(0.21896 -0.0857011 0)
(0.298014 0.0851206 0)
(0.300032 0.0781917 0)
(0.30174 0.0713862 0)
(0.303142 0.064702 0)
(0.30424 0.0581355 0)
(0.305032 0.0516822 0)
(0.305521 0.045337 0)
(0.305704 0.0390944 0)
(0.305579 0.0329485 0)
(0.305145 0.0268933 0)
(0.304397 0.0209225 0)
(0.303331 0.0150301 0)
(0.301944 0.00921029 0)
(0.300229 0.00345716 0)
(0.298181 -0.00223482 0)
(0.295793 -0.00787081 0)
(0.293058 -0.0134558 0)
(0.289968 -0.0189944 0)
(0.286515 -0.0244908 0)
(0.282691 -0.029949 0)
(0.278487 -0.0353728 0)
(0.273894 -0.0407656 0)
(0.268902 -0.0461311 0)
(0.263504 -0.0514728 0)
(0.25769 -0.0567949 0)
(0.251454 -0.0621023 0)
(0.244787 -0.0674013 0)
(0.237686 -0.0727003 0)
(0.230146 -0.0780108 0)
(0.308178 0.0828007 0)
(0.310487 0.0761958 0)
(0.312461 0.0697108 0)
(0.314103 0.0633444 0)
(0.315416 0.0570941 0)
(0.316401 0.0509563 0)
(0.31706 0.0449269 0)
(0.317391 0.039001 0)
(0.317394 0.0331737 0)
(0.317067 0.0274396 0)
(0.316408 0.0217934 0)
(0.315413 0.0162296 0)
(0.314079 0.0107431 0)
(0.3124 0.00532861 0)
(0.310372 -1.8777e-05 0)
(0.307988 -0.00530352 0)
(0.305242 -0.0105302 0)
(0.302128 -0.0157028 0)
(0.298637 -0.0208254 0)
(0.294763 -0.0259014 0)
(0.290497 -0.0309345 0)
(0.285832 -0.0359281 0)
(0.280759 -0.0408858 0)
(0.275271 -0.0458116 0)
(0.269361 -0.0507104 0)
(0.263022 -0.055588 0)
(0.25625 -0.0604519 0)
(0.249041 -0.0653125 0)
(0.241393 -0.0701832 0)
(0.317729 0.0801658 0)
(0.320348 0.0739117 0)
(0.322606 0.0677732 0)
(0.324506 0.0617498 0)
(0.326051 0.05584 0)
(0.327246 0.0500411 0)
(0.32809 0.0443498 0)
(0.328585 0.0387622 0)
(0.32873 0.0332741 0)
(0.328526 0.0278809 0)
(0.32797 0.0225781 0)
(0.32706 0.017361 0)
(0.325793 0.012225 0)
(0.324165 0.00716566 0)
(0.322171 0.00217857 0)
(0.319808 -0.00274026 0)
(0.31707 -0.00759473 0)
(0.313951 -0.0123886 0)
(0.310444 -0.0171254 0)
(0.306544 -0.0218084 0)
(0.302244 -0.0264412 0)
(0.297537 -0.0310272 0)
(0.292417 -0.0355703 0)
(0.286879 -0.040075 0)
(0.280917 -0.0445468 0)
(0.274526 -0.0489925 0)
(0.267704 -0.0534213 0)
(0.260449 -0.0578448 0)
(0.25276 -0.0622789 0)
(0.326542 0.077198 0)
(0.329488 0.0713217 0)
(0.332046 0.0655559 0)
(0.33422 0.0599011 0)
(0.336015 0.0543563 0)
(0.337435 0.04892 0)
(0.338482 0.0435896 0)
(0.339157 0.0383621 0)
(0.339462 0.0332339 0)
(0.339398 0.0282015 0)
(0.338962 0.0232609 0)
(0.338156 0.0184081 0)
(0.336975 0.0136393 0)
(0.335419 0.00895048 0)
(0.333484 0.00433801 0)
(0.331167 -0.000201841 0)
(0.328463 -0.00467233 0)
(0.325369 -0.00907696 0)
(0.32188 -0.013419 0)
(0.317992 -0.0177017 0)
(0.313699 -0.0219284 0)
(0.308997 -0.026103 0)
(0.303883 -0.0302295 0)
(0.298352 -0.034313 0)
(0.292401 -0.0383598 0)
(0.286029 -0.0423778 0)
(0.279233 -0.0463773 0)
(0.272014 -0.0503718 0)
(0.264374 -0.054379 0)
(0.334496 0.0738823 0)
(0.337782 0.0684104 0)
(0.340655 0.0630432 0)
(0.34312 0.057782 0)
(0.345182 0.0526266 0)
(0.346845 0.0475762 0)
(0.348113 0.0426289 0)
(0.348989 0.0377826 0)
(0.349475 0.0330345 0)
(0.349573 0.0283815 0)
(0.349283 0.0238206 0)
(0.348606 0.0193484 0)
(0.347542 0.0149615 0)
(0.346089 0.0106567 0)
(0.344247 0.00643055 0)
(0.342014 0.00227994 0)
(0.339388 -0.00179825 0)
(0.336366 -0.00580701 0)
(0.332946 -0.00974959 0)
(0.329126 -0.0136293 0)
(0.324903 -0.0174495 0)
(0.320275 -0.0212143 0)
(0.31524 -0.0249282 0)
(0.309798 -0.0285968 0)
(0.303946 -0.0322272 0)
(0.297686 -0.0358282 0)
(0.291017 -0.0394114 0)
(0.283943 -0.0429915 0)
(0.276466 -0.0465876 0)
(0.341481 0.0702057 0)
(0.345123 0.0651634 0)
(0.348328 0.0602195 0)
(0.351101 0.0553756 0)
(0.35345 0.0506324 0)
(0.355379 0.0459896 0)
(0.356894 0.041446 0)
(0.357998 0.0370002 0)
(0.358696 0.0326499 0)
(0.35899 0.0283929 0)
(0.358884 0.0242266 0)
(0.358378 0.0201481 0)
(0.357475 0.0161547 0)
(0.356176 0.0122434 0)
(0.354482 0.00841132 0)
(0.352392 0.00465566 0)
(0.349908 0.000973374 0)
(0.347029 -0.00263829 0)
(0.343756 -0.00618249 0)
(0.340087 -0.00966255 0)
(0.336024 -0.0130821 0)
(0.331567 -0.0164454 0)
(0.326715 -0.0197575 0)
(0.321471 -0.0230243 0)
(0.315836 -0.0262537 0)
(0.309811 -0.0294553 0)
(0.303399 -0.0326414 0)
(0.296604 -0.0358277 0)
(0.289429 -0.0390345 0)
(0.347441 0.0661541 0)
(0.351458 0.0615639 0)
(0.355019 0.057065 0)
(0.358129 0.0526594 0)
(0.360796 0.0483481 0)
(0.363028 0.0441314 0)
(0.36483 0.0400087 0)
(0.366208 0.0359789 0)
(0.367167 0.0320405 0)
(0.367713 0.0281916 0)
(0.36785 0.0244302 0)
(0.367582 0.0207538 0)
(0.366913 0.0171601 0)
(0.365846 0.0136465 0)
(0.364383 0.0102104 0)
(0.362528 0.00684925 0)
(0.360284 0.00356024 0)
(0.357652 0.000340449 0)
(0.354635 -0.0028131 0)
(0.351236 -0.00590377 0)
(0.347456 -0.00893534 0)
(0.343299 -0.0119122 0)
(0.338767 -0.0148398 0)
(0.333864 -0.0177244 0)
(0.328591 -0.0205743 0)
(0.322954 -0.0233995 0)
(0.316955 -0.0262129 0)
(0.310598 -0.0290305 0)
(0.303888 -0.0318731 0)
(0.352464 0.0617035 0)
(0.356896 0.0575836 0)
(0.360857 0.0535468 0)
(0.364355 0.0495953 0)
(0.367398 0.0457305 0)
(0.369995 0.041953 0)
(0.372154 0.0382625 0)
(0.373882 0.0346586 0)
(0.375187 0.0311399 0)
(0.376075 0.0277052 0)
(0.376553 0.0243525 0)
(0.376626 0.0210801 0)
(0.376301 0.0178857 0)
(0.375582 0.0147672 0)
(0.374476 0.0117222 0)
(0.372987 0.00874829 0)
(0.371119 0.00584285 0)
(0.368878 0.0030031 0)
(0.366267 0.000226061 0)
(0.363291 -0.00249162 0)
(0.359955 -0.00515383 0)
(0.356262 -0.00776497 0)
(0.352218 -0.0103304 0)
(0.347825 -0.0128569 0)
(0.343089 -0.0153526 0)
(0.338014 -0.0178277 0)
(0.332603 -0.0202949 0)
(0.326861 -0.0227705 0)
(0.32079 -0.0252746 0)
(0.357014 0.0568041 0)
(0.361939 0.0531657 0)
(0.366385 0.0496009 0)
(0.370363 0.0461123 0)
(0.373883 0.0427013 0)
(0.376955 0.0393687 0)
(0.379587 0.0361147 0)
(0.381789 0.0329389 0)
(0.383569 0.0298405 0)
(0.384937 0.0268185 0)
(0.3859 0.0238713 0)
(0.386465 0.0209975 0)
(0.386641 0.0181953 0)
(0.386435 0.0154626 0)
(0.385853 0.0127974 0)
(0.384901 0.0101974 0)
(0.383587 0.00766045 0)
(0.381916 0.00518376 0)
(0.379894 0.00276455 0)
(0.377527 0.000399585 0)
(0.37482 -0.00191491 0)
(0.371779 -0.00418352 0)
(0.368408 -0.00641122 0)
(0.364712 -0.0086045 0)
(0.360696 -0.0107714 0)
(0.356364 -0.0129218 0)
(0.351718 -0.0150679 0)
(0.346763 -0.0172253 0)
(0.341499 -0.0194134 0)
(0.362397 0.0513578 0)
(0.367946 0.0482035 0)
(0.37302 0.0451126 0)
(0.377628 0.0420873 0)
(0.381781 0.0391293 0)
(0.38549 0.0362395 0)
(0.388764 0.0334185 0)
(0.391615 0.030666 0)
(0.394051 0.0279817 0)
(0.396083 0.0253647 0)
(0.39772 0.0228141 0)
(0.398969 0.0203284 0)
(0.399841 0.0179063 0)
(0.400342 0.0155462 0)
(0.400481 0.0132463 0)
(0.400265 0.0110046 0)
(0.3997 0.00881906 0)
(0.398795 0.00668739 0)
(0.397554 0.00460699 0)
(0.395986 0.00257491 0)
(0.394094 0.000587728 0)
(0.391885 -0.00135881 0)
(0.389364 -0.0032699 0)
(0.386535 -0.0051512 0)
(0.383403 -0.0070101 0)
(0.37997 -0.00885582 0)
(0.37624 -0.0106998 0)
(0.372212 -0.0125564 0)
(0.367888 -0.0144436 0)
(0.371513 0.0452038 0)
(0.37787 0.0425289 0)
(0.383758 0.0399064 0)
(0.389186 0.0373386 0)
(0.394166 0.0348272 0)
(0.398708 0.0323733 0)
(0.402822 0.0299776 0)
(0.40652 0.0276402 0)
(0.40981 0.0253611 0)
(0.412703 0.0231397 0)
(0.415208 0.0209753 0)
(0.417334 0.0188671 0)
(0.419089 0.0168139 0)
(0.420482 0.0148145 0)
(0.421521 0.0128675 0)
(0.422214 0.0109713 0)
(0.422566 0.0091242 0)
(0.422587 0.00732417 0)
(0.422281 0.005569 0)
(0.421655 0.00385608 0)
(0.420715 0.00218241 0)
(0.419466 0.000544411 0)
(0.417912 -0.00106278 0)
(0.416058 -0.00264454 0)
(0.413908 -0.00420722 0)
(0.411464 -0.00575899 0)
(0.408726 -0.00731015 0)
(0.405696 -0.00887357 0)
(0.40237 -0.0104652 0)
(0.389791 0.0381464 0)
(0.397116 0.0359439 0)
(0.403974 0.0337833 0)
(0.410377 0.0316668 0)
(0.416333 0.0295962 0)
(0.421854 0.0275726 0)
(0.426949 0.025597 0)
(0.431627 0.0236697 0)
(0.435899 0.0217908 0)
(0.439773 0.0199603 0)
(0.443258 0.0181778 0)
(0.446364 0.0164427 0)
(0.449099 0.0147542 0)
(0.45147 0.0131114 0)
(0.453486 0.0115134 0)
(0.455154 0.00995874 0)
(0.456481 0.00844617 0)
(0.457474 0.00697409 0)
(0.458139 0.00554067 0)
(0.458483 0.00414369 0)
(0.458511 0.00278056 0)
(0.458228 0.00144793 0)
(0.457639 0.000142265 0)
(0.456748 -0.00114161 0)
(0.455558 -0.0024091 0)
(0.454071 -0.00366716 0)
(0.452288 -0.00492469 0)
(0.450207 -0.0061928 0)
(0.447826 -0.00748524 0)
(0.425752 0.0300734 0)
(0.434012 0.0283414 0)
(0.441803 0.026642 0)
(0.449134 0.0249773 0)
(0.456014 0.0233489 0)
(0.462452 0.0217582 0)
(0.468457 0.020206 0)
(0.474038 0.0186928 0)
(0.479203 0.017219 0)
(0.483963 0.0157846 0)
(0.488325 0.0143896 0)
(0.492297 0.0130335 0)
(0.49589 0.0117159 0)
(0.49911 0.0104361 0)
(0.501966 0.00919339 0)
(0.504465 0.00798675 0)
(0.506614 0.00681506 0)
(0.508422 0.00567704 0)
(0.509895 0.00457147 0)
(0.511039 0.00349662 0)
(0.511861 0.00245051 0)
(0.512366 0.00142927 0)
(0.512558 0.00043044 0)
(0.512443 -0.000549823 0)
(0.512025 -0.00151603 0)
(0.511305 -0.00247416 0)
(0.510284 -0.00343158 0)
(0.508962 -0.00439736 0)
(0.507334 -0.00538276 0)
(0.490251 0.0211637 0)
(0.498991 0.0199085 0)
(0.507257 0.018678 0)
(0.515058 0.017474 0)
(0.5224 0.0162979 0)
(0.529294 0.0151507 0)
(0.535747 0.0140332 0)
(0.541769 0.012946 0)
(0.547368 0.0118892 0)
(0.552553 0.0108631 0)
(0.557334 0.00986754 0)
(0.56172 0.00890233 0)
(0.56572 0.00796713 0)
(0.569342 0.00706145 0)
(0.572596 0.0061847 0)
(0.575489 0.00533607 0)
(0.578032 0.00451457 0)
(0.580231 0.00371871 0)
(0.582095 0.00294788 0)
(0.583632 0.00220115 0)
(0.584847 0.00147795 0)
(0.585748 0.000772719 0)
(0.58634 8.44834e-05 0)
(0.586631 -0.000587956 0)
(0.586624 -0.00124924 0)
(0.586322 -0.00190452 0)
(0.585726 -0.00255944 0)
(0.584836 -0.00322082 0)
(0.583648 -0.00389719 0)
(0.593337 0.0120908 0)
(0.601486 0.0113181 0)
(0.609178 0.0105629 0)
(0.616421 0.00982625 0)
(0.623222 0.00910902 0)
(0.629591 0.00841187 0)
(0.635537 0.00773528 0)
(0.641069 0.00707953 0)
(0.646198 0.00644476 0)
(0.650933 0.00583096 0)
(0.655283 0.00523802 0)
(0.65926 0.00466572 0)
(0.662873 0.00411374 0)
(0.666133 0.0035817 0)
(0.669048 0.00306915 0)
(0.671629 0.00257556 0)
(0.673885 0.00210034 0)
(0.675825 0.00164165 0)
(0.67746 0.00119832 0)
(0.6788 0.000770499 0)
(0.679844 0.000355329 0)
(0.680606 -4.36902e-05 0)
(0.681095 -0.000430476 0)
(0.681316 -0.000807786 0)
(0.681271 -0.00117885 0)
(0.680964 -0.00154686 0)
(0.680398 -0.00191546 0)
(0.679574 -0.00228919 0)
(0.678487 -0.00267372 0)
(0.738225 0.0043188 0)
(0.74415 0.00399068 0)
(0.749699 0.00367232 0)
(0.75488 0.00336411 0)
(0.759702 0.00306633 0)
(0.764175 0.00277916 0)
(0.768307 0.00250268 0)
(0.772108 0.00223689 0)
(0.77559 0.00198169 0)
(0.77876 0.00173698 0)
(0.78163 0.00150252 0)
(0.78421 0.00127811 0)
(0.786509 0.00106339 0)
(0.788537 0.000858107 0)
(0.790304 0.00066171 0)
(0.79182 0.000474258 0)
(0.793091 0.00029509 0)
(0.794127 0.000126303 0)
(0.794939 -3.45591e-05 0)
(0.795533 -0.000190197 0)
(0.795917 -0.000342965 0)
(0.796101 -0.0004879 0)
(0.796084 -0.000627083 0)
(0.795875 -0.000763695 0)
(0.795476 -0.0008988 0)
(0.794893 -0.00103356 0)
(0.794125 -0.00116981 0)
(0.793173 -0.00130991 0)
(0.792032 -0.00145682 0)
(0.913347 0.000497233 0)
(0.915409 0.00043443 0)
(0.917297 0.000374558 0)
(0.919016 0.000317636 0)