/*--------------------------------*- C++ -*----------------------------------*\
  =========                 |
  \\      /  F ield         | OpenFOAM: The Open Source CFD Toolbox
   \\    /   O peration     | Website:  https://openfoam.org
    \\  /    A nd           | Version:  9
     \\/     M anipulation  |
\*---------------------------------------------------------------------------*/
FoamFile
{
    format      ascii;
    class       volScalarField;
    location    "2.25";
    object      p;
}
// * * * * * * * * * * * * * * * * * * * * * * * * * * * * * * * * * * * * * //

dimensions      [0 2 -2 0 0 0 0];

internalField   nonuniform List<scalar> 
1250
(
-0.0140588
-0.0142091
-0.0152593
-0.0153861
-0.0155403
-0.0157666
-0.0160997
-0.0165618
-0.0171712
-0.0179434
-0.0188922
-0.0200297
-0.0213664
-0.0229097
-0.0246636
-0.026627
-0.0287938
-0.0311522
-0.0336853
-0.0363711
-0.039184
-0.0420953
-0.0450751
-0.0480932
-0.0511207
-0.0541309
-0.0571
-0.0600082
-0.0628392
-0.0655808
-0.0682242
-0.0707635
-0.0731958
-0.0755198
-0.0777358
-0.0798449
-0.0164449
-0.0165476
-0.0166908
-0.0169144
-0.0172503
-0.0177202
-0.0183418
-0.0191297
-0.0200971
-0.0212554
-0.0226143
-0.0241808
-0.025958
-0.0279442
-0.0301324
-0.0325101
-0.0350596
-0.0377583
-0.0405802
-0.0434963
-0.0464766
-0.0494912
-0.0525114
-0.0555111
-0.0584674
-0.0613609
-0.0641763
-0.0669019
-0.0695298
-0.0720546
-0.0744737
-0.0767863
-0.0789927
-0.0810942
-0.0830925
-0.0849892
-0.0867858
-0.0884837
-0.0900836
-0.0915859
-0.0929907
-0.0942976
-0.0955061
-0.0176067
-0.0176847
-0.017816
-0.0180355
-0.0183726
-0.0188484
-0.0194797
-0.0202807
-0.0212634
-0.0224388
-0.0238159
-0.025401
-0.0271964
-0.0291999
-0.0314038
-0.033795
-0.0363551
-0.0390611
-0.0418867
-0.0448028
-0.0477794
-0.0507868
-0.0537969
-0.0567841
-0.059726
-0.062604
-0.0654035
-0.0681134
-0.0707263
-0.0732374
-0.0756443
-0.0779465
-0.0801443
-0.0822393
-0.0842329
-0.0861268
-0.0879222
-0.0896204
-0.0912218
-0.0927268
-0.0941352
-0.0954463
-0.0966594
-0.0977733
-0.098787
-0.0996992
-0.100509
-0.101214
-0.101815
-0.0187364
-0.0187896
-0.018908
-0.019122
-0.0194585
-0.019938
-0.0205767
-0.0213878
-0.0223828
-0.0235716
-0.0249628
-0.0265619
-0.0283707
-0.0303863
-0.0326005
-0.0349997
-0.0375651
-0.0402734
-0.043098
-0.0460099
-0.0489792
-0.0519766
-0.0549743
-0.0579473
-0.0608738
-0.0637359
-0.0665195
-0.0692142
-0.0718129
-0.0743111
-0.0767068
-0.0789996
-0.08119
-0.0832793
-0.0852691
-0.0871608
-0.0889556
-0.0906545
-0.0922578
-0.0937657
-0.0951776
-0.0964929
-0.0977105
-0.0988293
-0.099848
-0.100765
-0.101579
-0.10229
-0.102895
-0.0198268
-0.0198546
-0.0199593
-0.0201667
-0.0205008
-0.0209819
-0.0216255
-0.022444
-0.023448
-0.0246468
-0.026048
-0.0276567
-0.0294742
-0.031497
-0.0337165
-0.0361187
-0.0386845
-0.0413904
-0.0442098
-0.0471138
-0.0500727
-0.0530575
-0.056041
-0.0589985
-0.061909
-0.0647551
-0.0675231
-0.0702032
-0.0727884
-0.0752747
-0.0776603
-0.0799447
-0.0821285
-0.0842131
-0.0861998
-0.0880899
-0.0898846
-0.0915846
-0.09319
-0.0947008
-0.0961163
-0.0974357
-0.0986578
-0.0997813
-0.100805
-0.101726
-0.102545
-0.10326
-0.103869
-0.02087
-0.0208725
-0.0209644
-0.0211628
-0.0214929
-0.0219735
-0.0226196
-0.0234427
-0.0244525
-0.0256577
-0.0270652
-0.0286795
-0.0305012
-0.0325265
-0.0347466
-0.037147
-0.0397087
-0.042408
-0.0452184
-0.0481111
-0.0510569
-0.054027
-0.0569947
-0.059936
-0.0628301
-0.0656602
-0.068413
-0.071079
-0.0736517
-0.0761271
-0.0785035
-0.0807805
-0.0829588
-0.0850394
-0.0870237
-0.0889129
-0.0907078
-0.0924091
-0.0940168
-0.0955306
-0.0969497
-0.0982731
-0.0994995
-0.100627
-0.101655
-0.102582
-0.103405
-0.104123
-0.104736
-0.0218603
-0.0218379
-0.0219152
-0.0221051
-0.022429
-0.0229069
-0.0235529
-0.0243778
-0.0253905
-0.0265987
-0.0280088
-0.0296245
-0.0314462
-0.0334697
-0.0356859
-0.0380802
-0.0406335
-0.0433224
-0.0461203
-0.0489989
-0.0519292
-0.0548829
-0.0578336
-0.0607579
-0.0636354
-0.0664498
-0.069188
-0.0718408
-0.0744018
-0.0768673
-0.0792355
-0.0815061
-0.0836796
-0.085757
-0.0877395
-0.0896282
-0.0914238
-0.0931267
-0.0947368
-0.0962536
-0.0976763
-0.0990036
-0.100234
-0.101366
-0.102398
-0.103329
-0.104156
-0.104879
-0.105495
-0.0227922
-0.0227458
-0.0228078
-0.0229874
-0.0233038
-0.023777
-0.0244204
-0.0252444
-0.0262568
-0.0274647
-0.0288737
-0.0304871
-0.0323048
-0.0343223
-0.0365304
-0.0389146
-0.0414557
-0.0441305
-0.0469129
-0.0497747
-0.0526874
-0.0556231
-0.058556
-0.0614628
-0.0643237
-0.0671226
-0.0698468
-0.0724871
-0.0750375
-0.0774941
-0.0798551
-0.0821201
-0.0842896
-0.0863646
-0.0883459
-0.0902346
-0.0920311
-0.0937359
-0.0953485
-0.0968684
-0.0982945
-0.0996256
-0.10086
-0.101996
-0.103033
-0.103967
-0.104798
-0.105524
-0.106144
-0.0236612
-0.0235916
-0.0236381
-0.0238061
-0.0241133
-0.0245794
-0.025218
-0.0260382
-0.0270473
-0.0282517
-0.0296562
-0.0312635
-0.0330733
-0.0350808
-0.0372769
-0.039647
-0.0421724
-0.0448299
-0.0475938
-0.0504364
-0.0533297
-0.0562461
-0.0591602
-0.0620492
-0.0648935
-0.0676774
-0.0703882
-0.073017
-0.0755576
-0.0780062
-0.0803609
-0.0826214
-0.0847877
-0.0868609
-0.0888416
-0.0907307
-0.0925286
-0.0942353
-0.0958506
-0.0973736
-0.0988032
-0.100138
-0.101376
-0.102517
-0.103557
-0.104495
-0.10533
-0.106059
-0.106682
-0.0244636
-0.0243717
-0.0244026
-0.0245579
-0.0248542
-0.0253112
-0.0259422
-0.0267559
-0.0277588
-0.0289564
-0.030353
-0.0319507
-0.0337488
-0.0357426
-0.0379228
-0.0402753
-0.0427814
-0.0454185
-0.0481612
-0.0509824
-0.0538547
-0.0567505
-0.059645
-0.0625159
-0.0653438
-0.068113
-0.0708111
-0.0734291
-0.0759608
-0.0784024
-0.0807519
-0.0830085
-0.0851726
-0.0872446
-0.0892252
-0.0911152
-0.0929148
-0.0946238
-0.0962419
-0.0977681
-0.0992012
-0.10054
-0.101782
-0.102926
-0.10397
-0.104912
-0.10575
-0.106483
-0.107109
-0.0251967
-0.0250835
-0.0250987
-0.0252405
-0.0255242
-0.0259701
-0.026591
-0.0273954
-0.028389
-0.0295766
-0.0309618
-0.0325464
-0.0343293
-0.0363057
-0.0384665
-0.0407978
-0.0432813
-0.045895
-0.0486139
-0.0514113
-0.0542614
-0.0571351
-0.0600093
-0.0628618
-0.0656733
-0.0684282
-0.0711143
-0.0737223
-0.0762461
-0.0786815
-0.0810266
-0.0832804
-0.0854428
-0.0875144
-0.0894957
-0.091387
-0.0931886
-0.0949002
-0.0965213
-0.0980509
-0.0994876
-0.10083
-0.102076
-0.103224
-0.104271
-0.105217
-0.106058
-0.106794
-0.107423
-0.0258585
-0.0257254
-0.0257249
-0.0258523
-0.026122
-0.0265545
-0.0271629
-0.0279551
-0.0289364
-0.0301108
-0.0314814
-0.0330493
-0.0348134
-0.0367689
-0.0389067
-0.0412134
-0.0436712
-0.0462587
-0.0489514
-0.0517232
-0.0545477
-0.0573987
-0.0602521
-0.0630859
-0.0658811
-0.0686221
-0.0712966
-0.0738954
-0.076412
-0.0788423
-0.0811838
-0.0834356
-0.0855973
-0.0876692
-0.0896516
-0.0915448
-0.0933489
-0.0950635
-0.0966879
-0.0982211
-0.0996615
-0.101008
-0.102258
-0.103409
-0.0264481
-0.0262965
-0.0262805
-0.0263927
-0.0266469
-0.0270641
-0.0276574
-0.0284346
-0.0294005
-0.0305585
-0.031911
-0.0334589
-0.0352007
-0.0371316
-0.0392429
-0.0415216
-0.0439504
-0.0465086
-0.0491725
-0.0519164
-0.0547145
-0.0575413
-0.0603729
-0.0631875
-0.0659662
-0.0686935
-0.071357
-0.0739472
-0.0764575
-0.0788834
-0.0812224
-0.083473
-0.0856347
-0.0877077
-0.089692
-0.0915877
-0.0933948
-0.0951128
-0.0967409
-0.0982779
-0.0997224
-0.101073
-0.102326
-0.103482
-0.0269652
-0.0267966
-0.0267654
-0.026862
-0.0270993
-0.0274991
-0.0280749
-0.0288342
-0.0297815
-0.0309198
-0.0322509
-0.0337753
-0.0354912
-0.037394
-0.0394753
-0.0417225
-0.0441192
-0.0466451
-0.0492774
-0.0519912
-0.0547612
-0.0575624
-0.0603711
-0.0631659
-0.0659279
-0.0686417
-0.0712944
-0.0738767
-0.0763813
-0.0788038
-0.0811409
-0.0833912
-0.0855539
-0.0876288
-0.0896157
-0.0915147
-0.0933254
-0.0950473
-0.0966796
-0.0982209
-0.0996697
-0.101024
-0.102282
-0.103442
-0.0274105
-0.0272265
-0.0271806
-0.027261
-0.0274803
-0.0278608
-0.0284165
-0.029155
-0.0300807
-0.0311959
-0.0325022
-0.0339994
-0.0356859
-0.037557
-0.0396046
-0.041817
-0.0441781
-0.0466687
-0.0492666
-0.0519479
-0.0546877
-0.0574616
-0.0602463
-0.0630205
-0.0657656
-0.0684656
-0.071108
-0.0736827
-0.0761824
-0.0786021
-0.0809384
-0.0831893
-0.0853538
-0.0874314
-0.0894218
-0.0913247
-0.0931398
-0.0948664
-0.0965034
-0.0980495
-0.0995031
-0.100862
-0.102125
-0.10329
-0.0277852
-0.0275876
-0.0275275
-0.0275914
-0.0277916
-0.028151
-0.0286842
-0.0293991
-0.0302998
-0.0313886
-0.0326664
-0.034133
-0.0357863
-0.037622
-0.0396324
-0.0418062
-0.0441283
-0.0465803
-0.0491409
-0.051787
-0.0544944
-0.0572392
-0.0599985
-0.0627512
-0.0654786
-0.0681648
-0.0707968
-0.0733643
-0.0758596
-0.0782773
-0.0806135
-0.082866
-0.0850333
-0.0871146
-0.0891094
-0.0910172
-0.0928375
-0.0945694
-0.0962119
-0.0977635
-0.0992226
-0.100587
-0.101855
-0.103025
-0.0280914
-0.0278819
-0.0278083
-0.0278556
-0.0280358
-0.0283724
-0.0288807
-0.029569
-0.0304416
-0.0315004
-0.0327462
-0.0341783
-0.0357947
-0.0375911
-0.0395604
-0.0416919
-0.0439714
-0.0463814
-0.0489015
-0.0515095
-0.054182
-0.0568956
-0.0596278
-0.0623577
-0.0650666
-0.0677385
-0.07036
-0.0729206
-0.075412
-0.0778283
-0.0801653
-0.0824202
-0.0845912
-0.0866773
-0.0886775
-0.0905912
-0.0924177
-0.094156
-0.0958049
-0.0973628
-0.0988282
-0.100199
-0.101473
-0.102648
-0.0283315
-0.028112
-0.0280258
-0.0280565
-0.0282159
-0.0285282
-0.0290093
-0.0296681
-0.0305092
-0.0315345
-0.0327444
-0.0341382
-0.0357137
-0.0374669
-0.0393911
-0.0414764
-0.0437095
-0.0460737
-0.0485499
-0.0511166
-0.0537513
-0.0564313
-0.0591345
-0.06184
-0.0645294
-0.0671863
-0.0697971
-0.0723507
-0.0748385
-0.0772541
-0.0795926
-0.0818509
-0.0840268
-0.0861187
-0.0881255
-0.0900462
-0.09188
-0.0936257
-0.095282
-0.0968473
-0.0983198
-0.0996975
-0.100978
-0.10216
-0.0285088
-0.0282811
-0.0281832
-0.0281975
-0.0283355
-0.0286221
-0.0290739
-0.0297004
-0.0305067
-0.0314947
-0.0326648
-0.0340162
-0.0355468
-0.0372526
-0.0391276
-0.0411625
-0.0433449
-0.0456595
-0.048088
-0.05061
-0.0532039
-0.0558475
-0.0585193
-0.0611987
-0.0638671
-0.066508
-0.0691075
-0.071654
-0.0741385
-0.0765537
-0.0788945
-0.0811572
-0.0833389
-0.0854378
-0.0874525
-0.0893816
-0.091224
-0.0929784
-0.0946433
-0.0962171
-0.0976979
-0.0990836
-0.100372
-0.101561
-0.0286266
-0.0283926
-0.028284
-0.0282823
-0.0283987
-0.0286584
-0.0290788
-0.0296703
-0.0304384
-0.0313854
-0.0325117
-0.0338165
-0.0352977
-0.0369518
-0.0387731
-0.0407532
-0.0428808
-0.0451415
-0.0475182
-0.0499917
-0.0525412
-0.0551454
-0.0577831
-0.0604341
-0.0630798
-0.0657035
-0.0682909
-0.07083
-0.0733111
-0.0757264
-0.0780702
-0.0803381
-0.0825269
-0.0846341
-0.0866579
-0.0885967
-0.0904492
-0.0922137
-0.0938887
-0.0954723
-0.0969627
-0.0983576
-0.0996548
-0.100852
-0.0286889
-0.0284505
-0.0283323
-0.0283151
-0.0284097
-0.0286416
-0.0290289
-0.0295827
-0.0303093
-0.0312114
-0.0322898
-0.0335435
-0.0349709
-0.0365686
-0.0383316
-0.0402522
-0.0423203
-0.0445226
-0.0468432
-0.049264
-0.0517653
-0.0543265
-0.0569271
-0.0595471
-0.062168
-0.0647729
-0.0673472
-0.0698782
-0.0723558
-0.0747715
-0.0771189
-0.0793929
-0.0815898
-0.0837066
-0.0857411
-0.0876912
-0.0895553
-0.0913315
-0.0930182
-0.0946133
-0.0961147
-0.0975203
-0.0988277
-0.100034
-0.0286998
-0.0284588
-0.0283323
-0.0283003
-0.0283732
-0.0285766
-0.0289291
-0.0294427
-0.0301246
-0.030978
-0.0320041
-0.0332023
-0.034571
-0.0361075
-0.0378072
-0.0396635
-0.0416671
-0.0438061
-0.0460659
-0.0484295
-0.0508784
-0.0533928
-0.0559528
-0.0585389
-0.0611325
-0.0637168
-0.0662765
-0.0687986
-0.0712723
-0.0736885
-0.0760399
-0.078321
-0.0805271
-0.0826549
-0.0847016
-0.0866646
-0.0885421
-0.0903319
-0.0920319
-0.0936402
-0.0951545
-0.0965724
-0.0978915
-0.0991093
-0.0286636
-0.0284219
-0.0282883
-0.0282424
-0.0282939
-0.0284683
-0.0287847
-0.0292559
-0.0298899
-0.0306908
-0.0316602
-0.0327981
-0.0341033
-0.0355734
-0.0372047
-0.0389913
-0.0409253
-0.0429959
-0.0451897
-0.0474913
-0.0498832
-0.0523465
-0.0548622
-0.0574109
-0.0599745
-0.0625357
-0.0650792
-0.0675913
-0.0700606
-0.0724771
-0.074833
-0.0771218
-0.0793383
-0.0814785
-0.0835389
-0.0855168
-0.0874095
-0.0892147
-0.0909302
-0.0925536
-0.0940826
-0.0955147
-0.0968473
-0.098078
-0.0285849
-0.0283441
-0.0282047
-0.0281459
-0.0281767
-0.0283219
-0.0286012
-0.0290279
-0.0296109
-0.0303555
-0.0312638
-0.0323365
-0.033573
-0.0349714
-0.0365287
-0.0382403
-0.0400991
-0.0420957
-0.0442183
-0.0464527
-0.0487826
-0.0511903
-0.0536573
-0.056165
-0.0586953
-0.0612309
-0.0637561
-0.0662568
-0.0687207
-0.0711373
-0.0734979
-0.0757951
-0.0780231
-0.0801771
-0.082253
-0.0842474
-0.0861574
-0.0879802
-0.0897133
-0.091354
-0.0928998
-0.0943481
-0.0956963
-0.0969417
-0.0284681
-0.0282299
-0.0280861
-0.0280155
-0.0280263
-0.0281425
-0.0283838
-0.0287642
-0.0292936
-0.0299781
-0.030821
-0.0318235
-0.0329858
-0.0343069
-0.0357846
-0.0374152
-0.039193
-0.04111
-0.0431557
-0.0453173
-0.0475799
-0.0499269
-0.0523408
-0.0548034
-0.0572968
-0.0598038
-0.0623084
-0.0647959
-0.0672534
-0.0696696
-0.0720348
-0.0743411
-0.0765815
-0.0787507
-0.0808437
-0.0828567
-0.084786
-0.0866287
-0.0883816
-0.090042
-0.091607
-0.0930738
-0.0944397
-0.0957018
-0.0283177
-0.0280837
-0.0279369
-0.0278558
-0.0278475
-0.0279351
-0.028138
-0.0284707
-0.0289438
-0.0295647
-0.0303376
-0.0312648
-0.0323475
-0.0335854
-0.0349775
-0.0365211
-0.0382118
-0.040043
-0.0420059
-0.0440889
-0.0462787
-0.0485599
-0.0509157
-0.0533287
-0.0557813
-0.0582564
-0.0607377
-0.06321
-0.0656597
-0.0680746
-0.0704444
-0.0727601
-0.0750139
-0.0771995
-0.0793114
-0.0813448
-0.0832958
-0.0851606
-0.0869358
-0.0886183
-0.090205
-0.0916928
-0.0930788
-0.0943601
-0.0281381
-0.0279098
-0.0277613
-0.027671
-0.0276448
-0.0277045
-0.0278688
-0.0281526
-0.0285673
-0.0291211
-0.0298197
-0.0306666
-0.0316639
-0.0328127
-0.0341129
-0.0355631
-0.0371604
-0.0388996
-0.0407734
-0.0427719
-0.044883
-0.0470927
-0.0493853
-0.051744
-0.0541517
-0.0565913
-0.0590462
-0.0615009
-0.0639411
-0.0663539
-0.0687279
-0.0710531
-0.073321
-0.0755243
-0.0776567
-0.0797126
-0.0816874
-0.0835768
-0.0853769
-0.0870842
-0.0886952
-0.0902066
-0.0916153
-0.0929182
-0.0279336
-0.0277123
-0.0275635
-0.0274654
-0.0274226
-0.0274553
-0.0275813
-0.0278153
-0.0281694
-0.0286531
-0.0292731
-0.0300345
-0.0309407
-0.0319941
-0.033196
-0.0345464
-0.0360437
-0.0376844
-0.0394627
-0.0413704
-0.0433969
-0.0455294
-0.0477534
-0.0500529
-0.0524111
-0.0548113
)
;

boundaryField
{
    movingWall
    {
        type            zeroGradient;
    }
    fixedWalls
    {
        type            zeroGradient;
    }
    frontAndBack
    {
        type            empty;
    }
    procBoundary3to0
    {
        type            processor;
        value           nonuniform List<scalar> 
29
(
-0.0128525
-0.0130254
-0.0143731
-0.0143731
-0.014601
-0.0149297
-0.0153822
-0.0159772
-0.0167311
-0.0176582
-0.0187713
-0.0200815
-0.0215969
-0.0233221
-0.025257
-0.0273963
-0.0297293
-0.0322396
-0.0349063
-0.0377042
-0.0406052
-0.0435795
-0.046597
-0.0496282
-0.052646
-0.0556261
-0.0585476
-0.0613936
-0.064151
)
;
    }
    procBoundary3to1
    {
        type            processor;
        value           nonuniform List<scalar> 
23
(
-0.0668102
-0.0693648
-0.0718111
-0.0741475
-0.0763741
-0.0784918
-0.0818487
-0.0818487
-0.083749
-0.0855475
-0.0872456
-0.0888443
-0.0903443
-0.0917458
-0.0930486
-0.0942522
-0.096615
-0.096615
-0.0976235
-0.0985304
-0.0993347
-0.100035
-0.100631
)
;
    }
    procBoundary3to2
    {
        type            processor;
        value           nonuniform List<scalar> 
45
(
-0.0572366
-0.0596712
-0.0621
-0.0645093
-0.0668868
-0.0692217
-0.0715043
-0.0737264
-0.0758808
-0.0779611
-0.0799619
-0.0818784
-0.083706
-0.0854408
-0.0870789
-0.0886167
-0.0900509
-0.0913781
-0.0277082
-0.0274953
-0.0273475
-0.0272431
-0.0271852
-0.0271919
-0.02728
-0.0274638
-0.0277557
-0.0281663
-0.0287037
-0.0293745
-0.0301838
-0.0311355
-0.0322324
-0.0334762
-0.0348668
-0.0364024
-0.0380787
-0.0398893
-0.041825
-0.0438745
-0.0460244
-0.0482595
-0.0505637
-0.0572366
-0.0529203
)
;
    }
    procBoundary3to5
    {
        type            processor;
        value           nonuniform List<scalar> 
21
(
-0.104461
-0.10541
-0.106255
-0.106994
-0.107625
-0.104461
-0.104537
-0.104502
-0.104354
-0.104093
-0.103722
-0.10324
-0.102647
-0.101946
-0.101138
-0.100223
-0.099204
-0.0980815
-0.0968575
-0.0955337
-0.0941123
)
;
    }
    procBoundary3to6
    {
        type            processor;
        value           nonuniform List<scalar> 9(-0.10231 -0.103394 -0.104372 -0.105243 -0.106005 -0.106656 -0.107197 -0.107627 -0.107944);
    }
}


// ************************************************************************* //
