/*--------------------------------*- C++ -*----------------------------------*\
  =========                 |
  \\      /  F ield         | OpenFOAM: The Open Source CFD Toolbox
   \\    /   O peration     | Website:  https://openfoam.org
    \\  /    A nd           | Version:  9
     \\/     M anipulation  |
\*---------------------------------------------------------------------------*/
FoamFile
{
    format      ascii;
    class       surfaceScalarField;
    location    "2.25";
    object      phi;
}
// * * * * * * * * * * * * * * * * * * * * * * * * * * * * * * * * * * * * * //

dimensions      [0 3 -1 0 0 0 0];

internalField   nonuniform List<scalar> 
2422
(
-5.61162e-09
3.18263e-07
8.37462e-07
-4.29364e-09
3.22557e-07
-1.85862e-08
8.51755e-07
-4.32528e-08
1.27705e-06
-7.75323e-08
1.61415e-06
-1.19851e-07
1.88143e-06
-1.68273e-07
2.09746e-06
-2.20874e-07
2.27859e-06
-2.7598e-07
2.43732e-06
-3.32248e-07
2.5818e-06
-3.88647e-07
2.71628e-06
-4.44389e-07
2.84199e-06
-4.98848e-07
2.95818e-06
-5.51498e-07
3.06308e-06
-6.01881e-07
3.15454e-06
-6.49588e-07
3.23051e-06
-6.94268e-07
3.28927e-06
-7.35639e-07
3.32958e-06
-7.73495e-07
3.35078e-06
-8.07728e-07
3.35275e-06
-8.38324e-07
3.33594e-06
-8.65372e-07
3.3013e-06
-8.89056e-07
3.25024e-06
-9.09641e-07
3.18449e-06
-9.27463e-07
3.10607e-06
-9.42902e-07
3.01709e-06
-9.56364e-07
2.91968e-06
-9.68259e-07
2.8159e-06
-9.78981e-07
2.70762e-06
-9.88893e-07
2.59647e-06
-9.98312e-07
2.48381e-06
-1.0075e-06
2.3707e-06
-1.01668e-06
2.25793e-06
-1.02599e-06
2.146e-06
2.0352e-06
-2.96152e-09
3.25518e-07
-1.41223e-08
8.62915e-07
-3.45821e-08
1.29751e-06
-6.41298e-08
1.6437e-06
-1.01546e-07
1.91885e-06
-1.45076e-07
2.14099e-06
-1.92856e-07
2.32637e-06
-2.43201e-07
2.48766e-06
-2.94735e-07
2.63333e-06
-3.46399e-07
2.76794e-06
-3.97398e-07
2.89298e-06
-4.47118e-07
3.0079e-06
-4.9507e-07
3.11103e-06
-5.40837e-07
3.20031e-06
-5.84066e-07
3.27374e-06
-6.24461e-07
3.32966e-06
-6.61789e-07
3.36691e-06
-6.95897e-07
3.38489e-06
-7.26713e-07
3.38357e-06
-7.54258e-07
3.36349e-06
-7.7864e-07
3.32568e-06
-8.0005e-07
3.27165e-06
-8.1875e-07
3.2032e-06
-8.35059e-07
3.12238e-06
-8.49331e-07
3.03136e-06
-8.61937e-07
2.93229e-06
-8.73244e-07
2.82721e-06
-8.83603e-07
2.71798e-06
-8.93331e-07
2.6062e-06
-9.027e-07
2.49318e-06
-9.11934e-07
2.37994e-06
-9.21207e-07
2.2672e-06
-9.30643e-07
2.15543e-06
-9.40322e-07
2.04488e-06
-9.50283e-07
1.93559e-06
-9.60538e-07
1.8275e-06
-9.71069e-07
1.72044e-06
-9.81842e-07
1.61419e-06
-9.92813e-07
1.5085e-06
-1.00393e-06
1.40312e-06
-1.01514e-06
1.29783e-06
-1.0264e-06
1.19244e-06
1.08677e-06
-1.63304e-09
3.27151e-07
-9.61878e-09
8.70901e-07
-2.57692e-08
1.31366e-06
-5.04315e-08
1.66836e-06
-8.27617e-08
1.95118e-06
-1.21212e-07
2.17944e-06
-1.63998e-07
2.36916e-06
-2.09439e-07
2.5331e-06
-2.56129e-07
2.68002e-06
-3.02984e-07
2.8148e-06
-3.49197e-07
2.9392e-06
-3.94171e-07
3.05287e-06
-4.37445e-07
3.1543e-06
-4.78648e-07
3.24151e-06
-5.17478e-07
3.31257e-06
-5.5369e-07
3.36587e-06
-5.87103e-07
3.40033e-06
-6.17607e-07
3.41539e-06
-6.45166e-07
3.41113e-06
-6.69826e-07
3.38815e-06
-6.91708e-07
3.34757e-06
-7.11005e-07
3.29094e-06
-7.27971e-07
3.22016e-06
-7.42899e-07
3.13731e-06
-7.56115e-07
3.04458e-06
-7.6795e-07
2.94412e-06
-7.78728e-07
2.83799e-06
-7.88754e-07
2.72801e-06
-7.983e-07
2.61574e-06
-8.07594e-07
2.50247e-06
-8.16822e-07
2.38916e-06
-8.26125e-07
2.2765e-06
-8.35601e-07
2.16491e-06
-8.4531e-07
2.05458e-06
-8.55278e-07
1.94556e-06
-8.65505e-07
1.83773e-06
-8.75971e-07
1.73091e-06
-8.86644e-07
1.62486e-06
-8.97484e-07
1.51934e-06
-9.08446e-07
1.41408e-06
-9.19486e-07
1.30887e-06
-9.30564e-07
1.20351e-06
-9.41643e-07
1.09785e-06
-9.52692e-07
9.91757e-07
-9.63687e-07
8.85164e-07
-9.74609e-07
7.78021e-07
-9.85444e-07
6.70308e-07
-9.96182e-07
5.62029e-07
4.53204e-07
-3.24949e-10
3.27476e-07
-5.12083e-09
8.75697e-07
-1.68942e-08
1.32543e-06
-3.65517e-08
1.68802e-06
-6.3642e-08
1.97827e-06
-9.6849e-08
2.21265e-06
-1.3449e-07
2.4068e-06
-1.749e-07
2.57351e-06
-2.16652e-07
2.72178e-06
-2.58638e-07
2.85678e-06
-3.0004e-07
2.9806e-06
-3.40269e-07
3.0931e-06
-3.78895e-07
3.19293e-06
-4.1559e-07
3.27821e-06
-4.50099e-07
3.34708e-06
-4.82229e-07
3.398e-06
-5.11844e-07
3.42994e-06
-5.38874e-07
3.44242e-06
-5.63315e-07
3.43557e-06
-5.85232e-07
3.41006e-06
-6.04754e-07
3.36709e-06
-6.22072e-07
3.30826e-06
-6.37421e-07
3.23551e-06
-6.51071e-07
3.15096e-06
-6.6331e-07
3.05681e-06
-6.74429e-07
2.95524e-06
-6.84709e-07
2.84827e-06
-6.94408e-07
2.7377e-06
-7.03753e-07
2.62509e-06
-7.12932e-07
2.51165e-06
-7.22096e-07
2.39833e-06
-7.31356e-07
2.28576e-06
-7.40786e-07
2.17434e-06
-7.50429e-07
2.06423e-06
-7.60301e-07
1.95543e-06
-7.70398e-07
1.84783e-06
-7.80699e-07
1.74121e-06
-7.91174e-07
1.63534e-06
-8.01789e-07
1.52995e-06
-8.12508e-07
1.4248e-06
-8.23295e-07
1.31966e-06
-8.34119e-07
1.21434e-06
-8.44952e-07
1.10868e-06
-8.55774e-07
1.00258e-06
-8.66566e-07
8.95956e-07
-8.77317e-07
7.88771e-07
-8.88019e-07
6.81009e-07
-8.98669e-07
5.72679e-07
4.63802e-07
9.7785e-10
3.26498e-07
-6.34022e-10
8.77309e-07
-8.03053e-09
1.33283e-06
-2.25989e-08
1.70259e-06
-4.43264e-08
1.99999e-06
-7.21516e-08
2.24048e-06
-1.04515e-07
2.43917e-06
-1.39785e-07
2.60878e-06
-1.76521e-07
2.75851e-06
-2.13591e-07
2.89385e-06
-2.50166e-07
3.01717e-06
-2.85663e-07
3.1286e-06
-3.19678e-07
3.22694e-06
-3.51922e-07
3.31045e-06
-3.82187e-07
3.37734e-06
-4.10327e-07
3.42614e-06
-4.36249e-07
3.45586e-06
-4.59919e-07
3.46609e-06
-4.8136e-07
3.45701e-06
-5.00651e-07
3.42935e-06
-5.17928e-07
3.38437e-06
-5.33369e-07
3.3237e-06
-5.4719e-07
3.24933e-06
-5.59632e-07
3.1634e-06
-5.70946e-07
3.06813e-06
-5.8138e-07
2.96568e-06
-5.91169e-07
2.85806e-06
-6.00528e-07
2.74706e-06
-6.09639e-07
2.6342e-06
-6.18653e-07
2.52066e-06
-6.27688e-07
2.40736e-06
-6.36827e-07
2.2949e-06
-6.46125e-07
2.18364e-06
-6.55611e-07
2.07371e-06
-6.65294e-07
1.96511e-06
-6.75166e-07
1.8577e-06
-6.85209e-07
1.75125e-06
-6.95397e-07
1.64553e-06
-7.05704e-07
1.54026e-06
-7.16102e-07
1.4352e-06
-7.26564e-07
1.33012e-06
-7.37069e-07
1.22484e-06
-7.47598e-07
1.11921e-06
-7.58138e-07
1.01312e-06
-7.6868e-07
9.06498e-07
-7.79219e-07
7.9931e-07
-7.89753e-07
6.91543e-07
-8.00283e-07
5.83209e-07
4.74332e-07
2.21746e-09
3.24281e-07
3.7125e-09
8.75814e-07
7.68444e-10
1.33577e-06
-8.67747e-09
1.71204e-06
-2.49524e-08
2.01627e-06
-4.72808e-08
2.2628e-06
-7.42538e-08
2.46614e-06
-1.04289e-07
2.63882e-06
-1.35945e-07
2.79017e-06
-1.68064e-07
2.92597e-06
-1.99805e-07
3.04891e-06
-2.30589e-07
3.15938e-06
-2.60033e-07
3.25639e-06
-2.87884e-07
3.3383e-06
-3.13978e-07
3.40344e-06
-3.3821e-07
3.45037e-06
-3.60531e-07
3.47818e-06
-3.80938e-07
3.4865e-06
-3.99475e-07
3.47555e-06
-4.16236e-07
3.44611e-06
-4.31352e-07
3.39948e-06
-4.44992e-07
3.33734e-06
-4.57348e-07
3.26169e-06
-4.68627e-07
3.17468e-06
-4.79042e-07
3.07854e-06
-4.88799e-07
2.97543e-06
-4.98087e-07
2.86735e-06
-5.07076e-07
2.75605e-06
-5.15908e-07
2.64303e-06
-5.24699e-07
2.52945e-06
-5.33535e-07
2.4162e-06
-5.42476e-07
2.30384e-06
-5.51559e-07
2.19272e-06
-5.60802e-07
2.08296e-06
-5.70209e-07
1.97452e-06
-5.7977e-07
1.86726e-06
-5.89471e-07
1.76095e-06
-5.99294e-07
1.65535e-06
-6.09219e-07
1.55018e-06
-6.19226e-07
1.44521e-06
-6.293e-07
1.3402e-06
-6.39428e-07
1.23497e-06
-6.49601e-07
1.12938e-06
-6.59815e-07
1.02333e-06
-6.70066e-07
9.1675e-07
-6.80357e-07
8.09601e-07
-6.90691e-07
7.01877e-07
-7.01073e-07
5.93591e-07
4.84769e-07
3.41243e-09
3.20868e-07
7.96108e-09
8.71265e-07
9.35364e-09
1.33438e-06
5.09359e-09
1.7163e-06
-5.6533e-09
2.02702e-06
-2.23956e-08
2.27955e-06
-4.38832e-08
2.48763e-06
-6.86049e-08
2.66354e-06
-9.51238e-08
2.81669e-06
-1.22267e-07
2.95312e-06
-1.49175e-07
3.07582e-06
-1.7527e-07
3.18548e-06
-2.00185e-07
3.2813e-06
-2.237e-07
3.36182e-06
-2.45688e-07
3.42542e-06
-2.66088e-07
3.47077e-06
-2.84885e-07
3.49698e-06
-3.02106e-07
3.50372e-06
-3.17817e-07
3.49126e-06
-3.32117e-07
3.46041e-06
-3.45135e-07
3.4125e-06
-3.57023e-07
3.34923e-06
-3.67949e-07
3.27261e-06
-3.78086e-07
3.18482e-06
-3.87608e-07
3.08806e-06
-3.96675e-07
2.9845e-06
-4.05435e-07
2.87611e-06
-4.14014e-07
2.76463e-06
-4.22516e-07
2.65153e-06
-4.3102e-07
2.53796e-06
-4.39587e-07
2.42476e-06
-4.48253e-07
2.31251e-06
-4.57042e-07
2.20151e-06
-4.65962e-07
2.09188e-06
-4.75012e-07
1.98357e-06
-4.84186e-07
1.87643e-06
-4.93472e-07
1.77024e-06
-5.02858e-07
1.66474e-06
-5.12334e-07
1.55966e-06
-5.21891e-07
1.45476e-06
-5.31521e-07
1.34983e-06
-5.41222e-07
1.24467e-06
-5.50994e-07
1.13915e-06
-5.60839e-07
1.03318e-06
-5.70763e-07
9.26674e-07
-5.80773e-07
8.19611e-07
-5.90878e-07
7.11982e-07
-6.01086e-07
6.03799e-07
4.95091e-07
4.55038e-09
3.16318e-07
1.20619e-08
8.63754e-07
1.7754e-08
1.32869e-06
1.86242e-08
1.71543e-06
1.34347e-08
2.0322e-06
2.35281e-09
2.29063e-06
-1.35755e-08
2.50355e-06
-3.29174e-08
2.68288e-06
-5.42548e-08
2.83802e-06
-7.64027e-08
2.97526e-06
-9.84846e-08
3.0979e-06
-1.19917e-07
3.20691e-06
-1.40346e-07
3.30173e-06
-1.59577e-07
3.38105e-06
-1.7752e-07
3.44337e-06
-1.9415e-07
3.4874e-06
-2.09487e-07
3.51232e-06
-2.23583e-07
3.51782e-06
-2.36522e-07
3.5042e-06
-2.48409e-07
3.4723e-06
-2.59366e-07
3.42346e-06
-2.69529e-07
3.35939e-06
-2.79039e-07
3.28212e-06
-2.88033e-07
3.19381e-06
-2.96646e-07
3.09668e-06
-3.04997e-07
2.99285e-06
-3.13189e-07
2.8843e-06
-3.21308e-07
2.77275e-06
-3.2942e-07
2.65964e-06
-3.37573e-07
2.54611e-06
-3.45799e-07
2.43299e-06
-3.54118e-07
2.32083e-06
-3.62538e-07
2.20993e-06
-3.71061e-07
2.1004e-06
-3.79684e-07
1.99219e-06
-3.884e-07
1.88515e-06
-3.97205e-07
1.77905e-06
-4.06093e-07
1.67363e-06
-4.15064e-07
1.56863e-06
-4.24116e-07
1.46382e-06
-4.33253e-07
1.35896e-06
-4.42483e-07
1.2539e-06
-4.51812e-07
1.14848e-06
-4.61252e-07
1.04262e-06
-4.70816e-07
9.36237e-07
-4.80514e-07
8.2931e-07
-4.90362e-07
7.21829e-07
-5.00372e-07
6.13809e-07
5.05276e-07
5.62155e-09
3.10696e-07
1.59801e-08
8.53395e-07
2.58683e-08
1.3188e-06
3.18263e-08
1.70947e-06
3.21921e-08
2.03184e-06
2.68026e-08
2.29602e-06
1.64972e-08
2.51386e-06
2.59254e-09
2.69679e-06
-1.35278e-08
2.85414e-06
-3.06672e-08
2.9924e-06
-4.79323e-08
3.11517e-06
-6.47304e-08
3.22371e-06
-8.07145e-08
3.31772e-06
-9.57119e-08
3.39605e-06
-1.09662e-07
3.45732e-06
-1.22575e-07
3.50032e-06
-1.345e-07
3.52424e-06
-1.45516e-07
3.52883e-06
-1.55718e-07
3.5144e-06
-1.65217e-07
3.4818e-06
-1.74131e-07
3.43237e-06
-1.82573e-07
3.36784e-06
-1.90657e-07
3.29021e-06
-1.98488e-07
3.20164e-06
-2.06161e-07
3.10435e-06
-2.13754e-07
3.00044e-06
-2.21328e-07
2.89187e-06
-2.28928e-07
2.78035e-06
-2.36587e-07
2.6673e-06
-2.44321e-07
2.55385e-06
-2.52138e-07
2.44081e-06
-2.6004e-07
2.32873e-06
-2.68023e-07
2.21791e-06
-2.76082e-07
2.10846e-06
-2.84212e-07
2.00032e-06
-2.9241e-07
1.89335e-06
-3.00676e-07
1.78731e-06
-3.09012e-07
1.68196e-06
-3.17426e-07
1.57705e-06
-3.25927e-07
1.47232e-06
-3.34529e-07
1.36757e-06
-3.43246e-07
1.26262e-06
-3.52096e-07
1.15733e-06
-3.61098e-07
1.05162e-06
-3.70269e-07
9.45409e-07
-3.79628e-07
8.38669e-07
-3.89193e-07
7.31394e-07
-3.9898e-07
6.23596e-07
5.153e-07
6.61792e-09
3.04078e-07
1.96863e-08
8.40327e-07
3.36401e-08
1.30485e-06
4.46013e-08
1.69851e-06
5.04954e-08
2.02595e-06
5.0818e-08
2.2957e-06
4.61705e-08
2.51851e-06
3.77419e-08
2.70522e-06
2.68703e-08
2.86502e-06
1.47492e-08
3.00452e-06
2.28964e-09
3.12763e-06
-9.90278e-09
3.2359e-06
-2.14816e-08
3.32929e-06
-3.22897e-08
3.40685e-06
-4.22927e-08
3.46732e-06
-5.15294e-08
3.50955e-06
-6.00788e-08
3.53279e-06
-6.80411e-08
3.5368e-06
-7.55243e-08
3.52188e-06
-8.26379e-08
3.48891e-06
-8.95066e-08
3.43924e-06
-9.62101e-08
3.37454e-06
-1.02841e-07
3.29684e-06
-1.09472e-07
3.20828e-06
-1.16158e-07
3.11104e-06
-1.22937e-07
3.00722e-06
-1.29832e-07
2.89877e-06
-1.3685e-07
2.78737e-06
-1.43988e-07
2.67444e-06
-1.51235e-07
2.56109e-06
-1.58577e-07
2.44815e-06
-1.65996e-07
2.33615e-06
-1.73478e-07
2.22539e-06
-1.81012e-07
2.11599e-06
-1.88592e-07
2.0079e-06
-1.96218e-07
1.90097e-06
-2.03894e-07
1.79499e-06
-2.11631e-07
1.6897e-06
-2.19445e-07
1.58486e-06
-2.27354e-07
1.48023e-06
-2.35382e-07
1.37559e-06
-2.43552e-07
1.27079e-06
-2.51889e-07
1.16567e-06
-2.60421e-07
1.06015e-06
-2.69171e-07
9.54159e-07
-2.78163e-07
8.47662e-07
-2.87419e-07
7.4065e-07
-2.9696e-07
6.33136e-07
5.25143e-07
7.53315e-09
2.96545e-07
2.31552e-08
8.24705e-07
4.10153e-08
1.28699e-06
5.68618e-08
1.68266e-06
6.8224e-08
2.01458e-06
7.42483e-08
2.28967e-06
7.52812e-08
2.51747e-06
7.23603e-08
2.70814e-06
6.67586e-08
2.87062e-06
5.96614e-08
3.01162e-06
5.1995e-08
3.1353e-06
4.43814e-08
3.24352e-06
3.71715e-08
3.3365e-06
3.05128e-08
3.41351e-06
2.44188e-08
3.47341e-06
1.88246e-08
3.51515e-06
1.36252e-08
3.53799e-06
8.69904e-09
3.54172e-06
3.92161e-09
3.52666e-06
-8.19502e-10
3.49365e-06
-5.58616e-09
3.44401e-06
-1.05056e-08
3.37946e-06
-1.56339e-08
3.30196e-06
-2.10076e-08
3.21365e-06
-2.66449e-08
3.11667e-06
-3.2545e-08
3.01312e-06
-3.86916e-08
2.90491e-06
-4.50564e-08
2.79373e-06
-5.1604e-08
2.68099e-06
-5.82958e-08
2.56779e-06
-6.50946e-08
2.45495e-06
-7.19679e-08
2.34302e-06
-7.88902e-08
2.23232e-06
-8.58448e-08
2.12295e-06
-9.28241e-08
2.01488e-06
-9.983e-08
1.90798e-06
-1.06873e-07
1.80203e-06
-1.1397e-07
1.6968e-06
-1.21146e-07
1.59203e-06
-1.28428e-07
1.48751e-06
-1.35847e-07
1.38301e-06
-1.43438e-07
1.27838e-06
-1.51233e-07
1.17347e-06
-1.59266e-07
1.06818e-06
-1.67568e-07
-1.76167e-07
-1.85089e-07
-1.94358e-07
8.36218e-09
2.88183e-07
2.63647e-08
8.06702e-07
4.79443e-08
1.26541e-06
6.85259e-08
1.66208e-06
8.52635e-08
1.99785e-06
9.69527e-08
2.27798e-06
1.03667e-07
2.51076e-06
1.06272e-07
2.70553e-06
1.05957e-07
2.87093e-06
1.03887e-07
3.01369e-06
1.01001e-07
3.13818e-06
9.7941e-08
3.24658e-06
9.50671e-08
3.33938e-06
9.25244e-08
3.41606e-06
9.03117e-08
3.47563e-06
8.83426e-08
3.51712e-06
8.649e-08
3.53984e-06
8.46153e-08
3.5436e-06
8.25865e-08
3.52869e-06
8.02873e-08
3.49595e-06
7.76101e-08
3.44668e-06
7.45056e-08
3.38256e-06
7.09333e-08
3.30554e-06
6.68816e-08
3.2177e-06
6.23652e-08
3.12119e-06
5.74203e-08
3.01807e-06
5.2099e-08
2.91023e-06
4.64635e-08
2.79937e-06
4.058e-08
2.68687e-06
3.45134e-08
2.57385e-06
2.83221e-08
2.46114e-06
2.20546e-08
2.34929e-06
1.57471e-08
2.23862e-06
9.42224e-09
2.12927e-06
3.08924e-09
2.02121e-06
-3.25555e-09
1.91432e-06
-9.627e-09
1.8084e-06
-1.60493e-08
1.70322e-06
-2.2554e-08
1.59854e-06
-2.91776e-08
1.49413e-06
-3.59602e-08
1.3898e-06
-4.29432e-08
1.28536e-06
-5.01684e-08
1.18069e-06
1.07569e-06
9.10113e-09
2.79082e-07
2.92961e-08
7.86507e-07
5.43829e-08
1.24032e-06
7.95168e-08
1.63694e-06
1.01505e-07
1.97586e-06
1.18794e-07
2.26069e-06
1.3117e-07
2.49838e-06
1.39305e-07
2.6974e-06
1.44285e-07
2.86595e-06
1.47245e-07
3.01073e-06
1.49129e-07
3.1363e-06
1.50598e-07
3.24511e-06
1.52031e-07
3.33795e-06
1.53574e-07
3.41451e-06
1.55219e-07
3.47398e-06
1.5686e-07
3.51547e-06
1.58352e-07
3.53835e-06
1.59538e-07
3.54241e-06
1.60273e-07
3.52796e-06
1.60437e-07
3.49579e-06
1.59941e-07
3.44718e-06
1.58733e-07
3.38377e-06
1.56799e-07
3.30747e-06
1.54155e-07
3.22035e-06
1.50847e-07
3.1245e-06
1.46945e-07
3.02197e-06
1.42535e-07
2.91464e-06
1.37712e-07
2.80419e-06
1.3257e-07
2.69201e-06
1.27201e-07
2.57922e-06
1.21682e-07
2.46666e-06
1.16079e-07
2.35489e-06
1.10438e-07
2.24426e-06
1.04789e-07
2.13492e-06
9.91437e-08
2.02686e-06
9.34967e-08
1.91997e-06
8.78296e-08
1.81407e-06
8.21127e-08
1.70894e-06
7.63072e-08
1.60434e-06
7.03688e-08
1.50007e-06
6.42495e-08
1.39592e-06
5.78997e-08
1.29171e-06
5.12703e-08
1.18732e-06
1.08265e-06
9.74719e-09
2.69335e-07
3.19337e-08
7.64321e-07
6.02916e-08
1.21196e-06
8.97642e-08
1.60747e-06
1.16844e-07
1.94878e-06
1.39638e-07
2.2379e-06
1.57634e-07
2.48039e-06
1.71289e-07
2.68374e-06
1.81567e-07
2.85567e-06
1.89554e-07
3.00274e-06
1.96197e-07
3.12965e-06
2.02176e-07
3.23913e-06
2.0789e-07
3.33223e-06
2.13495e-07
3.40891e-06
2.18979e-07
3.4685e-06
2.24226e-07
3.51023e-06
2.29073e-07
3.5335e-06
2.33347e-07
3.53814e-06
2.36892e-07
3.52441e-06
2.39583e-07
3.4931e-06
2.41335e-07
3.44543e-06
2.42109e-07
3.383e-06
2.41905e-07
3.30767e-06
2.40766e-07
3.22148e-06
2.38767e-07
3.1265e-06
2.36007e-07
3.02473e-06
2.32604e-07
2.91805e-06
2.28682e-07
2.80811e-06
2.24365e-07
2.69633e-06
2.19767e-07
2.58382e-06
2.14988e-07
2.47144e-06
2.10108e-07
2.35977e-06
2.05185e-07
2.24919e-06
2.00256e-07
2.13985e-06
1.95335e-07
2.03178e-06
1.90419e-07
1.92489e-06
1.85485e-07
1.819e-06
1.805e-07
1.71392e-06
1.75418e-07
1.60943e-06
1.70189e-07
1.5053e-06
1.64756e-07
1.40135e-06
1.59062e-07
1.2974e-06
1.53052e-07
1.19333e-06
1.08903e-06
1.02986e-08
2.59036e-07
3.42654e-08
7.40354e-07
6.56368e-08
1.18059e-06
9.9204e-08
1.57391e-06
1.31184e-07
1.9168e-06
1.59356e-07
2.20973e-06
1.82905e-07
2.45684e-06
2.02053e-07
2.66459e-06
2.17622e-07
2.8401e-06
2.30634e-07
2.98973e-06
2.42025e-07
3.11826e-06
2.52497e-07
3.22866e-06
2.6247e-07
3.32226e-06
2.72117e-07
3.39926e-06
2.8143e-07
3.45919e-06
2.90285e-07
3.50137e-06
2.98506e-07
3.52528e-06
3.05905e-07
3.53074e-06
3.12315e-07
3.518e-06
3.17606e-07
3.48781e-06
3.21694e-07
3.44134e-06
3.24547e-07
3.38014e-06
3.26181e-07
3.30604e-06
3.26659e-07
3.22101e-06
3.2608e-07
3.12708e-06
3.24572e-07
3.02624e-06
3.2228e-07
2.92034e-06
3.19358e-07
2.81104e-06
3.15955e-07
2.69973e-06
3.12208e-07
2.58757e-06
3.08238e-07
2.47541e-06
3.04141e-07
2.36387e-06
2.99986e-07
2.25334e-06
2.9582e-07
2.14402e-06
2.91661e-07
2.03594e-06
2.87506e-07
1.92904e-06
2.83332e-07
1.82318e-06
2.79102e-07
1.71815e-06
2.74765e-07
1.61376e-06
2.70264e-07
1.5098e-06
2.65538e-07
1.40608e-06
2.60521e-07
1.30242e-06
2.55152e-07
1.1987e-06
1.09481e-06
1.07548e-08
2.48281e-07
3.62819e-08
7.14827e-07
7.03902e-08
1.14648e-06
1.07779e-07
1.53652e-06
1.44434e-07
1.88014e-06
1.77826e-07
2.17634e-06
2.06833e-07
2.42783e-06
2.31429e-07
2.64e-06
2.52271e-07
2.81926e-06
2.70299e-07
2.9717e-06
2.86431e-07
3.10213e-06
3.0138e-07
3.21371e-06
3.15594e-07
3.30805e-06
3.29268e-07
3.38558e-06
3.42403e-07
3.44605e-06
3.54874e-07
3.4889e-06
3.66495e-07
3.51366e-06
3.77066e-07
3.52017e-06
3.86408e-07
3.50866e-06
3.94383e-07
3.47983e-06
4.00906e-07
3.43482e-06
4.05949e-07
3.3751e-06
4.09541e-07
3.30245e-06
4.1176e-07
3.21879e-06
4.12726e-07
3.12611e-06
4.12592e-07
3.02637e-06
4.11528e-07
2.9214e-06
4.09713e-07
2.81285e-06
4.0732e-07
2.70212e-06
4.04511e-07
2.59038e-06
4.01425e-07
2.47849e-06
3.98173e-07
2.36712e-06
3.94841e-07
2.25667e-06
3.91481e-07
2.14738e-06
3.8812e-07
2.0393e-06
3.84755e-07
1.93241e-06
3.81366e-07
1.82656e-06
3.77912e-07
1.72161e-06
3.74339e-07
1.61734e-06
3.70585e-07
1.51355e-06
3.66582e-07
1.41008e-06
3.6226e-07
1.30674e-06
3.5755e-07
1.20341e-06
1.09997e-06
1.11159e-08
2.37165e-07
3.79775e-08
6.87965e-07
7.45293e-08
1.10993e-06
1.15441e-07
1.4956e-06
1.56511e-07
1.83907e-06
1.9493e-07
2.13792e-06
2.29271e-07
2.39349e-06
2.59248e-07
2.61002e-06
2.85333e-07
2.79318e-06
3.08364e-07
2.94867e-06
3.29225e-07
3.08127e-06
3.4864e-07
3.19429e-06
3.67082e-07
3.2896e-06
3.84772e-07
3.36789e-06
4.01727e-07
3.4291e-06
4.17827e-07
3.4728e-06
4.3288e-07
3.49861e-06
4.46676e-07
3.50637e-06
4.59024e-07
3.49631e-06
4.69777e-07
3.46908e-06
4.78845e-07
3.42575e-06
4.86202e-07
3.36774e-06
4.91884e-07
3.29677e-06
4.95981e-07
3.21469e-06
4.98631e-07
3.12346e-06
5.00005e-07
3.025e-06
5.00296e-07
2.92111e-06
4.99706e-07
2.81344e-06
4.98431e-07
2.7034e-06
4.96654e-07
2.59215e-06
4.94533e-07
2.48062e-06
4.92197e-07
2.36946e-06
4.89744e-07
2.25913e-06
4.87238e-07
2.14988e-06
4.84711e-07
2.04183e-06
4.82168e-07
1.93495e-06
4.79588e-07
1.82914e-06
4.76931e-07
1.72426e-06
4.74139e-07
1.62013e-06
4.71148e-07
1.51655e-06
4.67885e-07
1.41334e-06
4.64273e-07
1.31035e-06
4.60238e-07
1.20745e-06
1.1045e-06
1.13833e-08
2.25782e-07
3.93497e-08
6.59999e-07
7.80377e-08
1.07124e-06
1.22146e-07
1.4515e-06
1.6734e-07
1.79388e-06
2.10557e-07
2.0947e-06
2.50078e-07
2.35397e-06
2.85344e-07
2.57475e-06
3.16625e-07
2.7619e-06
3.44638e-07
2.92066e-06
3.70217e-07
3.05569e-06
3.94086e-07
3.17042e-06
4.16745e-07
3.26695e-06
4.38443e-07
3.3462e-06
4.5922e-07
3.40832e-06
4.78966e-07
3.45305e-06
4.97488e-07
3.48009e-06
5.14567e-07
3.48929e-06
5.30001e-07
3.48088e-06
5.43634e-07
3.45545e-06
5.55369e-07
3.41401e-06
5.65175e-07
3.35794e-06
5.73092e-07
3.28885e-06
5.79218e-07
3.20856e-06
5.83701e-07
3.11898e-06
5.86731e-07
3.02197e-06
5.88518e-07
2.91932e-06
5.89283e-07
2.81268e-06
5.89245e-07
2.70344e-06
5.88605e-07
2.59279e-06
5.87541e-07
2.48168e-06
5.86198e-07
2.3708e-06
5.84688e-07
2.26064e-06
5.83087e-07
2.15148e-06
5.81438e-07
2.04348e-06
5.79749e-07
1.93664e-06
5.78005e-07
1.83089e-06
5.76165e-07
1.7261e-06
5.74173e-07
1.62212e-06
5.71959e-07
1.51876e-06
5.69449e-07
1.41585e-06
5.66562e-07
1.31324e-06
5.63217e-07
1.21079e-06
1.10838e-06
1.1559e-08
2.14223e-07
4.03992e-08
6.31159e-07
8.09051e-08
1.03074e-06
1.27863e-07
1.40454e-06
1.76856e-07
1.74489e-06
2.24607e-07
2.04695e-06
2.69117e-07
2.30946e-06
3.09553e-07
2.53432e-06
3.45964e-07
2.72548e-06
3.78926e-07
2.8877e-06
4.09207e-07
3.02541e-06
4.37521e-07
3.14211e-06
4.64388e-07
3.24008e-06
4.9009e-07
3.32049e-06
5.14694e-07
3.38371e-06
5.38105e-07
3.42964e-06
5.60135e-07
3.45806e-06
5.80559e-07
3.46887e-06
5.99167e-07
3.46227e-06
6.15789e-07
3.43883e-06
6.30318e-07
3.39949e-06
6.42718e-07
3.34554e-06
6.53026e-07
3.27854e-06
6.61343e-07
3.20025e-06
6.67825e-07
3.11249e-06
6.72672e-07
3.01712e-06
6.76109e-07
2.91589e-06
6.78375e-07
2.81041e-06
6.79706e-07
2.70211e-06
6.8032e-07
2.59218e-06
6.80415e-07
2.48159e-06
6.80153e-07
2.37106e-06
6.7966e-07
2.26113e-06
6.79025e-07
2.15212e-06
6.78301e-07
2.0442e-06
6.77505e-07
1.93743e-06
6.76626e-07
1.83177e-06
6.75627e-07
1.7271e-06
6.74453e-07
1.62329e-06
6.73033e-07
1.52018e-06
6.7129e-07
1.4176e-06
6.69141e-07
1.31539e-06
6.66499e-07
1.21343e-06
1.1116e-06
1.16461e-08
2.02577e-07
4.11297e-08
6.01675e-07
8.31271e-08
9.8874e-07
1.32567e-07
1.3551e-06
1.85004e-07
1.69245e-06
2.36987e-07
1.99496e-06
2.86259e-07
2.26019e-06
3.31712e-07
2.48887e-06
3.73165e-07
2.68403e-06
4.11031e-07
2.84983e-06
4.45992e-07
2.99045e-06
4.78739e-07
3.10936e-06
5.09807e-07
3.20901e-06
5.39511e-07
3.29079e-06
5.67948e-07
3.35528e-06
5.95046e-07
3.40255e-06
6.20625e-07
3.43248e-06
6.4446e-07
3.44503e-06
6.66331e-07
3.4404e-06
6.86055e-07
3.4191e-06
7.03513e-07
3.38203e-06
7.18661e-07
3.33039e-06
7.31526e-07
3.26568e-06
7.42208e-07
3.18957e-06
7.50867e-07
3.10384e-06
7.57707e-07
3.01028e-06
7.62965e-07
2.91063e-06
7.66891e-07
2.80648e-06
7.69738e-07
2.69926e-06
7.7174e-07
2.59018e-06
7.73112e-07
2.48021e-06
7.74031e-07
2.37014e-06
7.7464e-07
2.26052e-06
7.75042e-07
2.15172e-06
7.75301e-07
2.04394e-06
7.75443e-07
1.93729e-06
7.75465e-07
1.83175e-06
7.75336e-07
1.72723e-06
7.75001e-07
1.62363e-06
7.74394e-07
1.52079e-06
7.73433e-07
1.41856e-06
7.72034e-07
1.31679e-06
7.70109e-07
1.21536e-06
1.11414e-06
1.16482e-08
1.90929e-07
4.1548e-08
5.71775e-07
8.47058e-08
9.45582e-07
1.36243e-07
1.30356e-06
1.91739e-07
1.63695e-06
2.47616e-07
1.93909e-06
3.01383e-07
2.20642e-06
3.51668e-07
2.43858e-06
3.98046e-07
2.63765e-06
4.4075e-07
2.80713e-06
4.80359e-07
2.95084e-06
5.17524e-07
3.0722e-06
5.52787e-07
3.17375e-06
5.86493e-07
3.25708e-06
6.18772e-07
3.323e-06
6.49579e-07
3.37174e-06
6.7875e-07
3.40331e-06
7.06061e-07
3.41772e-06
7.31285e-07
3.41517e-06
7.54229e-07
3.39616e-06
7.74757e-07
3.3615e-06
7.92812e-07
3.31233e-06
8.0841e-07
3.25008e-06
8.21644e-07
3.17633e-06
8.32669e-07
3.09281e-06
8.41693e-07
3.00126e-06
8.48957e-07
2.90337e-06
8.54721e-07
2.80072e-06
8.59248e-07
2.69473e-06
8.62788e-07
2.58663e-06
8.6557e-07
2.47743e-06
8.67788e-07
2.36793e-06
8.696e-07
2.25871e-06
8.71122e-07
2.15019e-06
8.72433e-07
2.04263e-06
8.7357e-07
1.93615e-06
8.74538e-07
1.83078e-06
8.75312e-07
1.72646e-06
8.75846e-07
1.62309e-06
8.76072e-07
1.52056e-06
8.75911e-07
1.41872e-06
8.75278e-07
1.31742e-06
8.74083e-07
1.21655e-06
1.11599e-06
1.15697e-08
1.79359e-07
4.16635e-08
5.41681e-07
8.56489e-08
9.01596e-07
1.38886e-07
1.25032e-06
1.97031e-07
1.57881e-06
2.56425e-07
1.87969e-06
3.14381e-07
2.14847e-06
3.69271e-07
2.38369e-06
4.20424e-07
2.5865e-06
4.6788e-07
2.75967e-06
5.12091e-07
2.90663e-06
5.53653e-07
3.03064e-06
5.93102e-07
3.1343e-06
6.30809e-07
3.21938e-06
6.6694e-07
3.28687e-06
7.0148e-07
3.3372e-06
7.34285e-07
3.3705e-06
7.65138e-07
3.38687e-06
7.93808e-07
3.3865e-06
8.20089e-07
3.36988e-06
8.43831e-07
3.33776e-06
8.64958e-07
3.29121e-06
8.83472e-07
3.23156e-06
8.99453e-07
3.16035e-06
9.13049e-07
3.07921e-06
9.24461e-07
2.98984e-06
9.33933e-07
2.89389e-06
9.41729e-07
2.79292e-06
9.48119e-07
2.68834e-06
9.53366e-07
2.58139e-06
9.57711e-07
2.47309e-06
9.61363e-07
2.36427e-06
9.64494e-07
2.25558e-06
9.67238e-07
2.14745e-06
9.69685e-07
2.04019e-06
9.71885e-07
1.93395e-06
9.73856e-07
1.82881e-06
9.7558e-07
1.72473e-06
9.77016e-07
1.62166e-06
9.78104e-07
1.51947e-06
9.78766e-07
1.41805e-06
9.78918e-07
1.31727e-06
9.78469e-07
1.217e-06
1.11713e-06
1.14155e-08
1.67944e-07
4.14881e-08
5.11609e-07
8.597e-08
8.57115e-07
1.40498e-07
1.1958e-06
2.00858e-07
1.51845e-06
2.63359e-07
1.81719e-06
3.25154e-07
2.08667e-06
3.84381e-07
2.32446e-06
4.40124e-07
2.53076e-06
4.92216e-07
2.70758e-06
5.40965e-07
2.85788e-06
5.86892e-07
2.98471e-06
6.30516e-07
3.09067e-06
6.72223e-07
3.17767e-06
7.12216e-07
3.24688e-06
7.50512e-07
3.2989e-06
7.86992e-07
3.33402e-06
8.21451e-07
3.35241e-06
8.53657e-07
3.3543e-06
8.83393e-07
3.34014e-06
9.10494e-07
3.31066e-06
9.34862e-07
3.26684e-06
9.56481e-07
3.20994e-06
9.75414e-07
3.14142e-06
9.91794e-07
3.06283e-06
1.00581e-06
2.97582e-06
1.01771e-06
2.882e-06
1.02775e-06
2.78288e-06
1.03621e-06
2.67989e-06
1.04335e-06
2.57424e-06
1.04943e-06
2.46701e-06
1.05467e-06
2.35903e-06
1.05926e-06
2.25099e-06
1.06335e-06
2.14336e-06
1.06703e-06
2.0365e-06
1.07038e-06
1.9306e-06
1.07343e-06
1.82576e-06
1.07616e-06
1.722e-06
1.07854e-06
1.61927e-06
1.08053e-06
1.51749e-06
1.08204e-06
1.41654e-06
1.08301e-06
1.31631e-06
1.08332e-06
1.21668e-06
1.11755e-06
1.11911e-08
1.56753e-07
4.10362e-08
4.81764e-07
8.56878e-08
8.12463e-07
1.41094e-07
1.14039e-06
2.03213e-07
1.45633e-06
2.68377e-07
1.75203e-06
3.33618e-07
2.02143e-06
3.96869e-07
2.26121e-06
4.56975e-07
2.47065e-06
5.13554e-07
2.651e-06
5.66753e-07
2.80468e-06
6.17e-07
2.93446e-06
6.64778e-07
3.0429e-06
7.10483e-07
3.13196e-06
7.54346e-07
3.20301e-06
7.9642e-07
3.25683e-06
8.36616e-07
3.29383e-06
8.74743e-07
3.31428e-06
9.10574e-07
3.31847e-06
9.43882e-07
3.30683e-06
9.74484e-07
3.28005e-06
1.00226e-06
3.23906e-06
1.02718e-06
3.18503e-06
1.04928e-06
3.11932e-06
1.06867e-06
3.04345e-06
1.08553e-06
2.95896e-06
1.10008e-06
2.86744e-06
1.1126e-06
2.77037e-06
1.12334e-06
2.66914e-06
1.13259e-06
2.565e-06
1.1406e-06
2.45899e-06
1.14762e-06
2.35202e-06
1.15382e-06
2.24478e-06
1.15939e-06
2.1378e-06
1.16444e-06
2.03146e-06
1.16904e-06
1.926e-06
1.17324e-06
1.82156e-06
1.17706e-06
1.71819e-06
1.18045e-06
1.61588e-06
1.18339e-06
1.51455e-06
1.18579e-06
1.41413e-06
1.1876e-06
1.31451e-06
1.18871e-06
1.21557e-06
1.11722e-06
1.09021e-08
1.4585e-07
4.03235e-08
4.52342e-07
8.48258e-08
7.67961e-07
1.40693e-07
1.08452e-06
2.04102e-07
1.39292e-06
2.71452e-07
1.68468e-06
3.39705e-07
1.95318e-06
4.06619e-07
2.1943e-06
4.70816e-07
2.40645e-06
5.31694e-07
2.59012e-06
5.89226e-07
2.74715e-06
6.43728e-07
2.87996e-06
6.9563e-07
2.99099e-06
7.45324e-07
3.08227e-06
7.93063e-07
3.15527e-06
8.38938e-07
3.21095e-06
8.82886e-07
3.24988e-06
9.24742e-07
3.27243e-06
9.64282e-07
3.27893e-06
1.00127e-06
3.26984e-06
1.03552e-06
3.24581e-06
1.06688e-06
3.2077e-06
1.09529e-06
3.15662e-06
1.12077e-06
3.09385e-06
1.1434e-06
3.02082e-06
1.16334e-06
2.93902e-06
1.18081e-06
2.84997e-06
1.19604e-06
2.75513e-06
1.20932e-06
2.65587e-06
1.2209e-06
2.55341e-06
1.23107e-06
2.44883e-06
1.24005e-06
2.34304e-06
1.24806e-06
2.23677e-06
1.25528e-06
2.13058e-06
1.26183e-06
2.0249e-06
1.26781e-06
1.92001e-06
1.27329e-06
1.81609e-06
1.27827e-06
1.71321e-06
1.28276e-06
1.61139e-06
1.2867e-06
1.51061e-06
1.29005e-06
1.41078e-06
1.29274e-06
1.31182e-06
1.29468e-06
1.21363e-06
1.11612e-06
1.05544e-08
1.35296e-07
3.93673e-08
4.2353e-07
8.34112e-08
7.23917e-07
1.39326e-07
1.02861e-06
2.03541e-07
1.3287e-06
2.72574e-07
1.61564e-06
3.43364e-07
1.88239e-06
4.13531e-07
2.12413e-06
4.81496e-07
2.33849e-06
5.4644e-07
2.52518e-06
6.08154e-07
2.68543e-06
6.6682e-07
2.8213e-06
7.22801e-07
2.93501e-06
7.76466e-07
3.02861e-06
8.28086e-07
3.10365e-06
8.77779e-07
3.16126e-06
9.25517e-07
3.20214e-06
9.71158e-07
3.22679e-06
1.01449e-06
3.2356e-06
1.05527e-06
3.22905e-06
1.0933e-06
3.20778e-06
1.12841e-06
3.17259e-06
1.16051e-06
3.12452e-06
1.18959e-06
3.06477e-06
1.21569e-06
2.99471e-06
1.23897e-06
2.91575e-06
1.2596e-06
2.82934e-06
1.27782e-06
2.73691e-06
1.29389e-06
2.6398e-06
1.30806e-06
2.53923e-06
1.32062e-06
2.43627e-06
1.3318e-06
2.33186e-06
1.34183e-06
2.22674e-06
1.35088e-06
2.12153e-06
1.35912e-06
2.01667e-06
1.36664e-06
1.91249e-06
1.37351e-06
1.80921e-06
1.37979e-06
1.70694e-06
1.38545e-06
1.60573e-06
1.39049e-06
1.50557e-06
1.39486e-06
1.40641e-06
1.39849e-06
1.30819e-06
1.4013e-06
1.21082e-06
1.1142e-06
1.01539e-08
1.25142e-07
3.81857e-08
3.95498e-07
8.14739e-08
6.80629e-07
1.37026e-07
9.73056e-07
2.01557e-07
1.26417e-06
2.71746e-07
1.54545e-06
3.44559e-07
1.80957e-06
4.17521e-07
2.05117e-06
4.88878e-07
2.26713e-06
5.57607e-07
2.45645e-06
6.23308e-07
2.61973e-06
6.86018e-07
2.75859e-06
7.4601e-07
2.87502e-06
8.03618e-07
2.971e-06
8.59114e-07
3.04816e-06
9.12642e-07
3.10773e-06
9.64203e-07
3.15058e-06
1.01368e-06
3.17731e-06
1.06088e-06
3.1884e-06
1.10556e-06
3.18437e-06
1.14751e-06
3.16583e-06
1.18653e-06
3.13356e-06
1.22251e-06
3.08854e-06
1.2554e-06
3.03189e-06
1.28523e-06
2.96488e-06
1.31209e-06
2.88888e-06
1.33616e-06
1.35764e-06
1.37678e-06
1.39382e-06
1.40903e-06
1.42267e-06
1.43494e-06
1.44605e-06
1.45617e-06
1.4654e-06
1.47384e-06
1.48154e-06
1.48851e-06
1.49475e-06
1.50022e-06
1.50486e-06
1.50862e-06
9.70651e-09
3.67969e-08
7.90458e-08
1.33834e-07
1.98185e-07
2.68984e-07
3.43271e-07
4.18522e-07
4.92842e-07
5.65021e-07
6.34468e-07
7.01065e-07
7.64977e-07
8.26484e-07
8.85844e-07
9.43218e-07
9.98633e-07
1.052e-06
1.10314e-06
1.15182e-06
1.1978e-06
1.2409e-06
1.28094e-06
1.31786e-06
1.35165e-06
)
;

boundaryField
{
    movingWall
    {
        type            calculated;