/*--------------------------------*- C++ -*----------------------------------*\
  =========                 |
  \\      /  F ield         | OpenFOAM: The Open Source CFD Toolbox
   \\    /   O peration     | Website:  https://openfoam.org
    \\  /    A nd           | Version:  9
     \\/     M anipulation  |
\*---------------------------------------------------------------------------*/
FoamFile
{
    format      ascii;
    class       volVectorField;
    location    "2.25";
    object      U;
}
// * * * * * * * * * * * * * * * * * * * * * * * * * * * * * * * * * * * * * //

dimensions      [0 1 -1 0 0 0 0];

internalField   nonuniform List<vector> 
1250
(
(-0.000122985 0.0315737 0)
(-0.0011041 0.0829484 0)
(-7.94098e-05 0.0320697 0)
(-0.000856087 0.0845327 0)
(-0.0028088 0.12657 0)
(-0.00579958 0.159812 0)
(-0.0096793 0.186141 0)
(-0.0142683 0.207439 0)
(-0.0193668 0.225342 0)
(-0.024791 0.241088 0)
(-0.0303898 0.255478 0)
(-0.0360468 0.26892 0)
(-0.0416731 0.281524 0)
(-0.0471999 0.293208 0)
(-0.0525707 0.303788 0)
(-0.0577366 0.313046 0)
(-0.0626541 0.320773 0)
(-0.0672847 0.326796 0)
(-0.0715962 0.330988 0)
(-0.0755636 0.333277 0)
(-0.079171 0.333648 0)
(-0.082412 0.332139 0)
(-0.0852904 0.328844 0)
(-0.0878202 0.323896 0)
(-0.0900243 0.317467 0)
(-0.0919335 0.309754 0)
(-0.0935842 0.300966 0)
(-0.0950164 0.291317 0)
(-0.0962718 0.28101 0)
(-0.0973911 0.270235 0)
(-0.0984123 0.259155 0)
(-0.0993702 0.24791 0)
(-0.100294 0.236609 0)
(-0.101207 0.22533 0)
(-0.102128 0.21413 0)
(-0.103069 0.203037 0)
(-3.58876e-05 0.0324328 0)
(-0.000604785 0.0858074 0)
(-0.00217373 0.128829 0)
(-0.00470379 0.163008 0)
(-0.00809533 0.190133 0)
(-0.0121921 0.212042 0)
(-0.0168046 0.230365 0)
(-0.0217504 0.246364 0)
(-0.0268754 0.26087 0)
(-0.0320594 0.274324 0)
(-0.0372117 0.286862 0)
(-0.0422639 0.298417 0)
(-0.0471618 0.308817 0)
(-0.0518608 0.317852 0)
(-0.0563222 0.325318 0)
(-0.0605132 0.331047 0)
(-0.0644069 0.334919 0)
(-0.0679836 0.336871 0)
(-0.0712317 0.336896 0)
(-0.0741485 0.335042 0)
(-0.0767405 0.331411 0)
(-0.0790231 0.326146 0)
(-0.0810195 0.319428 0)
(-0.0827592 0.311457 0)
(-0.0842767 0.302449 0)
(-0.0856088 0.292618 0)
(-0.0867931 0.282169 0)
(-0.087866 0.271288 0)
(-0.0888612 0.260137 0)
(-0.0898085 0.24885 0)
(-0.0907327 0.237531 0)
(-0.0916536 0.226254 0)
(-0.0925862 0.215069 0)
(-0.0935405 0.204002 0)
(-0.0945218 0.193059 0)
(-0.0955329 0.182236 0)
(-0.0965731 0.171517 0)
(-0.0976396 0.160881 0)
(-0.0987283 0.150303 0)
(-0.0998343 0.139758 0)
(-0.100952 0.129225 0)
(-0.102077 0.118683 0)
(-0.103204 0.108116 0)
(6.97404e-06 0.0326626 0)
(-0.00035307 0.0867657 0)
(-0.00153118 0.130663 0)
(-0.00358716 0.165723 0)
(-0.00647304 0.193626 0)
(-0.0100584 0.216146 0)
(-0.0141665 0.234899 0)
(-0.0186179 0.251158 0)
(-0.0232563 0.265786 0)
(-0.0279582 0.279254 0)
(-0.0326307 0.291725 0)
(-0.0372057 0.303153 0)
(-0.0416314 0.313379 0)
(-0.045867 0.3222 0)
(-0.0498789 0.32942 0)
(-0.0536395 0.334876 0)
(-0.0571271 0.338455 0)
(-0.0603267 0.340099 0)
(-0.0632308 0.339812 0)
(-0.0658398 0.337649 0)
(-0.0681623 0.333721 0)
(-0.0702144 0.328179 0)
(-0.0720187 0.321208 0)
(-0.0736033 0.313016 0)
(-0.0749998 0.303821 0)
(-0.0762416 0.293838 0)
(-0.077362 0.283272 0)
(-0.0783931 0.272307 0)
(-0.0793637 0.261101 0)
(-0.0802992 0.249784 0)
(-0.0812204 0.238455 0)
(-0.0821434 0.227185 0)
(-0.0830801 0.216016 0)
(-0.0840382 0.204973 0)
(-0.0850218 0.194058 0)
(-0.086032 0.183263 0)
(-0.0870676 0.17257 0)
(-0.0881258 0.161956 0)
(-0.0892028 0.151396 0)
(-0.0902942 0.140864 0)
(-0.0913956 0.13034 0)
(-0.0925026 0.119802 0)
(-0.0936115 0.109235 0)
(-0.0947185 0.0986271 0)
(-0.0958213 0.08797 0)
(-0.0969176 0.0772586 0)
(-0.0980056 0.0664907 0)
(-0.0990845 0.0556666 0)
(-0.100153 0.044788 0)
(4.85417e-05 0.0327603 0)
(-0.000103849 0.0874051 0)
(-0.000887487 0.13206 0)
(-0.00245952 0.167941 0)
(-0.00482543 0.1966 0)
(-0.00788294 0.219733 0)
(-0.0114704 0.238924 0)
(-0.0154133 0.255454 0)
(-0.019554 0.27021 0)
(-0.023766 0.283697 0)
(-0.0279545 0.296106 0)
(-0.0320511 0.307413 0)
(-0.0360063 0.317474 0)
(-0.0397829 0.326094 0)
(-0.0433521 0.333086 0)
(-0.0466912 0.338291 0)
(-0.0497836 0.341604 0)
(-0.0526186 0.342973 0)
(-0.0551923 0.342409 0)
(-0.0575079 0.339975 0)
(-0.0595751 0.335788 0)
(-0.0614104 0.330007 0)
(-0.0630354 0.322821 0)
(-0.064476 0.314443 0)
(-0.0657607 0.305092 0)
(-0.0669189 0.294985 0)
(-0.0679799 0.284324 0)
(-0.0689708 0.273293 0)
(-0.0699162 0.262046 0)
(-0.070837 0.250709 0)
(-0.0717501 0.239376 0)
(-0.0726684 0.228115 0)
(-0.0736012 0.216964 0)
(-0.0745541 0.205943 0)
(-0.0755299 0.195052 0)
(-0.0765289 0.184281 0)
(-0.0775496 0.17361 0)
(-0.0785895 0.163015 0)
(-0.0796452 0.15247 0)
(-0.0807131 0.14195 0)
(-0.0817894 0.131433 0)
(-0.0828708 0.120899 0)
(-0.0839544 0.110332 0)
(-0.0850378 0.0997221 0)
(-0.0861188 0.0890606 0)
(-0.0871961 0.0783434 0)
(-0.0882687 0.0675686 0)
(-0.0893364 0.0567369 0)
(-0.0903987 0.0458506 0)
(8.79349e-05 0.0327271 0)
(0.000140228 0.0877251 0)
(-0.000248282 0.133019 0)
(-0.00133017 0.169655 0)
(-0.00316504 0.199044 0)
(-0.00568103 0.222788 0)
(-0.00873392 0.242428 0)
(-0.0121558 0.259241 0)
(-0.0157894 0.274137 0)
(-0.0195053 0.287651 0)
(-0.0232067 0.300006 0)
(-0.0268248 0.3112 0)
(-0.030312 0.321105 0)
(-0.0336343 0.32954 0)
(-0.0367675 0.336323 0)
(-0.0396937 0.341303 0)
(-0.0424008 0.344379 0)
(-0.0448823 0.345506 0)
(-0.0471374 0.344701 0)
(-0.0491714 0.342033 0)
(-0.0509951 0.337626 0)
(-0.0526245 0.331643 0)
(-0.0540799 0.324278 0)
(-0.0553846 0.315746 0)
(-0.0565637 0.306269 0)
(-0.0576426 0.296062 0)
(-0.0586459 0.285328 0)
(-0.0595965 0.274246 0)
(-0.0605142 0.26297 0)
(-0.061416 0.25162 0)
(-0.0623151 0.240288 0)
(-0.0632216 0.229036 0)
(-0.0641422 0.217902 0)
(-0.065081 0.206901 0)
(-0.0660396 0.196032 0)
(-0.0670179 0.185282 0)
(-0.0680144 0.17463 0)
(-0.069027 0.164051 0)
(-0.0700527 0.153518 0)
(-0.0710888 0.143008 0)
(-0.0721326 0.132497 0)
(-0.0731816 0.121967 0)
(-0.0742338 0.111402 0)
(-0.0752876 0.100791 0)
(-0.0763419 0.0901285 0)
(-0.077396 0.0794088 0)
(-0.0784495 0.0686312 0)
(-0.0795026 0.0577967 0)
(-0.0805554 0.0469077 0)
(0.00012538 0.0325666 0)
(0.00037931 0.0877301 0)
(0.000382087 0.133536 0)
(-0.000209168 0.170857 0)
(-0.0015044 0.200947 0)
(-0.00346769 0.225299 0)
(-0.00597411 0.245398 0)
(-0.00886448 0.262509 0)
(-0.0119827 0.277558 0)
(-0.0151975 0.291112 0)
(-0.0184098 0.303422 0)
(-0.0215502 0.314514 0)
(-0.0245723 0.324277 0)
(-0.0274454 0.332544 0)
(-0.0301492 0.339139 0)
(-0.0326703 0.34392 0)
(-0.035001 0.346789 0)
(-0.0371385 0.347708 0)
(-0.0390848 0.346698 0)
(-0.0408468 0.343834 0)
(-0.0424361 0.339244 0)
(-0.0438679 0.333095 0)
(-0.0451606 0.325586 0)
(-0.0463348 0.316932 0)
(-0.0474119 0.307355 0)
(-0.0484131 0.297072 0)
(-0.0493587 0.286282 0)
(-0.0502668 0.275165 0)
(-0.0511532 0.263868 0)
(-0.0520308 0.252512 0)
(-0.0529095 0.241183 0)
(-0.0537967 0.229942 0)
(-0.054697 0.218823 0)
(-0.0556131 0.20784 0)
(-0.0565458 0.196989 0)
(-0.0574947 0.186256 0)
(-0.0584586 0.175619 0)
(-0.0594356 0.165053 0)
(-0.0604237 0.154532 0)
(-0.0614209 0.14403 0)
(-0.0624255 0.133525 0)
(-0.0634361 0.123 0)
(-0.0644514 0.112438 0)
(-0.0654708 0.10183 0)
(-0.0664941 0.0911693 0)
(-0.0675211 0.0804513 0)
(-0.068552 0.0696755 0)
(-0.0695876 0.0588432 0)
(-0.0706284 0.0479568 0)
(0.000160708 0.0322842 0)
(0.00060922 0.0874262 0)
(0.000998654 0.133613 0)
(0.000897056 0.171543 0)
(0.000143996 0.2023 0)
(-0.00125802 0.227255 0)
(-0.00320792 0.247824 0)
(-0.00555763 0.265249 0)
(-0.00815363 0.280469 0)
(-0.0108633 0.294076 0)
(-0.0135853 0.306355 0)
(-0.0162493 0.317357 0)
(-0.0188098 0.326995 0)
(-0.0212387 0.335111 0)
(-0.0235192 0.341542 0)
(-0.0256424 0.34615 0)
(-0.0276043 0.348843 0)
(-0.0294056 0.349588 0)
(-0.0310509 0.348409 0)
(-0.0325485 0.345386 0)
(-0.03391 0.34065 0)
(-0.0351498 0.334371 0)
(-0.0362842 0.326749 0)
(-0.0373308 0.318002 0)
(-0.0383072 0.308352 0)
(-0.0392304 0.298013 0)
(-0.0401163 0.287186 0)
(-0.0409786 0.276044 0)
(-0.0418289 0.264736 0)
(-0.0426764 0.253378 0)
(-0.0435281 0.242055 0)
(-0.0443885 0.230825 0)
(-0.0452608 0.219719 0)
(-0.0461461 0.20875 0)
(-0.0470449 0.197913 0)
(-0.0479566 0.187194 0)
(-0.0488801 0.17657 0)
(-0.0498143 0.166015 0)
(-0.0507579 0.155503 0)
(-0.05171 0.14501 0)
(-0.0526696 0.134512 0)
(-0.0536364 0.123992 0)
(-0.05461 0.113437 0)
(-0.0555908 0.102834 0)
(-0.0565791 0.0921791 0)
(-0.0575756 0.0814673 0)
(-0.0585809 0.0706983 0)
(-0.0595962 0.0598735 0)
(-0.0606225 0.0489955 0)
(0.000193681 0.0318849 0)
(0.000828508 0.0868212 0)
(0.00159502 0.133257 0)
(0.00197916 0.171712 0)
(0.0017696 0.203098 0)
(0.000933888 0.228649 0)
(-0.000451975 0.249697 0)
(-0.00225336 0.267454 0)
(-0.00432137 0.282863 0)
(-0.00652262 0.296542 0)
(-0.00875378 0.308805 0)
(-0.0109432 0.319734 0)
(-0.0130456 0.329261 0)
(-0.0150351 0.337248 0)
(-0.0168982 0.343538 0)
(-0.0186297 0.348001 0)
(-0.0202292 0.350549 0)
(-0.0217007 0.351153 0)
(-0.0230509 0.34984 0)
(-0.0242892 0.346694 0)
(-0.0254273 0.341848 0)
(-0.0264783 0.335473 0)
(-0.0274565 0.327771 0)
(-0.028376 0.318959 0)
(-0.0292509 0.309259 0)
(-0.0300941 0.298885 0)
(-0.0309168 0.288034 0)
(-0.0317288 0.27688 0)
(-0.0325375 0.265568 0)
(-0.0333487 0.254212 0)
(-0.0341664 0.242896 0)
(-0.0349929 0.231676 0)
(-0.0358296 0.220581 0)
(-0.0366768 0.209624 0)
(-0.0375344 0.198799 0)
(-0.0384017 0.18809 0)
(-0.0392781 0.177476 0)
(-0.0401631 0.166931 0)
(-0.0410563 0.156427 0)
(-0.0419576 0.145941 0)
(-0.0428672 0.135452 0)
(-0.0437854 0.12494 0)
(-0.0447132 0.114393 0)
(-0.0456514 0.1038 0)
(-0.0466012 0.0931544 0)
(-0.047564 0.0824536 0)
(-0.0485408 0.0716967 0)
(-0.0495333 0.0608851 0)
(-0.0505426 0.0500215 0)
(0.000223958 0.031375 0)
(0.00103565 0.0859251 0)
(0.00216679 0.132476 0)
(0.00302871 0.171369 0)
(0.00336075 0.203339 0)
(0.00309421 0.229473 0)
(0.00227784 0.25101 0)
(0.00103056 0.269118 0)
(-0.000504662 0.284738 0)
(-0.00219489 0.298507 0)
(-0.00393508 0.310772 0)
(-0.00565187 0.321645 0)
(-0.00729989 0.331081 0)
(-0.00885463 0.338959 0)
(-0.0103055 0.345132 0)
(-0.0116505 0.349477 0)
(-0.0128929 0.351912 0)
(-0.0140392 0.352408 0)
(-0.0150982 0.350997 0)
(-0.0160804 0.347764 0)
(-0.0169972 0.342842 0)
(-0.0178606 0.336404 0)
(-0.0186823 0.328651 0)
(-0.0194734 0.319802 0)
(-0.0202442 0.310075 0)
(-0.0210036 0.299683 0)
(-0.0217586 0.288824 0)
(-0.0225147 0.277668 0)
(-0.0232757 0.266359 0)
(-0.024044 0.255008 0)
(-0.0248208 0.2437 0)
(-0.0256064 0.232488 0)
(-0.0264006 0.221403 0)
(-0.0272029 0.210455 0)
(-0.0280126 0.199638 0)
(-0.0288293 0.188938 0)
(-0.0296527 0.178331 0)
(-0.0304829 0.167793 0)
(-0.0313205 0.157298 0)
(-0.0321661 0.14682 0)
(-0.0330211 0.13634 0)
(-0.0338867 0.125839 0)
(-0.0347647 0.115303 0)
(-0.0356569 0.104723 0)
(-0.036565 0.094092 0)
(-0.037491 0.0834073 0)
(-0.0384366 0.0726681 0)
(-0.0394037 0.0618757 0)
(-0.0403938 0.0510326 0)
(0.000251284 0.0307615 0)
(0.00122918 0.0847507 0)
(0.00271003 0.131281 0)
(0.00403829 0.170521 0)
(0.00490646 0.203026 0)
(0.00520894 0.229727 0)
(0.00496543 0.251759 0)
(0.0042769 0.270236 0)
(0.00327831 0.286088 0)
(0.00210103 0.299971 0)
(0.000851658 0.312259 0)
(-0.000394609 0.323094 0)
(-0.00159171 0.332459 0)
(-0.00271605 0.340248 0)
(-0.00375925 0.346329 0)
(-0.00472226 0.350584 0)
(-0.00561139 0.352935 0)
(-0.00643576 0.353357 0)
(-0.00720588 0.351881 0)
(-0.00793295 0.348595 0)
(-0.00862865 0.343631 0)
(-0.00930345 0.337162 0)
(-0.00996638 0.329388 0)
(-0.0106258 0.320526 0)
(-0.0112882 0.310794 0)
(-0.0119587 0.300404 0)
(-0.0126401 0.289549 0)
(-0.0133341 0.278401 0)
(-0.0140408 0.2671 0)
(-0.0147594 0.255759 0)
(-0.0154886 0.24446 0)
(-0.0162266 0.233256 0)
(-0.0169718 0.222178 0)
(-0.0177229 0.211236 0)
(-0.0184788 0.200425 0)
(-0.0192393 0.18973 0)
(-0.0200044 0.17913 0)
(-0.020775 0.168598 0)
(-0.0215523 0.15811 0)
(-0.0223382 0.147642 0)
(-0.0231346 0.137172 0)
(-0.0239439 0.126684 0)
(-0.0247687 0.116163 0)
(-0.0256115 0.1056 0)
(-0.026475 0.0949888 0)
(-0.0273615 0.0843257 0)
(-0.0282732 0.0736099 0)
(-0.0292124 0.0628428 0)
(-0.0301811 0.0520268 0)
(0.000275507 0.0300523 0)
(0.00140783 0.0833125 0)
(0.00322108 0.129686 0)
(0.00500093 0.169178 0)
(0.00639632 0.202162 0)
(0.0072647 0.22941 0)
(0.00759517 0.251941 0)
(0.00746849 0.270805 0)
(0.00700949 0.286913 0)
(0.00634672 0.300932 0)
(0.00558781 0.313265 0)
(0.00480996 0.324084 0)
(0.00406042 0.333398 0)
(0.00336253 0.341121 0)
(0.00272303 0.347133 0)
(0.00213847 0.351325 0)
(0.00159984 0.353622 0)
(0.0010956 0.354002 0)
(0.000613747 0.352495 0)
(0.000143148 0.349188 0)
(-0.000329714 0.344214 0)
(-0.00081371 0.337744 0)
(-0.00131368 0.329978 0)
(-0.0018362 0.321128 0)
(-0.00238452 0.311412 0)
(-0.00295962 0.301039 0)
(-0.00356069 0.290203 0)
(-0.00418549 0.279072 0)
(-0.00483077 0.267786 0)
(-0.00549274 0.256458 0)
(-0.0061675 0.245168 0)
(-0.00685146 0.233972 0)
(-0.00754161 0.222899 0)
(-0.00823576 0.211961 0)
(-0.00893265 0.201154 0)
(-0.00963197 0.190463 0)
(-0.0103343 0.179867 0)
(-0.011041 0.169341 0)
(-0.0117542 0.158861 0)
(-0.0124766 0.148402 0)
(-0.013211 0.137945 0)
(-0.0139608 0.127473 0)
(-0.0147292 0.116971 0)
(-0.0155199 0.106429 0)
(-0.0163358 0.0958423 0)
(-0.0171801 0.085206 0)
(-0.0180554 0.0745196 0)
(-0.0189643 0.063784 0)
(-0.019909 0.0530016 0)
(0.000296536 0.0292557 0)
(0.00157056 0.0816273 0)
(0.00369657 0.12771 0)
(0.00591014 0.167353 0)
(0.00782043 0.200754 0)
(0.00924856 0.228524 0)
(0.0101518 0.251554 0)
(0.0105884 0.270822 0)
(0.0106711 0.28721 0)
(0.010524 0.301391 0)
(0.0102551 0.313793 0)
(0.00994366 0.324618 0)
(0.00963861 0.333902 0)
(0.00936366 0.341581 0)
(0.00912452 0.347549 0)
(0.00891579 0.351703 0)
(0.00872609 0.353975 0)
(0.00854173 0.354342 0)
(0.008349 0.352836 0)
(0.00813561 0.349541 0)
(0.00788944 0.344588 0)
(0.00760263 0.338147 0)
(0.00727121 0.330415 0)
(0.00689196 0.321601 0)
(0.00646496 0.311922 0)
(0.00599276 0.301584 0)
(0.00547982 0.290778 0)
(0.00493191 0.279674 0)
(0.00435557 0.26841 0)
(0.00375746 0.257098 0)
(0.00314387 0.24582 0)
(0.00252025 0.234631 0)
(0.00189094 0.223562 0)
(0.00125893 0.212627 0)
(0.000625858 0.201821 0)
(-7.98539e-06 0.191131 0)
(-0.00064353 0.180538 0)
(-0.00128275 0.170018 0)
(-0.00192846 0.159545 0)
(-0.0025841 0.149098 0)
(-0.00325353 0.138656 0)
(-0.00394084 0.128202 0)
(-0.00465027 0.117722 0)
(-0.00538597 0.107207 0)
(0.00031433 0.0283807 0)
(0.00171654 0.079713 0)
(0.00413359 0.125372 0)
(0.00675994 0.165063 0)
(0.00916944 0.198815 0)
(0.011148 0.227073 0)
(0.0126202 0.250599 0)
(0.0136199 0.270285 0)
(0.0142454 0.286977 0)
(0.0146147 0.301347 0)
(0.0148354 0.313843 0)
(0.0149885 0.324697 0)
(0.0151252 0.333974 0)
(0.0152701 0.341631 0)
(0.0154286 0.347577 0)
(0.0155938 0.35172 0)
(0.0157524 0.353994 0)
(0.0158886 0.354378 0)
(0.0159873 0.352902 0)
(0.0160351 0.34965 0)
(0.0160208 0.344748 0)
(0.0159375 0.338365 0)
(0.0157821 0.330692 0)
(0.0155543 0.321938 0)
(0.0152572 0.312315 0)
(0.0148967 0.302028 0)
(0.0144806 0.291267 0)
(0.0140181 0.280199 0)
(0.0135187 0.268963 0)
(0.012992 0.257671 0)
(0.0124464 0.246407 0)
(0.0118893 0.235226 0)
(0.0113264 0.224161 0)
(0.0107614 0.213226 0)
(0.0101965 0.202421 0)
(0.00963204 0.191732 0)
(0.00906674 0.181141 0)
(0.00849818 0.170625 0)
(0.0079229 0.160162 0)
(0.00733669 0.149727 0)
(0.00673489 0.139302 0)
(0.00611259 0.12887 0)
(0.0054648 0.118416 0)
(0.00478664 0.107931 0)
(0.000328886 0.0274363 0)
(0.00184514 0.0775893 0)
(0.00452963 0.122694 0)
(0.00754496 0.162327 0)
(0.0104346 0.196358 0)
(0.0129511 0.225067 0)
(0.0149859 0.249079 0)
(0.0165466 0.269196 0)
(0.0177148 0.286215 0)
(0.0186009 0.3008 0)
(0.0193106 0.313417 0)
(0.0199267 0.324325 0)
(0.0205027 0.333616 0)
(0.0210648 0.341273 0)
(0.0216187 0.347221 0)
(0.0221566 0.351376 0)
(0.0226637 0.353677 0)
(0.0231224 0.354106 0)
(0.0235161 0.35269 0)
(0.0238306 0.349509 0)
(0.0240549 0.344688 0)
(0.0241827 0.338389 0)
(0.0242122 0.330802 0)
(0.0241455 0.32213 0)
(0.0239882 0.312583 0)
(0.0237494 0.302364 0)
(0.02344 0.29166 0)
(0.0230721 0.280638 0)
(0.0226584 0.269438 0)
(0.0222109 0.258172 0)
(0.0217405 0.246923 0)
(0.0212562 0.235751 0)
(0.020765 0.22469 0)
(0.0202719 0.213756 0)
(0.0197792 0.20295 0)
(0.0192875 0.192261 0)
(0.0187956 0.181672 0)
(0.0183004 0.171161 0)
(0.0177981 0.160707 0)
(0.0172837 0.150286 0)
(0.0167518 0.13988 0)
(0.0161968 0.129472 0)
(0.015613 0.119048 0)
(0.0149948 0.108598 0)
(0.000340241 0.026432 0)
(0.00195592 0.0752766 0)
(0.00488264 0.119701 0)
(0.00826046 0.159169 0)
(0.0116079 0.1934 0)
(0.0146464 0.222515 0)
(0.0172344 0.247001 0)
(0.019352 0.267555 0)
(0.0210618 0.284922 0)
(0.0224643 0.299751 0)
(0.0236626 0.312516 0)
(0.0247403 0.323503 0)
(0.0257534 0.332832 0)
(0.0267305 0.34051 0)
(0.0276781 0.346481 0)
(0.0285882 0.350671 0)
(0.0294447 0.353025 0)
(0.0302288 0.353523 0)
(0.0309223 0.352194 0)
(0.0315099 0.349112 0)
(0.0319808 0.344398 0)
(0.032329 0.338211 0)
(0.0325538 0.330733 0)
(0.032659 0.322166 0)
(0.0326529 0.312715 0)
(0.032547 0.302581 0)
(0.032355 0.291948 0)
(0.032092 0.280983 0)
(0.0317733 0.269826 0)
(0.0314135 0.258591 0)
(0.0310257 0.247363 0)
(0.0306206 0.236202 0)
(0.0302068 0.225146 0)
(0.0297901 0.214212 0)
(0.0293736 0.203405 0)
(0.0289581 0.192715 0)
(0.0285422 0.182128 0)
(0.028123 0.171623 0)
(0.0276958 0.161178 0)
(0.0272552 0.150773 0)
(0.0267953 0.140389 0)
(0.0263097 0.130008 0)
(0.0257919 0.119618 0)
(0.0252358 0.109207 0)
(0.000348463 0.0253772 0)
(0.00204865 0.0727967 0)
(0.00519101 0.11642 0)
(0.00890235 0.155615 0)
(0.0126819 0.189963 0)
(0.0162231 0.219433 0)
(0.019352 0.244371 0)
(0.0220199 0.265367 0)
(0.0242686 0.283102 0)
(0.0261868 0.298199 0)
(0.0278728 0.31114 0)
(0.0294109 0.322232 0)
(0.0308595 0.331623 0)
(0.0322498 0.339344 0)
(0.0335898 0.345359 0)
(0.0348721 0.349605 0)
(0.0360798 0.352034 0)
(0.0371928 0.352626 0)
(0.0381916 0.351408 0)
(0.03906 0.348451 0)
(0.0397867 0.343871 0)
(0.0403659 0.337819 0)
(0.0407976 0.330475 0)
(0.0410872 0.322035 0)
(0.0412448 0.312699 0)
(0.0412841 0.302666 0)
(0.0412214 0.292119 0)
(0.0410745 0.281223 0)
(0.0408611 0.270119 0)
(0.0405983 0.258921 0)
(0.040301 0.247717 0)
(0.0399821 0.236571 0)
(0.0396515 0.225521 0)
(0.039316 0.21459 0)
(0.0389797 0.203782 0)
(0.0386435 0.193092 0)
(0.0383065 0.182507 0)
(0.0379654 0.172007 0)
(0.0376153 0.161574 0)
(0.0372504 0.151187 0)
(0.0368642 0.140826 0)
(0.0364496 0.130476 0)
(0.0359997 0.120122 0)
(0.0355075 0.109755 0)
(0.000353657 0.0242816 0)
(0.00212327 0.0701719 0)
(0.00545361 0.11288 0)
(0.00946724 0.151692 0)
(0.0136501 0.18607 0)
(0.017671 0.215838 0)
(0.0213252 0.2412 0)
(0.0245344 0.262637 0)
(0.0273177 0.280755 0)
(0.0297497 0.296146 0)
(0.0319226 0.30929 0)
(0.03392 0.320513 0)
(0.0358027 0.32999 0)
(0.0376047 0.337776 0)
(0.0393364 0.343854 0)
(0.0409913 0.348177 0)
(0.0425523 0.350701 0)
(0.0439984 0.35141 0)
(0.045309 0.350326 0)
(0.0464667 0.347517 0)
(0.0474594 0.343094 0)
(0.0482814 0.337202 0)
(0.048933 0.330015 0)
(0.0494205 0.321723 0)
(0.0497556 0.312522 0)
(0.0499539 0.302608 0)
(0.0500337 0.292161 0)
(0.0500152 0.281346 0)
(0.0499184 0.270305 0)
(0.0497626 0.259153 0)
(0.0495648 0.24798 0)
(0.0493396 0.236852 0)
(0.0490984 0.225812 0)
(0.0488494 0.214884 0)
(0.0485973 0.204077 0)
(0.048344 0.193388 0)
(0.0480885 0.182806 0)
(0.0478277 0.172313 0)
(0.0475566 0.161893 0)
(0.0472691 0.151524 0)
(0.0469581 0.14119 0)
(0.0466161 0.130873 0)
(0.0462357 0.12056 0)
(0.0458091 0.11024 0)
(0.00035595 0.0231546 0)
(0.00217994 0.067425 0)
(0.00566976 0.10911 0)
(0.00995247 0.147433 0)
(0.0145068 0.181749 0)
(0.0189811 0.21175 0)
(0.0231414 0.237503 0)
(0.0268799 0.259372 0)
(0.0301914 0.277885 0)
(0.0331342 0.293593 0)
(0.0357925 0.306968 0)
(0.0382483 0.318349 0)
(0.0405639 0.327935 0)
(0.0427767 0.335807 0)
(0.0448997 0.341968 0)
(0.0469279 0.346386 0)
(0.0488447 0.349024 0)
(0.0506287 0.349868 0)
(0.052258 0.348939 0)
(0.0537142 0.346301 0)
(0.0549843 0.342057 0)
(0.0560619 0.336348 0)
(0.0569474 0.329339 0)
(0.0576477 0.321216 0)
(0.0581755 0.31217 0)
(0.0585477 0.302391 0)
(0.0587846 0.292061 0)
(0.0589081 0.281341 0)
(0.0589404 0.270374 0)
(0.0589027 0.259277 0)
(0.0588142 0.248142 0)
(0.0586911 0.237038 0)
(0.0585465 0.226012 0)
(0.0583897 0.215091 0)
(0.0582266 0.204287 0)
(0.0580598 0.193601 0)
(0.0578887 0.183023 0)
(0.0577106 0.172539 0)
(0.0575204 0.162132 0)
(0.0573118 0.151785 0)
(0.0570775 0.141479 0)
(0.0568096 0.131198 0)
(0.0564999 0.12093 0)
(0.0561405 0.110661 0)
(0.0003555 0.0220054 0)
(0.00221896 0.0645791 0)
(0.00583926 0.105143 0)
(0.0103561 0.142871 0)
(0.0152472 0.177032 0)
(0.0201448 0.207195 0)
(0.0247885 0.233296 0)
(0.0290411 0.255584 0)
(0.032872 0.274499 0)
(0.0363212 0.290544 0)
(0.039463 0.304175 0)
(0.0423759 0.31574 0)
(0.0451236 0.325459 0)
(0.0477463 0.333437 0)
(0.0502604 0.3397 0)
(0.052663 0.344229 0)
(0.0549387 0.346998 0)
(0.0570655 0.347994 0)
(0.059021 0.347239 0)
(0.0607854 0.344791 0)
(0.0623447 0.340748 0)
(0.0636917 0.335241 0)
(0.0648263 0.328432 0)
(0.0657555 0.320498 0)
(0.0664924 0.311626 0)
(0.067055 0.302002 0)
(0.0674649 0.291804 0)
(0.0677455 0.281193 0)
(0.0679208 0.270313 0)
(0.0680138 0.259281 0)
(0.0680455 0.248193 0)
(0.0680341 0.237121 0)
(0.067994 0.226114 0)
(0.0679361 0.215205 0)
(0.0678674 0.204407 0)
(0.0677913 0.193726 0)
(0.0677081 0.183155 0)
(0.0676153 0.172682 0)
(0.0675081 0.162291 0)
(0.0673801 0.151967 0)
(0.067224 0.141692 0)
(0.0670314 0.131451 0)
(0.0667939 0.121229 0)
(0.066503 0.111017 0)
(0.000352481 0.0208431 0)
(0.00224082 0.0616574 0)
(0.00596234 0.10101 0)
(0.0106771 0.138042 0)
(0.0158676 0.171951 0)
(0.0211549 0.2022 0)
(0.0262553 0.228601 0)
(0.0310034 0.251286 0)
(0.0353421 0.270604 0)
(0.0392915 0.287002 0)
(0.0429137 0.300913 0)
(0.0462822 0.312687 0)
(0.0494611 0.322562 0)
(0.0524933 0.330667 0)
(0.0553986 0.337048 0)
(0.0581769 0.341704 0)
(0.0608143 0.344618 0)
(0.0632893 0.345783 0)
(0.0655787 0.345218 0)
(0.0676616 0.342977 0)
(0.0695227 0.339152 0)
(0.0711536 0.333868 0)
(0.0725534 0.327278 0)
(0.0737286 0.319553 0)
(0.0746923 0.310874 0)
(0.0754631 0.301422 0)
(0.0760633 0.291374 0)
(0.0765175 0.280888 0)
(0.0768512 0.270108 0)
(0.077089 0.259154 0)
(0.0772536 0.248123 0)
(0.0773647 0.237091 0)
(0.0774385 0.226111 0)
(0.0774872 0.215218 0)
(0.0775193 0.204432 0)
(0.0775391 0.19376 0)
(0.0775477 0.183199 0)
(0.0775433 0.172739 0)
(0.0775216 0.162367 0)
(0.0774762 0.152069 0)
(0.0773998 0.141828 0)
(0.077284 0.131628 0)
(0.0771199 0.121458 0)
(0.0768988 0.111305 0)
(0.000347089 0.0196764 0)
(0.00224615 0.0586827 0)
(0.0060397 0.0967436 0)
(0.010915 0.132983 0)
(0.0163652 0.166545 0)
(0.0220053 0.196799 0)
(0.0275318 0.223442 0)
(0.0327527 0.246494 0)
(0.0375845 0.266209 0)
(0.0420255 0.282971 0)
(0.0461237 0.297184 0)
(0.0499459 0.309191 0)
(0.0535549 0.319246 0)
(0.0569962 0.327497 0)
(0.060293 0.334013 0)
(0.0634485 0.33881 0)
(0.0664508 0.341882 0)
(0.0692793 0.343228 0)
(0.0719103 0.342866 0)
(0.0743221 0.340847 0)
(0.0764979 0.337256 0)
(0.0784278 0.332212 0)
(0.0801097 0.325859 0)
(0.0815491 0.318362 0)
(0.0827587 0.309895 0)
(0.0837568 0.300634 0)
(0.0845662 0.290752 0)
(0.0852123 0.280408 0)
(0.0857216 0.269744 0)
(0.0861199 0.258881 0)
(0.0864315 0.247919 0)
(0.0866777 0.236937 0)
(0.0868762 0.225992 0)
(0.0870408 0.215124 0)
(0.0871812 0.204356 0)
(0.0873031 0.193698 0)
(0.0874086 0.18315 0)
(0.0874966 0.172708 0)
(0.0875634 0.162358 0)
(0.0876031 0.152089 0)
(0.0876084 0.141884 0)
(0.0875709 0.131731 0)
(0.0874817 0.121615 0)
(0.0873318 0.111525 0)
(0.000339531 0.0185137 0)
(0.0022357 0.0556777 0)
(0.00607243 0.0923782 0)
(0.0110703 0.127735 0)
(0.0167385 0.160852 0)
(0.022691 0.191025 0)
(0.0286089 0.217848 0)
(0.0342761 0.241229 0)
(0.0395824 0.261329 0)
(0.0445037 0.278461 0)
(0.0490717 0.292991 0)
(0.0533446 0.305255 0)
(0.0573825 0.31551 0)
(0.0612324 0.323926 0)
(0.0649212 0.330593 0)
(0.0684554 0.335543 0)
(0.0718258 0.338785 0)
(0.075013 0.340321 0)
(0.0779935 0.340173 0)
(0.0807448 0.338389 0)
(0.0832484 0.335047 0)
(0.0854928 0.330258 0)
(0.0874743 0.324159 0)
(0.089197 0.316906 0)
(0.0906724 0.308669 0)
(0.0919184 0.299618 0)
(0.0929575 0.289921 0)
(0.0938154 0.279736 0)
(0.0945191 0.269203 0)
(0.0950957 0.258446 0)
(0.0955705 0.247567 0)
(0.0959661 0.236647 0)
(0.096302 0.225749 0)
(0.0965934 0.214914 0)
(0.0968513 0.20417 0)
(0.097083 0.193533 0)
(0.0972916 0.183005 0)
(0.097477 0.172584 0)
(0.0976363 0.162261 0)
(0.0977642 0.152024 0)
(0.0978536 0.14186 0)
(0.0978965 0.131755 0)
(0.0978839 0.121697 0)
(0.0978067 0.111675 0)
(0.000330024 0.0173626 0)
(0.00221038 0.0526641 0)
(0.00606205 0.0879466 0)
(0.0111441 0.122336 0)
(0.016987 0.154916 0)
(0.0232086 0.18492 0)
(0.0294792 0.211852 0)
(0.0355614 0.235516 0)
(0.0413199 0.255979 0)
(0.0467069 0.273481 0)
(0.0517362 0.288342 0)
(0.0564553 0.30088 0)
(0.0609202 0.311356 0)
(0.0651782 0.319956 0)
(0.0692593 0.326787 0)
(0.0731737 0.331902 0)
(0.0769153 0.335322 0)
(0.0804665 0.337057 0)
(0.0838043 0.337132 0)
(0.0869053 0.335591 0)
(0.08975 0.332508 0)
(0.0923247 0.327987 0)
(0.0946238 0.322157 0)
(0.0966496 0.315166 0)
(0.0984119 0.307176 0)
(0.0999276 0.298352 0)
(0.101218 0.288859 0)
(0.10231 0.27885 0)
(0.103229 0.268466 0)
(0.104003 0.257832 0)
(0.104659 0.247051 0)
(0.105221 0.236207 0)
(0.105709 0.225366 0)
(0.10614 0.214576 0)
(0.106526 0.203867 0)
(0.106877 0.193258 0)
(0.107197 0.182756 0)
(0.107486 0.172363 0)
(0.107743 0.162071 0)
(0.107963 0.151871 0)
(0.10814 0.141752 0)
(0.108266 0.1317 0)
(0.108332 0.121704 0)
(0.108329 0.111753 0)
(0.00031879 0.0162306 0)
(0.00217115 0.0496632 0)
(0.00601037 0.0834819 0)
(0.0111384 0.116829 0)
(0.0171112 0.14878 0)
(0.0235558 0.178525 0)
(0.0301365 0.205489 0)
(0.0365982 0.229384 0)
(0.0427819 0.25018 0)
(0.0486161 0.268043 0)
(0.0540954 0.283242 0)
(0.0592545 0.29607 0)
(0.0641434 0.306786 0)
(0.0688085 0.315585 0)
(0.0732822 0.322595 0)
(0.0775783 0.327884 0)
(0.0816941 0.331489 0)
(0.0856142 0.33343 0)
(0.0893167 0.333733 0)
(0.0927778 0.332442 0)
(0.0959765 0.329627 0)
(0.0988973 0.325384 0)
(0.101532 0.319835 0)
(0.103881 0.31312 0)
(0.105953 0.305393 0)
(0.107761 0.296814 0)
(0.109327 0.287542 0)
(0.110675 0.277728 0)
(0.111832 0.267512 0)
(0.112826 0.257018 0)
(0.113684 0.246351 0)
(0.11443 0.235599 0)
(0.115087 0.224831 0)
(0.115673 0.214097 0)
(0.116201 0.203434 0)
(0.116682 0.192863 0)
(0.117122 0.182397 0)
(0.117523 0.172038 0)
(0.117885 0.161784 0)
(0.118202 0.151627 0)
(0.118471 0.141557 0)
(0.118684 0.131563 0)
(0.118832 0.121634 0)
(0.118906 0.111758 0)
(0.000306051 0.0151244 0)
(0.00211906 0.0466951 0)
(0.00591952 0.0790163 0)
(0.0110558 0.111255 0)
(0.0171129 0.142492 0)
(0.0237319 0.171887 0)
(0.0305762 0.198803 0)
(0.0373771 0.222866 0)
(0.0439543 0.243957 0)
(0.050213 0.262165 0)
(0.0561275 0.277702 0)
(0.0617179 0.29083 0)
(0.0670264 0.301801 0)
(0.0720969 0.310815 0)
(0.0769632 0.318015 0)
(0.0816424 0.323487 0)
(0.0861352 0.327283 0)
(0.0904291 0.329432 0)
(0.0945034 0.329966 0)
(0.0983343 0.32893 0)
(0.1019 0.326388 0)
(0.105182 0.322432 0)
(0.108172 0.317174 0)
(0.110865 0.310747 0)
(0.113268 0.303299 0)
(0.115392 0.294981 0)
(0.117258 0.285948 0)
(0.118887 0.276347 0)
(0.120307 0.266318 0)
(0.121544 0.255982 0)
(0.122626 0.245448 0)
(0.123579 0.234805 0)
(0.124424 0.224125 0)
(0.125182 0.213463 0)
(0.125868 0.202858 0)
(0.126493 0.192337 0)
(0.127066 0.181916 0)
(0.127589 0.171601 0)
(0.128063 0.161392 0)
(0.128485 0.151285 0)
(0.128852 0.141271 0)
(0.129156 0.13134 0)
(0.129389 0.121482 0)
(0.129544 0.111688 0)
(0.000292027 0.0140501 0)
(0.00205521 0.0437788 0)
(0.00579185 0.0745813 0)
(0.0108992 0.105655 0)
(0.0169946 0.136098 0)
(0.0237375 0.165055 0)
(0.0307955 0.191839 0)
(0.0378907 0.216001 0)
(0.0448245 0.237341 0)
(0.0514801 0.255867 0)
(0.0578109 0.271735 0)
(0.0638212 0.285169 0)
(0.0695428 0.296405 0)
(0.0750159 0.305646 0)
(0.0802742 0.313047 0)
(0.0853375 0.31871 0)
(0.0902101 0.3227 0)
(0.0948823 0.325059 0)
(0.0993352 0.325825 0)
(0.103545 0.325044 0)
(0.10749 0.322778 0)
(0.11115 0.319112 0)
(0.114511 0.314154 0)
(0.117569 0.308026 0)
(0.120326 0.300868 0)
(0.122792 0.292827 0)
(0.124983 0.28405 0)
(0.12692 0.274682 0)
(0.128629 0.264858 0)
(0.130135 0.254701 0)
(0.131467 0.244319 0)
(0.132648 0.233804 0)
(0.133704 0.223229 0)
(0.134655 0.212655 0)
(0.135516 0.202123 0)
(0.136302 0.191666 0)
(0.137021 0.181302 0)
(0.137678 0.171042 0)
(0.138275 0.160888 0)
(0.138812 0.150838 0)
(0.139283 0.140887 0)
(0.139685 0.131026 0)
(0.140009 0.121246 0)
(0.140248 0.111538 0)
(0.000276928 0.0130134 0)
(0.0019807 0.0409323 0)
(0.00562986 0.0702073 0)
(0.0106723 0.100072 0)
(0.01676 0.129648 0)
(0.0235746 0.15808 0)
(0.0307931 0.184645 0)
(0.0381331 0.208832 0)
(0.0453815 0.230364 0)
(0.0524011 0.249176 0)
(0.0591248 0.265359 0)
(0.0655395 0.279097 0)
(0.0716654 0.290604 0)
(0.0775366 0.300081 0)
(0.0831854 0.307691 0)
(0.0886336 0.313549 0)
(0.0938884 0.317735 0)
(0.0989431 0.320304 0)
(0.103781 0.3213 0)
(0.10838 0.320773 0)
(0.112715 0.318782 0)
(0.116767 0.31541 0)
(0.120519 0.310754 0)
(0.123962 0.304933 0)
(0.127096 0.298078 0)
(0.129928 0.290327 0)
(0.132471 0.281822 0)
(0.134744 0.272704 0)
(0.136769 0.263105 0)
(0.138572 0.253147 0)
(0.14018 0.242938 0)
(0.141617 0.23257 0)
(0.142907 0.222121 0)
(0.144073 0.211652 0)
(0.145131 0.201212 0)
(0.146096 0.190834 0)
(0.146978 0.180541 0)
(0.147785 0.170347 0)
(0.148518 0.160259 0)
(0.149179 0.150277 0)
(0.149766 0.140398 0)
(0.150273 0.130614 0)
(0.150695 0.120919 0)
(0.151024 0.111304 0)
(0.000260962 0.0120191 0)
(0.00189664 0.0381722 0)
(0.00543609 0.0659234 0)
(0.0103787 0.0945446 0)
(0.016413 0.123192 0)
(0.0232462 0.151016 0)
(0.030569 0.177276 0)
(0.0381002 0.201408 0)
(0.0456158 0.223069 0)
(0.0529611 0.242121 0)
(0.0600492 0.258595 0)
(0.0668489 0.272628 0)
(0.0733671 0.284407 0)
(0.07963 0.294125 0)
(0.0856669 0.301948 0)
(0.0915 0.308004 0)
(0.0971391 0.312388 0)
(0.10258 0.315164 0)
(0.107809 0.316386 0)
(0.112805 0.316107 0)
(0.117543 0.314389 0)
(0.122 0.311308 0)
(0.126159 0.306958 0)
(0.130008 0.301449 0)
(0.133543 0.294904 0)
(0.136766 0.287454 0)
)
;

boundaryField
{
    movingWall
    {
        type            fixedValue;