/*--------------------------------*- C++ -*----------------------------------*\
  =========                 |
  \\      /  F ield         | OpenFOAM: The Open Source CFD Toolbox
   \\    /   O peration     | Website:  https://openfoam.org
    \\  /    A nd           | Version:  9
     \\/     M anipulation  |
\*---------------------------------------------------------------------------*/
FoamFile
{
    format      ascii;
    class       volScalarField;
    location    "1.5";
    object      p;
}
// * * * * * * * * * * * * * * * * * * * * * * * * * * * * * * * * * * * * * //

dimensions      [0 2 -2 0 0 0 0];

internalField   nonuniform List<scalar> 
10000
(
1.13117e-08
2.3021e-06
-1.67499e-06
-1.1715e-05
-2.70182e-05
-4.66988e-05
-6.99032e-05
-9.59364e-05
-0.0001243
-0.000154673
-0.00018688
-0.000220853
-0.000256591
-0.000294133
-0.000333529
-0.000374819
-0.000418019
-0.00046311
-0.000510031
-0.000558673
-0.000608884
-0.00066046
-0.000713153
-0.000766666
-0.000820651
-0.000874712
-0.0009284
-0.000981212
-0.00103259
-0.00108192
-0.00112852
-0.00117165
-0.00121053
-0.00124431
-0.00127211
-0.00129301
-0.00130607
-0.00131037
-0.001305
-0.00128912
-0.00126197
-0.00122289
-0.0011714
-0.0011072
-0.00103022
-0.000940652
-0.00083899
-0.000726048
-0.000602989
-0.000471324
-0.000332894
-0.000189962
-4.50544e-05
9.90029e-05
0.000239149
0.000372156
0.000494709
0.000603487
0.000695271
0.000767033
0.000816047
0.000839976
0.00083697
0.000805736
0.000745592
0.000656512
0.000539131
0.000394737
0.000225227
3.30665e-05
-0.00017882
-0.00040713
-0.000648299
-0.000898614
-0.00115433
-0.0014118
-0.00166754
-0.00191834
-0.00216136
-0.00239411
-0.00261454
-0.00282104
-0.0030124
-0.00318782
-0.00334684
-0.00348932
-0.00361536
-0.00372525
-0.0038194
-0.00389826
-0.00396233
-0.00401205
-0.00404784
-0.00407013
-0.00407945
-0.00407669
-0.00406348
-0.00404289
-0.00401963
-0.00400166
-2.3148e-06
-4.7715e-08
-4.01647e-06
-1.32566e-05
-2.69665e-05
-4.4584e-05
-6.55325e-05
-8.92985e-05
-0.000115483
-0.000143807
-0.000174091
-0.000206237
-0.000240205
-0.000275983
-0.000313575
-0.000352977
-0.00039417
-0.000437108
-0.000481713
-0.00052787
-0.000575427
-0.000624187
-0.000673918
-0.000724342
-0.000775139
-0.000825946
-0.000876349
-0.00092589
-0.000974058
-0.00102029
-0.00106396
-0.00110441
-0.00114091
-0.00117269
-0.00119894
-0.00121883
-0.00123149
-0.00123609
-0.00123178
-0.0012178
-0.00119344
-0.0011581
-0.00111134
-0.00105288
-0.000982643
-0.000900817
-0.000807851
-0.000704497
-0.000591842
-0.000471327
-0.00034463
-0.00021384
-8.13498e-05
5.0198e-05
0.000177935
0.000298836
0.00040979
0.000507683
0.000589495
0.000652387
0.000693805
0.000711567
0.00070395
0.000669757
0.000608376
0.000519809
0.000404684
0.000264245
0.000100309
-8.47864e-05
-0.000288257
-0.000506985
-0.000737609
-0.000976639
-0.00122056
-0.00146596
-0.00170958
-0.00194845
-0.0021799
-0.00240164
-0.00261176
-0.00280877
-0.00299154
-0.00315934
-0.00331173
-0.00344859
-0.00356999
-0.00367622
-0.00376766
-0.00384478
-0.00390809
-0.00395811
-0.00399535
-0.0040204
-0.00403396
-0.00403698
-0.00403096
-0.0040183
-0.00400174
-0.0039837
1.78465e-06
3.83336e-06
-3.10291e-07
-9.32213e-06
-2.23413e-05
-3.89103e-05
-5.85845e-05
-8.09484e-05
-0.000105679
-0.000132542
-0.00016138
-0.000192097
-0.000224639
-0.000258981
-0.000295106
-0.000332992
-0.000372601
-0.000413874
-0.000456725
-0.000501037
-0.00054666
-0.000593408
-0.000641062
-0.000689362
-0.000738015
-0.000786684
-0.000834993
-0.000882519
-0.000928792
-0.000973294
-0.00101545
-0.00105465
-0.00109021
-0.00112141
-0.00114749
-0.00116767
-0.00118113
-0.00118706
-0.00118466
-0.00117319
-0.00115194
-0.00112033
-0.0010779
-0.00102435
-0.000959578
-0.000883723
-0.000797177
-0.000700625
-0.000595088
-0.000481932
-0.000362625
-0.000239344
-0.000114309
9.93766e-06
0.000130617
0.000244792
0.000349436
0.000441511
0.000518066
0.000576328
0.000613792
0.000628323
0.000618232
0.000582355
0.000520094
0.000431464
0.000317096
0.000178225
1.66564e-05
-0.000165302
-0.00036491
-0.000579088
-0.000804541
-0.00103785
-0.00127559
-0.00151444
-0.00175124
-0.00198312
-0.00220754
-0.00242231
-0.00262563
-0.00281609
-0.00299269
-0.00315473
-0.00330188
-0.00343405
-0.00355137
-0.00365416
-0.00374285
-0.00381795
-0.00387999
-0.00392955
-0.00396717
-0.00399347
-0.00400909
-0.00401482
-0.00401182
-0.00400179
-0.00398527
-0.00396035
1.23631e-05
1.31487e-05
8.26775e-06
-1.03026e-06
-1.39324e-05
-3.00374e-05
-4.89562e-05
-7.03581e-05
-9.39876e-05
-0.000119662
-0.000147259
-0.000176702
-0.000207949
-0.000240975
-0.000275758
-0.000312271
-0.000350472
-0.000390297
-0.000431656
-0.000474436
-0.000518492
-0.00056365
-0.000609708
-0.000656431
-0.000703548
-0.000750756
-0.000797714
-0.000844038
-0.000889301
-0.000933026
-0.000974686
-0.0010137
-0.00104944
-0.00108123
-0.00110834
-0.00113
-0.00114542
-0.00115382
-0.00115438
-0.00114634
-0.001129
-0.00110173
-0.00106402
-0.00101554
-0.000956109
-0.000885801
-0.000804934
-0.000714116
-0.000614315
-0.000506888
-0.000392899
-0.000274798
-0.000154675
-3.50026e-05
8.14766e-05
0.00019185
0.000293106
0.000382212
0.000456209
0.00051231
0.000547996
0.000561108
0.00054994
0.000513305
0.000450596
0.00036182
0.000247608
0.000109205
-5.15717e-05
-0.000232388
-0.00043048
-0.000642754
-0.000865884
-0.00109644
-0.00133099
-0.00156622
-0.00179901
-0.00202652
-0.00224626
-0.0024561
-0.00265434
-0.00283965
-0.00301112
-0.00316815
-0.0033105
-0.00343816
-0.00355138
-0.00365053
-0.00373612
-0.00380871
-0.00386892
-0.00391732
-0.0039545
-0.003981
-0.00399736
-0.0040041
-0.00400198
-0.00399206
-0.00397308
-0.00394006
2.88962e-05
2.72418e-05
2.0962e-05
1.09038e-05
-2.31168e-06
-1.83152e-05
-3.67914e-05
-5.74875e-05
-8.02174e-05
-0.000104855
-0.000131325
-0.000159583
-0.000189609
-0.000221391
-0.000254913
-0.000290153
-0.000327069
-0.0003656
-0.000405662
-0.000447147
-0.000489923
-0.000533833
-0.000578695
-0.000624301
-0.000670413
-0.000716765
-0.000763053
-0.000808939
-0.000854038
-0.000897919
-0.000940097
-0.000980035
-0.00101713
-0.00105075
-0.00108017
-0.00110464
-0.00112338
-0.00113557
-0.00114038
-0.00113703
-0.00112475
-0.00110285
-0.00107076
-0.00102805
-0.000974473
-0.000909999
-0.000834865
-0.000749594
-0.000655026
-0.000552303
-0.000443016
-0.000328992
-0.00021241
-9.57652e-05
1.82065e-05
0.000126582
0.00022632
0.000314347
0.000387653
0.000443391
0.000478975
0.000492183
0.000481245
0.000444921
0.000382558
0.000294133
0.000180264
4.22019e-05
-0.000118214
-0.000298614
-0.000496179
-0.000707746
-0.000929957
-0.00115927
-0.00139223
-0.00162545
-0.00185579
-0.00208041
-0.00229681
-0.00250292
-0.00269706
-0.002878
-0.0030449
-0.00319727
-0.00333498
-0.00345813
-0.00356705
-0.00366226
-0.00374433
-0.00381394
-0.00387173
-0.00391836
-0.00395438
-0.00398031
-0.00399653
-0.00400333
-0.0040011
-0.00399038
-0.00396853
-0.00392824
5.06513e-05
4.5571e-05
3.73133e-05
2.60668e-05
1.215e-05
-4.08929e-06
-2.2407e-05
-4.26355e-05
-6.46645e-05
-8.84328e-05
-0.000113916
-0.000141116
-0.000170042
-0.000200706
-0.00023311
-0.000267242
-0.000303071
-0.000340545
-0.000379593
-0.000420119
-0.000462011
-0.000505134
-0.000549335
-0.000594437
-0.000640242
-0.000686527
-0.000733032
-0.000779466
-0.000825491
-0.00087072
-0.000914712
-0.000956961
-0.0009969
-0.00103389
-0.00106724
-0.00109619
-0.00111992
-0.00113758
-0.0011483
-0.00115121
-0.00114547
-0.00113031
-0.00110504
-0.00106914
-0.00102224
-0.000964214
-0.000895182
-0.000815573
-0.000726148
-0.000628004
-0.000522539
-0.000411663
-0.000297517
-0.000182581
-6.96111e-05
3.84309e-05
0.000138446
0.000227285
0.00030185
0.00035919
0.000396614
0.000411791
0.000402846
0.000368439
0.000307837
0.000220951
0.00010836
-2.8704e-05
-0.00018839
-0.000368292
-0.000565531
-0.000776868
-0.000998826
-0.0012278
-0.0014602
-0.00169257
-0.00192167
-0.0021446
-0.00235883
-0.00256227
-0.00275328
-0.00293065
-0.00309363
-0.00324182
-0.00337518
-0.00349394
-0.00359857
-0.00368967
-0.00376795
-0.00383418
-0.0038891
-0.00393338
-0.00396764
-0.00399232
-0.0040077
-0.00401387
-0.00401093
-0.00399904
-0.0039746
-0.00392866
7.66832e-05
6.74829e-05
5.67734e-05
4.39159e-05
2.89637e-05
1.22026e-05
-6.20117e-06
-2.61724e-05
-4.76845e-05
-7.07485e-05
-9.54015e-05
-0.000121694
-0.000149678
-0.000179397
-0.000210878
-0.000244129
-0.000279139
-0.000315871
-0.000354275
-0.000394278
-0.000435793
-0.000478717
-0.000522933
-0.000568307
-0.000614686
-0.000661897
-0.000709733
-0.000757952
-0.000806267
-0.000854337
-0.000901757
-0.000948052
-0.000992672
-0.00103499
-0.00107428
-0.00110977
-0.00114059
-0.00116583
-0.00118454
-0.00119574
-0.0011985
-0.0011919
-0.00117515
-0.00114758
-0.00110868
-0.0010582
-0.000996143
-0.000922808
-0.000838893
-0.00074554
-0.000643569
-0.000535346
-0.000422881
-0.000308629
-0.000195374
-8.61329e-05
1.59174e-05
0.000107527
0.000185477
0.00024668
0.000288297
0.000307842
0.000303283
0.000273137
0.000216533
0.000133271
2.38412e-05
-0.00011058
-0.000268164
-0.00044649
-0.00064263
-0.000853268
-0.00107481
-0.00130355
-0.00153574
-0.0017678
-0.00199636
-0.00221841
-0.00243133
-0.00263299
-0.00282171
-0.0029963
-0.00315603
-0.0033006
-0.00343004
-0.0035447
-0.00364516
-0.00373216
-0.00380655
-0.00386918
-0.00392089
-0.00396245
-0.00399447
-0.00401741
-0.00403147
-0.00403659
-0.00403265
-0.00401959
-0.00399317
-0.00394343
0.00010605
9.2122e-05
7.85153e-05
6.37735e-05
4.75281e-05
3.00191e-05
1.13323e-05
-8.55774e-06
-2.97163e-05
-5.22344e-05
-7.62182e-05
-0.000101776
-0.000129007
-0.000157994
-0.000188798
-0.000221456
-0.000255983
-0.00029237
-0.000330593
-0.000370614
-0.000412382
-0.000455835
-0.000500905
-0.000547508
-0.000595551
-0.000644916
-0.000695457
-0.00074699
-0.00079928
-0.000852031
-0.000904874
-0.000957356
-0.00100893
-0.00105897
-0.00110671
-0.00115132
-0.00119188
-0.00122736
-0.00125672
-0.00127885
-0.00129265
-0.00129709
-0.0012912
-0.00127413
-0.00124523
-0.00120409
-0.00115054
-0.00108477
-0.00100728
-0.000918876
-0.000821244
-0.000715798
-0.000604702
-0.000490454
-0.000375867
-0.000264018
-0.000158172
-6.16973e-05
2.20395e-05
8.97833e-05
0.000138503
0.000165506
0.000168552
0.000145944
9.66114e-05
2.0172e-05
-8.30382e-05
-0.000211961
-0.000364844
-0.0005393
-0.000732389
-0.000940733
-0.00116065
-0.00138828
-0.00161974
-0.00185128
-0.00207936
-0.00230083
-0.00251291
-0.00271337
-0.00290045
-0.00307293
-0.00323008
-0.00337161
-0.00349766
-0.00360864
-0.00370525
-0.00378836
-0.00385893
-0.00391794
-0.00396634
-0.00400497
-0.00403452
-0.00405544
-0.00406792
-0.00407181
-0.00406687
-0.00405287
-0.00402525
-0.00397355
0.000137751
0.000118592
0.000101774
8.48919e-05
6.71444e-05
4.87114e-05
2.95855e-05
9.62895e-06
-1.13239e-05
-3.3452e-05
-5.6938e-05
-8.19548e-05
-0.000108657
-0.000137173
-0.000167606
-0.000200028
-0.00023449
-0.000271024
-0.000309643
-0.000350353
-0.000393152
-0.000438035
-0.000484993
-0.000534009
-0.000585058
-0.000638092
-0.000693034
-0.000749764
-0.000808105
-0.000867806
-0.00092853
-0.000989841
-0.00105119
-0.00111191
-0.0011712
-0.00122816
-0.00128175
-0.00133084
-0.00137423
-0.00141067
-0.00143888
-0.00145762
-0.00146574
-0.0014622
-0.00144614
-0.00141695
-0.00137429
-0.00131818
-0.00124892
-0.00116712
-0.00107459
-0.00097245
-0.000862852
-0.000748269
-0.000631523
-0.000515739
-0.000404271
-0.000300614
-0.000208301
-0.000130791
-7.13502e-05
-3.29325e-05
-1.80595e-05
-2.87161e-05
-6.62585e-05
-0.000131341
-0.000223873
-0.000343002
-0.000487138
-0.000653996
-0.000840685
-0.00104381
-0.00125963
-0.00148415
-0.00171335
-0.00194327
-0.00217019
-0.00239072
-0.00260194
-0.00280141
-0.00298725
-0.00315815
-0.00331332
-0.00345245
-0.00357571
-0.00368358
-0.00377683
-0.00385645
-0.0039235
-0.0039791
-0.00402431
-0.00406006
-0.00408711
-0.00410597
-0.00411684
-0.00411954
-0.00411378
-0.00409921
-0.00407121
-0.0040192
0.00017076
0.000145932
0.000125634
0.000106415
8.70062e-05
6.75164e-05
4.78289e-05
2.76806e-05
6.79521e-06
-1.5102e-05
-3.82773e-05
-6.29756e-05
-8.94129e-05
-0.000117773
-0.000148204
-0.00018083
-0.000215745
-0.00025303
-0.000292752
-0.000334976
-0.000379765
-0.000427185
-0.000477304
-0.000530187
-0.000585891
-0.000644454
-0.000705879
-0.000770118
-0.000837055
-0.00090649
-0.000978113
-0.0010515
-0.00112608
-0.00120114
-0.00127583
-0.00134912
-0.00141987
-0.00148679
-0.00154851
-0.00160356
-0.00165047
-0.00168778
-0.00171408
-0.00172809
-0.00172873
-0.00171512
-0.0016867
-0.00164326
-0.00158491
-0.00151213
-0.00142632
-0.00132867
-0.00122123
-0.00110636
-0.000986876
-0.000865921
-0.000746926
-0.000633514
-0.0005294
-0.000438277
-0.000363694
-0.000308927
-0.000276859
-0.000269854
-0.000289657
-0.00033731
-0.000413081
-0.000516444
-0.000646083
-0.000799923
-0.00097521
-0.00116862
-0.00137637
-0.00159442
-0.00181858
-0.00204469
-0.0022688
-0.00248729
-0.00269696
-0.00289517
-0.00307983
-0.00324944
-0.0034031
-0.00354045
-0.00366157
-0.003767
-0.00385755
-0.00393427
-0.00399834
-0.00405098
-0.00409336
-0.00412651
-0.0041513
-0.00416829
-0.00417773
-0.00417947
-0.00417319
-0.00415853
-0.00413092
-0.00408003
0.00020394
0.000173084
0.000149084
0.000127379
0.000106193
8.55479e-05
6.52027e-05
4.47533e-05
2.38014e-05
1.96739e-06
-2.11059e-05
-4.57423e-05
-7.22269e-05
-0.000100805
-0.000131684
-0.000165043
-0.000201039
-0.000239813
-0.000281502
-0.000326248
-0.000374196
-0.000425504
-0.000480336
-0.00053886
-0.000601234
-0.000667594
-0.000738039
-0.000812604
-0.000891243
-0.000973804
-0.00106001
-0.00114943
-0.00124147
-0.00133536
-0.00143016
-0.00152471
-0.00161772
-0.00170771
-0.0017931
-0.00187219
-0.00194325
-0.00200454
-0.00205436
-0.00209115
-0.0021135
-0.00212026
-0.00211056
-0.00208388
-0.00204007
-0.00197944
-0.00190301
-0.00181184
-0.00170781
-0.00159319
-0.0014707
-0.00134349
-0.00121504
-0.00108909
-0.00096954
-0.000860349
-0.000765389
-0.000688329
-0.000632492
-0.000600727
-0.00059529
-0.00061774
-0.000668853
-0.000748577
-0.000856017
-0.000989452
-0.0011464
-0.00132369
-0.00151764
-0.00172417
-0.00193898
-0.00215772
-0.00237621
-0.00259051
-0.00279715
-0.00299316
-0.00317617
-0.00334444
-0.00349685
-0.00363287
-0.00375252
-0.00385625
-0.00394488
-0.00401949
-0.00408132
-0.00413168
-0.00417183
-0.00420293
-0.00422591
-0.00424144
-0.00424984
-0.004251
-0.00424463
-0.00423039
-0.00420389
-0.00415531
0.000236131
0.000198901
0.000171014
0.000146711
0.000123666
0.000101794
8.07122e-05
5.98601e-05
3.87043e-05
1.67505e-05
-6.45747e-06
-3.13302e-05
-5.82295e-05
-8.74722e-05
-0.000119336
-0.000154068
-0.000191899
-0.000233053
-0.000277754
-0.000326239
-0.000378763
-0.000435597
-0.000497024
-0.000563337
-0.000634818
-0.000711722
-0.000794258
-0.000882558
-0.000976653
-0.00107645
-0.00118169
-0.00129194
-0.00140657
-0.00152474
-0.00164538
-0.00176719
-0.00188868
-0.00200817
-0.0021238
-0.00223361
-0.00233554
-0.00242752
-0.00250752
-0.00257361
-0.002624
-0.00265717
-0.00267187
-0.00266723
-0.00264272
-0.00259838
-0.00253495
-0.00245297
-0.00235431
-0.002241
-0.00211567
-0.00198137
-0.00184162
-0.00170025
-0.00156134
-0.00142913
-0.00130785
-0.00120161
-0.00111428
-0.00104929
-0.00100953
-0.000997243
-0.00101387
-0.00106002
-0.0011354
-0.00123883
-0.00136825
-0.00152085
-0.00169313
-0.00188108
-0.00208037
-0.0022865
-0.00249503
-0.00270173
-0.00290274
-0.00309472
-0.00327492
-0.00344126
-0.00359231
-0.00372728
-0.00384598
-0.00394874
-0.00403629
-0.00410969
-0.00417021
-0.00421918
-0.00425795
-0.00428775
-0.00430962
-0.00432432
-0.00433224
-0.00433335
-0.00432742
-0.00431413
-0.00428939
-0.00424403
0.000266052
0.000222134
0.000190202
0.000163222
0.000138262
0.00011511
9.3223e-05
7.18662e-05
5.03576e-05
2.80774e-05
4.46142e-06
-2.09963e-05
-4.87441e-05
-7.91809e-05
-0.000112666
-0.000149534
-0.000190106
-0.000234706
-0.000283671
-0.000337361
-0.000396163
-0.00046049
-0.000530775
-0.000607459
-0.000690975
-0.00078172
-0.000880031
-0.000986153
-0.00110021
-0.00122215
-0.00135177
-0.0014886
-0.00163198
-0.00178095
-0.0019343
-0.00209057
-0.00224803
-0.00240473
-0.00255851
-0.00270706
-0.00284796
-0.00297874
-0.00309694
-0.00320018
-0.00328625
-0.00335315
-0.00339918
-0.003423
-0.00342369
-0.00340088
-0.00335496
-0.00328563
-0.00319502
-0.00308479
-0.0029573
-0.0028155
-0.00266287
-0.00250329
-0.00234103
-0.00218057
-0.00202654
-0.00188355
-0.00175604
-0.00164815
-0.00156355
-0.0015053
-0.00147571
-0.00147624
-0.00150743
-0.00156885
-0.00165912
-0.00177594
-0.00191622
-0.00207618
-0.00225155
-0.00243777
-0.00263016
-0.00282417
-0.00301555
-0.00320049
-0.00337579
-0.00353887
-0.00368788
-0.00382167
-0.00393973
-0.00404213
-0.00412945
-0.00420262
-0.00426285
-0.00431149
-0.00434991
-0.0043794
-0.00440107
-0.00441575
-0.00442393
-0.00442566
-0.00442076
-0.00440896
-0.00438654
-0.00434509
0.000292315
0.000241424
0.000205316
0.0001756
0.000148688
0.000124215
0.000101455
7.94824e-05
5.74517e-05
3.46063e-05
1.02634e-05
-1.61884e-05
-4.52948e-05
-7.75508e-05
-0.000113413
-0.00015332
-0.000197706
-0.000247022
-0.000301745
-0.000362385
-0.000429494
-0.000503662
-0.0005855
-0.000675632
-0.000774668
-0.000883175
-0.00100164
-0.00113044
-0.00126979
-0.00141972
-0.00158003
-0.00175025
-0.00192963
-0.0021171
-0.00231129
-0.0025105
-0.00271273
-0.0029157
-0.00311689
-0.00331358
-0.00350291
-0.00368191
-0.00384763
-0.00399717
-0.00412776
-0.00423687
-0.00432226
-0.00438205
-0.00441482
-0.00441949
-0.00439539
-0.00434405
-0.00426521
-0.00416055
-0.00403225
-0.00388311
-0.0037165
-0.00353632
-0.00334693
-0.00315309
-0.00295977
-0.00277211
-0.00259518
-0.0024339
-0.00229282
-0.00217597
-0.00208673
-0.00202763
-0.00200028
-0.00200527
-0.00204216
-0.00210945
-0.00220468
-0.00232453
-0.00246497
-0.0026215
-0.0027893
-0.00296353
-0.0031395
-0.00331289
-0.0034799
-0.00363738
-0.00378292
-0.00391483
-0.00403215
-0.00413458
-0.00422238
-0.00429627
-0.00435733
-0.00440681
-0.00444606
-0.00447638
-0.00449892
-0.00451458
-0.0045239
-0.00452702
-0.00452382
-0.00451409
-0.00449447
-0.0044574
0.000313413
0.000255294
0.000214901
0.000182409
0.00015352
0.000127689
0.000103983
8.12649e-05
5.85129e-05
3.48209e-05
9.37658e-06
-1.85494e-05
-4.96149e-05
-8.44242e-05
-0.000123552
-0.000167563
-0.000217032
-0.000272564
-0.000334807
-0.000404461
-0.000482279
-0.00056906
-0.000665634
-0.000772844
-0.000891509
-0.00102239
-0.00116616
-0.00132333
-0.00149423
-0.00167897
-0.00187735
-0.00208888
-0.00231271
-0.00254761
-0.00279201
-0.00304392
-0.00330101
-0.00356061
-0.00381976
-0.00407524
-0.00432365
-0.00456146
-0.00478512
-0.00499112
-0.00517607
-0.00533678
-0.00547039
-0.00557443
-0.00564686
-0.00568608
-0.00569103
-0.00566188
-0.00559878
-0.00550283
-0.0053758
-0.00522021
-0.00503925
-0.00483675
-0.00461712
-0.00438529
-0.00414656
-0.00390654
-0.00367097
-0.00344556
-0.00323582
-0.0030469
-0.00288336
-0.00274904
-0.00264688
-0.00257878
-0.00254555
-0.00254681
-0.00258107
-0.00264574
-0.00273732
-0.00285155
-0.00298364
-0.00312853
-0.00328111
-0.0034365
-0.00359024
-0.00373847
-0.00387804
-0.00400657
-0.00412247
-0.00422489
-0.00431364
-0.00438909
-0.00445205
-0.00450359
-0.00454495
-0.00457738
-0.00460202
-0.00461978
-0.00463126
-0.00463664
-0.00463587
-0.00462877
-0.00461237
-0.00457996
0.00032772
0.000262147
0.000217385
0.00018209
0.000151206
0.000123975
9.92342e-05
7.5615e-05
5.19045e-05
2.7033e-05
4.45042e-08
-2.99197e-05
-6.36457e-05
-0.000101869
-0.000145304
-0.000194666
-0.000250702
-0.000314208
-0.000386041
-0.000467129
-0.000558466
-0.000661108
-0.000776142
-0.000904666
-0.00104775
-0.00120637
-0.00138141
-0.00157355
-0.00178324
-0.00201063
-0.00225555
-0.00251744
-0.00279532
-0.00308779
-0.00339296
-0.00370853
-0.00403174
-0.00435945
-0.00468816
-0.00501405
-0.00533309
-0.00564111
-0.00593385
-0.00620709
-0.00645675
-0.00667894
-0.00687009
-0.00702704
-0.00714711
-0.00722811
-0.00726847
-0.00726747
-0.00722497
-0.00714158
-0.00701867
-0.0068584
-0.00666368
-0.00643817
-0.00618624
-0.00591289
-0.00562366
-0.00532456
-0.00502191
-0.0047222
-0.00443193
-0.00415738
-0.00390447
-0.00367849
-0.00348396
-0.00332437
-0.00320213
-0.00311836
-0.0030729
-0.00306432
-0.00308996
-0.00314615
-0.00322835
-0.00333145
-0.00345002
-0.00357863
-0.00371208
-0.00384569
-0.0039754
-0.00409796
-0.00421093
-0.00431272
-0.0044025
-0.0044801
-0.00454591
-0.0046007
-0.00464549
-0.00468138
-0.00470944
-0.00473054
-0.00474528
-0.00475388
-0.00475632
-0.00475243
-0.0047396
-0.00471195
0.000333484
0.000260267
0.000211074
0.000172963
0.000140065
0.000111381
8.54946e-05
6.07839e-05
3.58278e-05
9.38168e-06
-1.96693e-05
-5.23326e-05
-8.95389e-05
-0.000132178
-0.000181128
-0.000237293
-0.000301625
-0.00037515
-0.000458977
-0.000554308
-0.000662429
-0.000784692
-0.000922491
-0.00107722
-0.00125023
-0.00144276
-0.00165591
-0.00189054
-0.00214721
-0.00242613
-0.00272712
-0.00304951
-0.00339215
-0.00375336
-0.00413091
-0.00452205
-0.00492352
-0.00533159
-0.00574211
-0.00615058
-0.00655223
-0.00694211
-0.00731522
-0.00766655
-0.00799124
-0.00828467
-0.00854253
-0.00876095
-0.00893656
-0.00906656
-0.00914881
-0.00918188
-0.00916516
-0.00909873
-0.00898351
-0.00882123
-0.00861446
-0.00836657
-0.00808177
-0.00776499
-0.00742188
-0.0070587
-0.00668222
-0.00629962
-0.00591827
-0.00554562
-0.00518893
-0.00485507
-0.00455028
-0.00427996
-0.00404841
-0.00385865
-0.00371232
-0.00360958
-0.00354911
-0.00352822
-0.00354302
-0.00358862
-0.00365949
-0.00374971
-0.00385338
-0.00396485
-0.00407905
-0.00419162
-0.00429906
-0.00439877
-0.00448906
-0.00456901
-0.00463839
-0.0046975
-0.00474698
-0.00478771
-0.00482055
-0.0048463
-0.00486549
-0.00487832
-0.00488477
-0.00488468
-0.00487574
-0.00485284
0.000328836
0.000247825
0.000194158
0.000153227
0.000118292
8.8087e-05
6.09117e-05
3.48766e-05
8.33249e-06
-2.01575e-05
-5.18801e-05
-8.80096e-05
-0.000129646
-0.000177857
-0.000233722
-0.000298365
-0.000372986
-0.000458885
-0.000557476
-0.000670283
-0.000798931
-0.000945125
-0.00111061
-0.00129711
-0.00150631
-0.00173972
-0.00199868
-0.00228422
-0.00259702
-0.00293732
-0.00330486
-0.00369883
-0.00411781
-0.00455976
-0.005022
-0.00550123
-0.00599355
-0.00649452
-0.00699924
-0.00750239
-0.00799837
-0.0084814
-0.00894561
-0.00938519
-0.00979448
-0.0101681
-0.010501
-0.0107886
-0.011027
-0.0112126
-0.0113428
-0.0114155
-0.0114297
-0.0113849
-0.0112814
-0.0111207
-0.0109047
-0.0106366
-0.0103201
-0.00996006
-0.00956199
-0.00913222
-0.00867778
-0.0082063
-0.0077259
-0.00724499
-0.00677214
-0.00631576
-0.00588393
-0.00548407
-0.00512267
-0.00480504
-0.00453507
-0.00431504
-0.00414553
-0.00402539
-0.00395187
-0.00392079
-0.00392682
-0.00396381
-0.00402521
-0.00410445
-0.00419526
-0.004292
-0.00438985
-0.00448495
-0.00457442
-0.00465634
-0.00472962
-0.00479388
-0.00484922
-0.0048961
-0.00493511
-0.00496684
-0.0049917
-0.00500982
-0.00502113
-0.00502543
-0.00502069
-0.00500246
0.000311792
0.000222885
0.000164727
0.000120975
8.39724e-05
5.21533e-05
2.35102e-05
-4.13698e-06
-3.26786e-05
-6.37614e-05
-9.88639e-05
-0.000139348
-0.000186507
-0.00024162
-0.000306002
-0.000381039
-0.000468227
-0.000569192
-0.000685701
-0.000819658
-0.000973084
-0.00114808
-0.00134679
-0.00157133
-0.00182371
-0.00210576
-0.00241904
-0.00276477
-0.00314369
-0.00355602
-0.00400137
-0.00447868
-0.00498616
-0.00552129
-0.00608082
-0.00666073
-0.00725637
-0.00786246
-0.00847318
-0.00908233
-0.00968337
-0.0102696
-0.0108343
-0.0113709
-0.0118728
-0.0123339
-0.0127486
-0.0131117
-0.0134185
-0.0136652
-0.0138484
-0.0139657
-0.0140153
-0.0139965
-0.0139092
-0.0137541
-0.0135329
-0.013248
-0.012903
-0.0125022
-0.0120509
-0.0115551
-0.011022
-0.0104592
-0.00987548
-0.00927986
-0.00868196
-0.00809163
-0.00751866
-0.00697255
-0.00646216
-0.00599535
-0.00557868
-0.00521709
-0.00491366
-0.00466949
-0.00448362
-0.0043532
-0.00427363
-0.00423895
-0.00424223
-0.00427603
-0.00433288
-0.00440568
-0.00448804
-0.00457453
-0.00466078
-0.00474352
-0.0048205
-0.00489038
-0.00495251
-0.00500676
-0.00505326
-0.0050923
-0.00512406
-0.00514855
-0.00516559
-0.0051749
-0.00517464
-0.00516096
0.000280271
0.000183419
0.000120773
7.42042e-05
3.50908e-05
1.53451e-06
-2.88001e-05
-5.84046e-05
-8.94288e-05
-0.000123745
-0.000163045
-0.0002089
-0.00026283
-0.000326359
-0.000401077
-0.000488681
-0.000591014
-0.000710082
-0.000848065
-0.0010073
-0.00119026
-0.00139951
-0.00163761
-0.00190709
-0.00221035
-0.00254951
-0.00292636
-0.00334224
-0.00379792
-0.00429352
-0.00482841
-0.00540115
-0.00600946
-0.00665019
-0.00731931
-0.00801198
-0.00872261
-0.00944494
-0.0101722
-0.010897
-0.0116121
-0.0123096
-0.0129821
-0.013622
-0.0142222
-0.0147759
-0.0152769
-0.0157195
-0.0160985
-0.0164098
-0.0166496
-0.0168149
-0.0169035
-0.0169146
-0.0168476
-0.0167026
-0.0164808
-0.0161841
-0.0158155
-0.0153788
-0.0148787
-0.0143209
-0.0137122
-0.0130601
-0.0123733
-0.0116614
-0.0109344
-0.0102035
-0.00947976
-0.0087747
-0.00809947
-0.00746463
-0.00687969
-0.00635274
-0.00588996
-0.00549542
-0.00517078
-0.0049153
-0.00472588
-0.00459737
-0.00452292
-0.00449455
-0.00450368
-0.00454168
-0.00460037
-0.00467243
-0.00475163
-0.00483298
-0.00491272
-0.0049882
-0.00505774
-0.00512035
-0.00517555
-0.00522317
-0.00526307
-0.005295
-0.00531865
-0.00533361
-0.00533817
-0.00532894
0.000232104
0.00012732
6.02141e-05
1.08327e-05
-3.04517e-05
-6.59014e-05
-9.8203e-05
-0.000130177
-0.000164249
-0.000202539
-0.000246969
-0.000299353
-0.000361463
-0.000435114
-0.000522215
-0.000624825
-0.000745188
-0.000885751
-0.00104917
-0.00123826
-0.00145602
-0.00170548
-0.00198971
-0.00231167
-0.0026741
-0.00307943
-0.00352965
-0.00402616
-0.00456965
-0.00516001
-0.00579626
-0.00647642
-0.00719754
-0.00795562
-0.00874574
-0.00956201
-0.0103978
-0.0112456
-0.0120977
-0.0129457
-0.013781
-0.0145952
-0.0153798
-0.0161266
-0.0168279
-0.0174763
-0.0180653
-0.0185887
-0.0190412
-0.0194183
-0.0197161
-0.0199312
-0.0200607
-0.0201048
-0.0200617
-0.0199311
-0.0197136
-0.0194108
-0.019025
-0.0185592
-0.0180176
-0.0174051
-0.0167278
-0.0159928
-0.0152085
-0.014384
-0.01353
-0.0126578
-0.0117798
-0.0109089
-0.0100583
-0.00924117
-0.00847009
-0.00775652
-0.00711031
-0.00653916
-0.00604824
-0.00563985
-0.00531338
-0.00506535
-0.00488979
-0.00477871
-0.00472273
-0.00471179
-0.00473582
-0.00478534
-0.00485188
-0.0049283
-0.00500886
-0.00508923
-0.00516632
-0.00523808
-0.00530297
-0.00536034
-0.00540955
-0.00545002
-0.00548118
-0.00550245
-0.00551218
-0.00550738
0.000165061
5.24236e-05
-1.90858e-05
-7.12774e-05
-0.000114815
-0.000152353
-0.000186952
-0.000221779
-0.000259553
-0.000302658
-0.000353275
-0.000413486
-0.000485359
-0.000571034
-0.000672795
-0.000793115
-0.000934701
-0.0011005
-0.00129369
-0.00151766
-0.00177592
-0.00207208
-0.00240968
-0.00279211
-0.0032225
-0.00370351
-0.00423723
-0.00482505
-0.00546745
-0.00616396
-0.00691302
-0.00771195
-0.00855689
-0.00944285
-0.0103638
-0.0113126
-0.0122813
-0.0132615
-0.0142439
-0.0152193
-0.0161782
-0.017111
-0.0180087
-0.0188625
-0.0196643
-0.0204063
-0.0210817
-0.0216843
-0.0222088
-0.0226503
-0.0230052
-0.0232697
-0.0234399
-0.0235197
-0.0235031
-0.0233903
-0.023182
-0.022879
-0.0224831
-0.0219965
-0.0214226
-0.0207654
-0.0200301
-0.0192229
-0.0183513
-0.017424
-0.0164511
-0.0154439
-0.0144152
-0.0133788
-0.0123494
-0.0113424
-0.0103732
-0.00945672
-0.00860664
-0.00783493
-0.00715103
-0.00656131
-0.00606874
-0.00567271
-0.00536915
-0.00515094
-0.00500856
-0.00493087
-0.00490597
-0.00492205
-0.00496806
-0.00503425
-0.00511244
-0.00519608
-0.00528023
-0.00536125
-0.00543684
-0.00550505
-0.00556469
-0.00561475
-0.00565433
-0.00568263
-0.00569797
-0.00569768
7.68813e-05
-4.34611e-05
-0.000119293
-0.000174294
-0.000220192
-0.000260057
-0.000297344
-0.000335581
-0.000377801
-0.00042667
-0.000484655
-0.000554138
-0.000637523
-0.000737325
-0.00085625
-0.000997247
-0.00116354
-0.00135864
-0.00158632
-0.00185055
-0.00215545
-0.00250516
-0.00290376
-0.00335505
-0.00386245
-0.00442882
-0.00505625
-0.00574595
-0.00649804
-0.00731147
-0.00818393
-0.00911177
-0.01009
-0.0111125
-0.0121718
-0.0132594
-0.0143662
-0.0154823
-0.0165974
-0.017701
-0.0187829
-0.0198327
-0.020841
-0.0217984
-0.0226965
-0.0235277
-0.024285
-0.0249623
-0.0255544
-0.0260566
-0.0264652
-0.0267777
-0.0269929
-0.0271035
-0.0271133
-0.0270208
-0.0268256
-0.0265281
-0.0261293
-0.0256309
-0.025035
-0.024345
-0.0235648
-0.0226994
-0.0217551
-0.0207396
-0.0196619
-0.0185326
-0.0173642
-0.0161706
-0.0149674
-0.0137712
-0.0125999
-0.0114713
-0.0104031
-0.00941168
-0.00851131
-0.00771339
-0.00702563
-0.00645158
-0.00599044
-0.00563722
-0.00538326
-0.00521703
-0.00512521
-0.00509367
-0.00510856
-0.00515708
-0.00522805
-0.00531221
-0.0054022
-0.00549248
-0.00557903
-0.0056589
-0.00572998
-0.00579065
-0.00583958
-0.00587564
-0.00589715
-0.00590159
-3.47061e-05
-0.000162527
-0.000242572
-0.000300388
-0.000348777
-0.000391252
-0.000431679
-0.000473963
-0.000521463
-0.000577153
-0.000643812
-0.000724157
-0.000820969
-0.000937187
-0.001076
-0.00124088
-0.00143564
-0.0016644
-0.00193158
-0.00224178
-0.00259975
-0.00301019
-0.00347766
-0.00400634
-0.00459989
-0.00526121
-0.00599228
-0.00679393
-0.00766573
-0.00860581
-0.00961084
-0.010676
-0.011795
-0.0129601
-0.0141625
-0.0153923
-0.0166389
-0.017891
-0.0191373
-0.0203664
-0.0215671
-0.0227288
-0.0238414
-0.0248956
-0.0258829
-0.0267958
-0.0276276
-0.0283724
-0.0290254
-0.0295823
-0.0300396
-0.0303949
-0.0306466
-0.0307911
-0.0308283
-0.0307576
-0.0305787
-0.0302915
-0.0298966
-0.0293948
-0.0287877
-0.0280773
-0.0272664
-0.0263588
-0.0253592
-0.0242738
-0.0231102
-0.0218776
-0.0205874
-0.0192527
-0.0178889
-0.0165134
-0.0151451
-0.0138044
-0.0125122
-0.0112892
-0.0101548
-0.00912594
-0.00821614
-0.00743449
-0.00678496
-0.00626628
-0.00587208
-0.00559163
-0.00541089
-0.00531385
-0.00528379
-0.00530456
-0.00536147
-0.00544187
-0.00553541
-0.00563402
-0.00573163
-0.00582377
-0.00590718
-0.00597945
-0.00603868
-0.00608333
-0.00611158
-0.00612122
-0.000171939
-0.00030693
-0.000391054
-0.000451693
-0.000502733
-0.00054815
-0.000592231
-0.000639273
-0.000692978
-0.000756649
-0.000833406
-0.000926339
-0.00103865
-0.00117375
-0.00133536
-0.00152755
-0.00175476
-0.00202179
-0.00233372
-0.00269583
-0.0031135
-0.00359197
-0.00413625
-0.00475081
-0.00543943
-0.00620492
-0.00704893
-0.00797171
-0.00897202
-0.0100469
-0.0111918
-0.0124005