/*--------------------------------*- C++ -*----------------------------------*\
  =========                 |
  \\      /  F ield         | OpenFOAM: The Open Source CFD Toolbox
   \\    /   O peration     | Website:  https://openfoam.org
    \\  /    A nd           | Version:  9
     \\/     M anipulation  |
\*---------------------------------------------------------------------------*/
FoamFile
{
    format      ascii;
    class       surfaceScalarField;
    location    "1.5";
    object      phi;
}
// * * * * * * * * * * * * * * * * * * * * * * * * * * * * * * * * * * * * * //

dimensions      [0 3 -1 0 0 0 0];

internalField   nonuniform List<scalar> 
19800
(
1.29e-10
-1.29088e-10
4.35363e-10
-3.06364e-10
7.78027e-10
-3.42662e-10
1.06327e-09
-2.85236e-10
1.24484e-09
-1.81577e-10
1.30586e-09
-6.10201e-11
1.24606e-09
5.97955e-11
1.07374e-09
1.72331e-10
8.00428e-10
2.73309e-10
4.37743e-10
3.62687e-10
-4.54634e-12
4.42292e-10
-5.19459e-10
5.14915e-10
-1.10316e-09
5.83705e-10
-1.75494e-09
6.51771e-10
-2.47686e-09
7.21923e-10
-3.27338e-09
7.96524e-10
-4.1508e-09
8.77425e-10
-5.11675e-09
9.65954e-10
-6.17969e-09
1.06294e-09
-7.34846e-09
1.16877e-09
-8.63189e-09
1.28343e-09
-1.00385e-08
1.4066e-09
-1.15762e-08
1.53768e-09
-1.3252e-08
1.67583e-09
-1.5072e-08
1.82003e-09
-1.70411e-08
1.96908e-09
-1.91627e-08
2.12157e-09
-2.14386e-08
2.27588e-09
-2.38688e-08
2.4302e-09
-2.64512e-08
2.58242e-09
-2.91814e-08
2.73019e-09
-3.20522e-08
2.87083e-09
-3.50536e-08
3.00139e-09
-3.81722e-08
3.11858e-09
-4.13911e-08
3.21887e-09
-4.46895e-08
3.29845e-09
-4.80429e-08
3.35335e-09
-5.14223e-08
3.37946e-09
-5.4795e-08
3.37266e-09
-5.81239e-08
3.3289e-09
-6.13682e-08
3.24434e-09
-6.44837e-08
3.11548e-09
-6.7423e-08
2.93927e-09
-7.01363e-08
2.71332e-09
-7.25723e-08
2.43599e-09
-7.46789e-08
2.10656e-09
-7.64042e-08
1.72537e-09
-7.76982e-08
1.29396e-09
-7.85136e-08
8.1541e-10
-7.88078e-08
2.94154e-10
-7.85408e-08
-2.67008e-10
-7.76825e-08
-8.58291e-10
-7.621e-08
-1.47241e-09
-7.41101e-08
-2.09999e-09
-7.13794e-08
-2.73061e-09
-6.80264e-08
-3.35301e-09
-6.40712e-08
-3.95527e-09
-5.9546e-08
-4.5252e-09
-5.44953e-08
-5.05062e-09
-4.89756e-08
-5.51976e-09
-4.3054e-08
-5.92162e-09
-3.68075e-08
-6.24641e-09
-3.03217e-08
-6.48586e-09
-2.36881e-08
-6.63362e-09
-1.70026e-08
-6.68549e-09
-1.03629e-08
-6.63969e-09
-3.86589e-09
-6.49696e-09
2.39476e-09
-6.26065e-09
8.33136e-09
-5.93659e-09
1.38641e-08
-5.5327e-09
1.89233e-08
-5.05928e-09
2.34514e-08
-4.52809e-09
2.74036e-08
-3.95215e-09
3.07488e-08
-3.34521e-09
3.347e-08
-2.72122e-09
3.55639e-08
-2.09384e-09
3.70398e-08
-1.47592e-09
3.79189e-08
-8.79152e-10
3.82326e-08
-3.13653e-10
3.80204e-08
2.12244e-10
3.73282e-08
6.92155e-10
3.62065e-08
1.12173e-09
3.47079e-08
1.49854e-09
3.2886e-08
1.82197e-09
3.0793e-08
2.09298e-09
2.84792e-08
2.31378e-09
2.59918e-08
2.48742e-09
2.33745e-08
2.6173e-09
2.06679e-08
2.70655e-09
1.79106e-08
2.75737e-09
1.51404e-08
2.77017e-09
1.23977e-08
2.74264e-09
9.72908e-09
2.66867e-09
7.19185e-09
2.53724e-09
4.86038e-09
2.33146e-09
2.83166e-09
2.02873e-09
1.22717e-09
1.60449e-09
1.82988e-10
1.04418e-09
-1.98155e-10
3.81143e-10
-1.98157e-10
3.1113e-10
-4.40218e-10
8.62987e-10
-8.58227e-10
1.41284e-09
-8.92526e-10
1.80314e-09
-6.75531e-10
1.94186e-09
-3.20284e-10
1.78713e-09
9.37197e-11
1.33018e-09
5.16749e-10
5.81727e-10
9.20783e-10
-4.38201e-10
1.29324e-09
-1.70759e-09
1.63207e-09
-3.20704e-09
1.94174e-09
-4.92249e-09
2.23037e-09
-6.84653e-09
2.50775e-09
-8.97869e-09
2.78394e-09
-1.1325e-08
3.06822e-09
-1.38971e-08
3.36859e-09
-1.6711e-08
3.6914e-09
-1.97863e-08
4.04123e-09
-2.31443e-08
4.42096e-09
-2.68074e-08
4.83187e-09
-3.07978e-08
5.2738e-09
-3.51365e-08
5.74536e-09
-3.9843e-08
6.24409e-09
-4.49337e-08
6.76658e-09
-5.04223e-08
7.3086e-09
-5.63183e-08
7.86511e-09
-6.2627e-08
8.43029e-09
-6.93486e-08
8.99749e-09
-7.64776e-08
9.55918e-09
-8.40021e-08
1.01069e-08
-9.19031e-08
1.06313e-08
-1.00154e-07
1.11218e-08
-1.0872e-07
1.15671e-08
-1.17556e-07
1.19548e-08
-1.26609e-07
1.22717e-08
-1.35815e-07
1.25042e-08
-1.45099e-07
1.26381e-08
-1.54379e-07
1.2659e-08
-1.63559e-07
1.25531e-08
-1.72537e-07
1.23071e-08
-1.81202e-07
1.19086e-08
-1.89433e-07
1.13471e-08
-1.97108e-07
1.06139e-08
-2.04098e-07
9.70278e-09
-2.10272e-07
8.61059e-09
-2.15503e-07
7.33748e-09
-2.19665e-07
5.88736e-09
-2.22639e-07
4.26821e-09
-2.24317e-07
2.49271e-09
-2.24602e-07
5.79767e-10
-2.23411e-07
-1.45844e-09
-2.20679e-07
-3.59022e-09
-2.16365e-07
-5.78617e-09
-2.1045e-07
-8.01471e-09
-2.02941e-07
-1.02404e-08
-1.93868e-07
-1.24254e-08
-1.83293e-07
-1.45302e-08
-1.71303e-07
-1.65152e-08
-1.58013e-07
-1.83407e-08
-1.43564e-07
-1.99689e-08
-1.28121e-07
-2.13649e-08
-1.1187e-07
-2.24974e-08
-9.50157e-08
-2.334e-08
-7.77767e-08
-2.38726e-08
-6.03806e-08
-2.40816e-08
-4.30594e-08
-2.39609e-08
-2.60441e-08
-2.35122e-08
-9.5594e-09
-2.27454e-08
6.18196e-09
-2.1678e-08
2.09841e-08
-2.03349e-08
3.46723e-08
-1.87475e-08
4.70974e-08
-1.69531e-08
5.81382e-08
-1.4993e-08
6.77046e-08
-1.29116e-08
7.57377e-08
-1.07543e-08
8.22102e-08
-8.56642e-09
8.71258e-08
-6.39148e-09
9.05164e-08
-4.26979e-09
9.244e-08
-2.23725e-09
9.29767e-08
-3.24416e-10
9.22249e-08
1.44397e-09
9.02969e-08
3.04977e-09
8.73145e-08
4.48091e-09
8.34051e-08
5.73135e-09
7.86977e-08
6.80037e-09
7.33199e-08
7.69154e-09
6.73959e-08
8.41145e-09
6.10451e-08
8.9681e-09
5.43827e-08
9.36894e-09
4.75215e-08
9.61864e-09
4.0575e-08
9.7166e-09
3.36634e-08
9.65425e-09
2.69197e-08
9.41245e-09
2.04975e-08
8.95939e-09
1.45788e-08
8.25017e-09
9.37678e-09
7.23076e-09
5.12909e-09
5.85217e-09
2.07204e-09
4.10124e-09
3.87363e-10
2.06582e-09
1.89209e-10
3.52064e-10
-7.9228e-10
8.98947e-10
-1.4051e-09
1.34812e-09
-1.34171e-09
1.51709e-09
-8.44496e-10
1.29748e-09
-1.00677e-10
6.38164e-10
7.53046e-10
-4.73717e-10
1.62863e-09
-2.0267e-09
2.47377e-09
-3.99757e-09
3.26411e-09
-6.36005e-09
3.99456e-09
-9.09102e-09
4.6727e-09
-1.21743e-08
5.3136e-09
-1.56024e-08
5.93592e-09
-1.93775e-08
6.55907e-09
-2.35106e-08
7.20128e-09
-2.80203e-08
7.87831e-09
-3.29317e-08
8.60276e-09
-3.82741e-08
9.3837e-09
-4.40799e-08
1.02267e-08
-5.03821e-08
1.11341e-08
-5.72134e-08
1.21051e-08
-6.46042e-08
1.31362e-08
-7.25818e-08
1.42217e-08
-8.11688e-08
1.53536e-08
-9.03823e-08
1.65221e-08
-1.00233e-07
1.77155e-08
-1.10723e-07
1.89203e-08
-1.21846e-07
2.01212e-08
-1.33588e-07
2.1301e-08
-1.45922e-07
2.24405e-08
-1.58809e-07
2.35188e-08
-1.722e-07
2.45125e-08
-1.8603e-07
2.5397e-08
-2.00221e-07
2.61456e-08
-2.1468e-07
2.67305e-08
-2.29298e-07
2.7123e-08
-2.43955e-07
2.72944e-08
-2.58511e-07
2.72159e-08
-2.72818e-07
2.68602e-08
-2.86713e-07
2.62019e-08
-3.00023e-07
2.52185e-08
-3.12567e-07
2.38911e-08
-3.24159e-07
2.22057e-08
-3.3461e-07
2.01537e-08
-3.43732e-07
1.77327e-08
-3.51342e-07
1.49475e-08
-3.57265e-07
1.18104e-08
-3.61338e-07
8.34152e-09
-3.63416e-07
4.57045e-09
-3.63378e-07
5.41461e-10
-3.61108e-07
-3.72823e-09
-3.56538e-07
-8.16031e-09
-3.49623e-07
-1.27015e-08
-3.4035e-07
-1.72876e-08
-3.28742e-07
-2.18484e-08
-3.14857e-07
-2.63099e-08
-2.98792e-07
-3.05959e-08
-2.80677e-07
-3.46299e-08
-2.60681e-07
-3.83366e-08
-2.39006e-07
-4.16443e-08
-2.15884e-07
-4.44867e-08
-1.91577e-07
-4.68045e-08
-1.66369e-07
-4.85481e-08
-1.40563e-07
-4.96785e-08
-1.14475e-07
-5.01696e-08
-8.84271e-08
-5.00085e-08
-6.27421e-08
-4.91972e-08
-3.77354e-08
-4.77521e-08
-1.37089e-08
-4.57045e-08
9.05573e-09
-4.30995e-08
3.03032e-08
-3.99949e-08
4.98096e-08
-3.64595e-08
6.73875e-08
-3.2571e-08
8.28893e-08
-2.84134e-08
9.62092e-08
-2.40742e-08
1.07284e-07
-1.96416e-08
1.16094e-07
-1.52015e-08
1.2266e-07
-1.0835e-08
1.27038e-07
-6.61593e-09
1.29323e-07
-2.60866e-09
1.29634e-07
1.13299e-09
1.28116e-07
4.56719e-09
1.24933e-07
7.66373e-09
1.20261e-07
1.04041e-08
1.14281e-07
1.27802e-08
1.0718e-07
1.47926e-08
9.91427e-08
1.64485e-08
9.03527e-08
1.77581e-08
8.099e-08
1.87316e-08
7.1234e-08
1.93746e-08
6.12668e-08
1.96838e-08
5.12787e-08
1.96423e-08
4.14754e-08
1.92157e-08
3.20851e-08
1.83497e-08
2.33646e-08
1.69707e-08
1.56002e-08
1.49952e-08
9.09943e-09
1.23529e-08
4.1693e-09
9.03137e-09
1.07402e-09
5.1611e-09
1.26323e-09
2.88268e-10
-1.08055e-09
6.40974e-10
-1.7578e-09
7.55652e-10
-1.45638e-09
4.48207e-10
-5.3705e-10
-3.86922e-10
7.34456e-10
-1.79908e-09
2.16521e-09
-3.7976e-09
3.62716e-09
-6.36839e-09
5.04456e-09
-9.48582e-09
6.38155e-09
-1.31221e-08
7.63087e-09
-1.72539e-08
8.80445e-09
-2.18661e-08
9.92584e-09
-2.69545e-08
1.10243e-08
-3.25259e-08
1.21305e-08
-3.85977e-08
1.32731e-08
-4.51965e-08
1.44771e-08
-5.2356e-08
1.57623e-08
-6.01152e-08
1.71429e-08
-6.85157e-08
1.86272e-08
-7.75999e-08
2.02183e-08
-8.74086e-08
2.19138e-08
-9.79793e-08
2.37069e-08
-1.09344e-07
2.55868e-08
-1.21529e-07
2.75386e-08
-1.34552e-07
2.95444e-08
-1.48419e-07
3.15827e-08
-1.63128e-07
3.36289e-08
-1.78662e-07
3.56554e-08
-1.94992e-07
3.76312e-08
-2.12074e-07
3.95221e-08
-2.29846e-07
4.12908e-08
-2.4823e-07
4.28971e-08
-2.67131e-07
4.42981e-08
-2.86435e-07
4.54487e-08
-3.06007e-07
4.63023e-08
-3.25695e-07
4.68118e-08
-3.45331e-07
4.69302e-08
-3.64728e-07
4.66124e-08
-3.83684e-07
4.5816e-08
-4.01984e-07
4.45026e-08
-4.19405e-07
4.26397e-08
-4.35716e-07
4.02016e-08
-4.50681e-07
3.71708e-08
-4.64067e-07
3.35395e-08
-4.75644e-07
2.931e-08
-4.85193e-07
2.44965e-08
-4.92508e-07
1.91248e-08
-4.97399e-07
1.32334e-08
-4.99701e-07
6.87186e-09
-4.99291e-07
1.31768e-10
-4.96028e-07
-6.99145e-09
-4.89855e-07
-1.43331e-08
-4.80731e-07
-2.18255e-08
-4.68655e-07
-2.93638e-08
-4.53666e-07
-3.68373e-08
-4.35845e-07
-4.41306e-08
-4.15316e-07
-5.11257e-08
-3.92241e-07
-5.77048e-08
-3.66824e-07
-6.37527e-08
-3.39309e-07
-6.91595e-08
-3.09972e-07
-7.38236e-08
-2.79122e-07
-7.76544e-08
-2.47096e-07
-8.0575e-08
-2.14249e-07
-8.25248e-08
-1.80957e-07
-8.34617e-08
-1.47602e-07
-8.33636e-08
-1.14569e-07
-8.223e-08
-8.22386e-08
-8.00828e-08
-5.09776e-08
-7.69655e-08
-2.11338e-08
-7.29432e-08
6.97219e-09
-6.8101e-08
3.30539e-08
-6.25412e-08
5.68628e-08
-5.63799e-08
7.81958e-08
-4.97463e-08
9.68962e-08
-4.27747e-08
1.12857e-07
-3.56027e-08
1.26023e-07
-2.83667e-08
1.36385e-07
-2.1197e-08
1.43983e-07
-1.42145e-08
1.48902e-07
-7.52715e-09
1.51262e-07
-1.22749e-09
1.5122e-07
4.60931e-09
1.48958e-07
9.92598e-09
1.44679e-07
1.46831e-08
1.38601e-07
1.88578e-08
1.30952e-07
2.24414e-08
1.21965e-07
2.5436e-08
1.11873e-07
2.785e-08
1.00912e-07
2.96926e-08
8.93186e-08
3.0968e-08
7.73339e-08
3.16685e-08
6.52079e-08
3.17683e-08
5.32057e-08
3.12179e-08
4.16138e-08
2.99417e-08
3.07448e-08
2.78397e-08
2.09401e-08
2.48e-08
1.25664e-08
2.07265e-08
6.00957e-09
1.55882e-08
1.66951e-09
9.50116e-09
2.93274e-09
1.57837e-10
-1.23839e-09
1.72098e-10
-1.77205e-09
-2.34206e-10
-1.05007e-09
-1.22641e-09
4.55162e-10
-2.89423e-09
2.40228e-09
-5.27366e-09
4.54464e-09
-8.36497e-09
6.71848e-09
-1.21481e-08
8.82766e-09
-1.65943e-08
1.08277e-08
-2.16752e-08
1.27118e-08
-2.7369e-08
1.44983e-08
-3.36644e-08
1.62213e-08
-4.05625e-08
1.79224e-08
-4.8077e-08
1.9645e-08
-5.62335e-08
2.14295e-08
-6.50672e-08
2.33109e-08
-7.46215e-08
2.53166e-08
-8.49445e-08
2.74659e-08
-9.60868e-08
2.97695e-08
-1.08099e-07
3.22303e-08
-1.21028e-07
3.4843e-08
-1.34917e-07
3.7596e-08
-1.49801e-07
4.04709e-08
-1.65706e-07
4.34437e-08
-1.82647e-07
4.64851e-08
-2.00625e-07
4.95607e-08
-2.19627e-07
5.26314e-08
-2.39625e-07
5.56531e-08
-2.60571e-07
5.8577e-08
-2.82399e-07
6.13498e-08
-3.05022e-07
6.39138e-08
-3.28332e-07
6.62075e-08
-3.522e-07
6.8166e-08
-3.76474e-07
6.97224e-08
-4.00979e-07
7.08081e-08
-4.25523e-07
7.13552e-08
-4.4989e-07
7.12973e-08
-4.73849e-07
7.05716e-08
-4.97154e-07
6.91208e-08
-5.19546e-07
6.68947e-08
-5.40759e-07
6.38527e-08
-5.60522e-07
5.99646e-08
-5.78564e-07
5.52134e-08
-5.94621e-07
4.95955e-08
-6.08434e-07
4.3123e-08
-6.19761e-07
3.58238e-08
-6.28378e-07
2.77424e-08
-6.34085e-07
1.894e-08
-6.36709e-07
9.49582e-09
-6.36099e-07
-4.7781e-10
-6.32157e-07
-1.0934e-08
-6.24802e-07
-2.1688e-08
-6.14004e-07
-3.26234e-08
-5.99772e-07
-4.35957e-08
-5.82158e-07
-5.44514e-08
-5.61257e-07
-6.50317e-08
-5.37208e-07
-7.51749e-08
-5.10193e-07
-8.47196e-08
-4.80437e-07
-9.35085e-08
-4.48205e-07
-1.01391e-07
-4.138e-07
-1.08229e-07
-3.77558e-07
-1.13896e-07
-3.39846e-07
-1.18287e-07
-3.01057e-07
-1.21314e-07
-2.61602e-07
-1.22917e-07
-2.21906e-07
-1.2306e-07
-1.82399e-07
-1.21737e-07
-1.4351e-07
-1.18972e-07
-1.05658e-07
-1.14817e-07
-6.92465e-08
-1.09355e-07
-3.46513e-08
-1.02696e-07
-2.21749e-09
-9.4975e-08
2.77509e-08
-8.63483e-08
5.49927e-08
-7.69881e-08
7.92979e-08
-6.70799e-08
1.0051e-07
-5.68146e-08
1.18527e-07
-4.63835e-08
1.33302e-07
-3.59727e-08
1.44845e-07
-2.57574e-08
1.53215e-07
-1.5897e-08
1.58519e-07
-6.53165e-09
1.60907e-07
2.22111e-09
1.60565e-07
1.02681e-08
1.57708e-07
1.75399e-08
1.52576e-07
2.39907e-08
1.45422e-07
2.95947e-08
1.36516e-07
3.43424e-08
1.26132e-07
3.82344e-08
1.14549e-07
4.1275e-08
1.02054e-07
4.34633e-08
8.89368e-08
4.47856e-08
7.54986e-08
4.52065e-08
6.20543e-08
4.46622e-08
4.89388e-08
4.30572e-08
3.65123e-08
4.02662e-08
2.51653e-08
3.61469e-08
1.53249e-08
3.05669e-08
7.46423e-09
2.34489e-08
2.12579e-09
1.48396e-08
5.05854e-09
-1.78929e-11
-1.2205e-09
-4.49673e-10
-1.34027e-09
-1.52656e-09
2.68224e-11
-3.37623e-09
2.30484e-09
-6.06038e-09
5.08642e-09
-9.59323e-09
8.07751e-09
-1.39601e-08
1.10853e-08
-1.91315e-08
1.3999e-08
-2.50741e-08
1.67704e-08
-3.17591e-08
1.93967e-08
-3.91673e-08
2.19065e-08
-4.7293e-08
2.43469e-08
-5.61443e-08
2.67738e-08
-6.5744e-08
2.92447e-08
-7.61272e-08
3.18127e-08
-8.73394e-08
3.45231e-08
-9.94339e-08
3.74111e-08
-1.12469e-07
4.05005e-08
-1.26503e-07
4.38036e-08
-1.41594e-07
4.73213e-08
-1.57795e-07
5.10444e-08
-1.75152e-07
5.49534e-08
-1.93702e-07
5.90205e-08
-2.13468e-07
6.32095e-08
-2.3446e-07
6.74767e-08
-2.5667e-07
7.17712e-08
-2.80074e-07
7.60354e-08
-3.04626e-07
8.02051e-08
-3.30259e-07
8.42098e-08
-3.56882e-07
8.79729e-08
-3.84381e-07
9.14128e-08
-4.12617e-07
9.44429e-08
-4.41424e-07
9.69736e-08
-4.70615e-07
9.89132e-08
-4.99976e-07
1.0017e-07
-5.29274e-07
1.00653e-07
-5.58254e-07
1.00277e-07
-5.86645e-07
9.89623e-08
-6.14162e-07
9.66379e-08
-6.40511e-07
9.32441e-08
-6.65393e-07
8.87348e-08
-6.88508e-07
8.30795e-08
-7.0956e-07
7.62647e-08
-7.2826e-07
6.8296e-08
-7.44335e-07
5.91985e-08
-7.5753e-07
4.90182e-08
-7.67609e-07
3.78217e-08
-7.74366e-07
2.56965e-08
-7.77621e-07
1.27517e-08
-7.77234e-07
-8.65655e-10
-7.73088e-07
-1.50793e-08
-7.65116e-07
-2.96599e-08
-7.53288e-07
-4.44521e-08
-7.37614e-07
-5.92696e-08
-7.18149e-07
-7.39159e-08
-6.94993e-07
-8.81879e-08
-6.68289e-07
-1.01879e-07
-6.38223e-07
-1.14785e-07
-6.05028e-07
-1.26704e-07
-5.68976e-07
-1.37443e-07
-5.30381e-07
-1.46824e-07
-4.89594e-07
-1.54684e-07
-4.46999e-07
-1.60882e-07
-4.0301e-07
-1.65303e-07
-3.58065e-07
-1.67862e-07
-3.12619e-07
-1.68506e-07
-2.67139e-07
-1.67217e-07
-2.22095e-07
-1.64015e-07
-1.77953e-07
-1.58959e-07
-1.35165e-07
-1.52143e-07
-9.41613e-08
-1.437e-07
-5.53429e-08
-1.33793e-07
-1.90737e-08
-1.22618e-07
1.43285e-08
-1.1039e-07
4.45958e-08
-9.73471e-08
7.15156e-08
-8.37344e-08
9.49348e-08
-6.98027e-08
1.1476e-07
-5.57982e-08
1.30959e-07
-4.19564e-08
1.43558e-07
-2.84958e-08
1.52638e-07
-1.56117e-08
1.58332e-07
-3.47263e-09
1.60817e-07
7.78319e-09
1.60309e-07
1.80479e-08
1.57056e-07
2.72436e-08
1.51331e-07
3.53193e-08
1.43427e-07
4.22465e-08
1.3365e-07
4.80118e-08
1.22316e-07
5.26087e-08
1.09751e-07
5.6028e-08
9.62896e-08
5.82473e-08
8.22754e-08
5.92206e-08
6.80676e-08
5.887e-08
5.40445e-08
5.70803e-08
4.06106e-08
5.37002e-08
2.82054e-08
4.85521e-08
1.73174e-08
4.14548e-08
8.5064e-09
3.22599e-08
2.44301e-09
2.0903e-08
7.50154e-09
-2.24321e-10
-9.96175e-10
-1.18846e-09
-3.76127e-10
-3.05596e-09
1.89432e-09
-5.90757e-09
5.15647e-09
-9.76482e-09
8.94367e-09
-1.4613e-08
1.29257e-08
-2.04172e-08
1.68895e-08
-2.71351e-08
2.07169e-08
-3.47273e-08
2.43626e-08
-4.31642e-08
2.78336e-08
-5.24301e-08
3.11725e-08
-6.25258e-08
3.44426e-08
-7.34687e-08
3.77167e-08
-8.52918e-08
4.10678e-08
-9.80416e-08
4.45624e-08
-1.11775e-07
4.82565e-08
-1.26556e-07
5.21924e-08
-1.42453e-07
5.63974e-08
-1.59533e-07
6.08839e-08
-1.77862e-07
6.56496e-08
-1.97496e-07
7.06782e-08
-2.18483e-07
7.59408e-08
-2.40859e-07
8.13967e-08
-2.64644e-07
8.69944e-08
-2.8984e-07
9.26724e-08
-3.16428e-07
9.83598e-08
-3.4437e-07
1.03977e-07
-3.736e-07
1.09435e-07
-4.04029e-07
1.14639e-07
-4.35541e-07
1.19485e-07
-4.67992e-07
1.23864e-07
-5.01211e-07
1.27662e-07
-5.34999e-07
1.30762e-07
-5.69133e-07
1.33047e-07
-6.03362e-07
1.34399e-07
-6.37418e-07
1.34708e-07
-6.71009e-07
1.33869e-07
-7.03833e-07
1.31786e-07
-7.35572e-07
1.28378e-07
-7.65906e-07
1.23578e-07
-7.9451e-07
1.17339e-07
-8.21064e-07
1.09633e-07
-8.45252e-07
1.00453e-07
-8.66775e-07
8.98187e-08
-8.85347e-07
7.77702e-08
-9.00703e-07
6.43742e-08
-9.12603e-07
4.97215e-08
-9.20833e-07
3.39271e-08
-9.2521e-07
1.71283e-08
-9.25599e-07
-4.76554e-10
-9.21861e-07
-1.88174e-08
-9.13934e-07
-3.75862e-08
-9.01782e-07
-5.66048e-08
-8.85407e-07
-7.56443e-08
-8.64858e-07
-9.44654e-08
-8.40224e-07
-1.12821e-07
-8.11643e-07
-1.30461e-07
-7.79295e-07
-1.47134e-07
-7.43404e-07
-1.62594e-07
-7.04241e-07
-1.76606e-07
-6.6212e-07
-1.88945e-07
-6.17394e-07
-1.99409e-07
-5.70457e-07
-2.07819e-07
-5.21735e-07
-2.14024e-07
-4.71687e-07
-2.1791e-07
-4.20794e-07
-2.19399e-07
-3.69555e-07
-2.18456e-07
-3.18479e-07
-2.15092e-07
-2.68076e-07
-2.09362e-07
-2.18849e-07
-2.01371e-07
-1.71283e-07
-1.91265e-07
-1.2584e-07
-1.79237e-07
-8.29426e-08
-1.65514e-07
-4.29737e-08
-1.50359e-07
-6.26325e-09
-1.34058e-07
2.69157e-08
-1.16913e-07
5.63513e-08
-9.92384e-08
8.1897e-08
-8.13438e-08
1.03472e-07
-6.35315e-08
1.21061e-07
-4.60851e-08
1.34713e-07
-2.92631e-08
1.44533e-07
-1.3293e-08
1.50684e-07
1.63257e-09
1.53372e-07
1.53592e-08
1.52849e-07
2.77674e-08
1.49395e-07
3.87729e-08
1.43321e-07
4.83203e-08
1.34958e-07
5.63751e-08
1.24652e-07
6.29147e-08
1.12763e-07
6.79171e-08
9.96623e-08
7.13478e-08
8.57342e-08
7.31488e-08
7.13775e-08
7.32266e-08
5.70119e-08
7.14459e-08
4.30854e-08
6.76267e-08
3.00867e-08
6.15509e-08
1.85641e-08
5.29774e-08
9.15574e-09
4.16683e-08
2.63516e-09
2.74236e-08
1.01367e-08
-4.56221e-10
-5.39947e-10
-2.01979e-09
1.18744e-09
-4.77976e-09
4.65429e-09
-8.75509e-09
9.13181e-09
-1.39204e-08
1.4109e-08
-2.02253e-08
1.92306e-08
-2.76098e-08
2.4274e-08
-3.6016e-08
2.91232e-08
-4.53971e-08
3.37437e-08
-5.57222e-08
3.81587e-08
-6.69798e-08
4.243e-08
-7.91785e-08
4.66413e-08
-9.23462e-08
5.08844e-08
-1.06528e-07
5.52495e-08
-1.21783e-07
5.98174e-08
-1.38181e-07
6.46543e-08
-1.55797e-07
6.98088e-08
-1.7471e-07
7.53106e-08
-1.94997e-07
8.11704e-08
-2.16727e-07
8.73799e-08
-2.39963e-07
9.39138e-08
-2.64752e-07
1.0073e-07
-2.91128e-07
1.07773e-07
-3.19105e-07
1.14971e-07
-3.48676e-07
1.22243e-07
-3.79808e-07
1.29493e-07
-4.12447e-07
1.36615e-07
-4.46506e-07
1.43494e-07
-4.81872e-07
1.50006e-07
-5.18404e-07
1.56016e-07
-5.55926e-07
1.61387e-07
-5.94238e-07
1.65973e-07
-6.33108e-07
1.69632e-07
-6.72278e-07
1.72217e-07
-7.11467e-07
1.73588e-07
-7.50373e-07
1.73614e-07
-7.88677e-07
1.72173e-07
-8.26048e-07
1.69156e-07
-8.62146e-07
1.64475e-07
-8.96627e-07
1.58059e-07
-9.2915e-07
1.49862e-07
-9.59379e-07
1.39862e-07
-9.86989e-07
1.28063e-07
-1.01167e-06
1.14498e-07
-1.03312e-06
9.92253e-08
-1.05108e-06
8.23336e-08
-1.0653e-06
6.39379e-08
-1.07555e-06
4.41803e-08
-1.08165e-06
2.32281e-08
-1.08343e-06
1.30608e-09
-1.08078e-06
-2.14676e-08
-1.07361e-06
-4.47648e-08
-1.06185e-06
-6.83623e-08
-1.0455e-06
-9.19922e-08
-1.02459e-06
-1.15374e-07
-9.99196e-07
-1.38217e-07
-9.69429e-07
-1.60227e-07
-9.35455e-07
-1.81108e-07
-8.97485e-07
-2.00565e-07
-8.55774e-07
-2.18316e-07
-8.10628e-07
-2.34091e-07
-7.62398e-07
-2.4764e-07
-7.11476e-07
-2.5874e-07
-6.583e-07
-2.672e-07
-6.03342e-07
-2.72868e-07
-5.47108e-07
-2.75634e-07
-4.90126e-07
-2.75438e-07
-4.32945e-07
-2.72273e-07
-3.76122e-07
-2.66185e-07
-3.20212e-07
-2.5728e-07
-2.65762e-07
-2.45716e-07
-2.13295e-07
-2.31704e-07
-1.63303e-07
-2.15506e-07
-1.16237e-07
-1.97425e-07
-7.24973e-08
-1.77797e-07
-3.24249e-08
-1.56986e-07
3.70367e-09
-1.35367e-07
3.56815e-08
-1.13322e-07
6.33729e-08
-9.12229e-08
8.6715e-08
-6.94272e-08
1.05716e-07
-4.8264e-08
1.20451e-07
-2.80282e-08
1.31059e-07
-8.97511e-09
1.37734e-07
8.68347e-09
1.40723e-07
2.47793e-08
1.4031e-07
3.91856e-08
1.36819e-07
5.18117e-08
1.30598e-07
6.25953e-08
1.22021e-07
7.14916e-08
1.11478e-07
7.84604e-08
9.93737e-08
8.34522e-08
8.61289e-08
8.63936e-08
7.21813e-08
8.71741e-08
5.79911e-08
8.56361e-08
4.40495e-08
8.15683e-08
3.08933e-08
7.47072e-08
1.91264e-08
6.47443e-08
9.45237e-09
5.13423e-08
2.71974e-09
3.41562e-08
1.28564e-08
-7.09124e-10
1.69181e-10
-2.93048e-09
3.4088e-09
-6.66865e-09
8.39246e-09
-1.18732e-08
1.43363e-08
-1.84639e-08
2.06998e-08
-2.63494e-08
2.71161e-08
-3.54408e-08
3.33653e-08
-4.56624e-08
3.93448e-08
-5.69585e-08
4.50398e-08
-6.92972e-08
5.04974e-08
-8.26717e-08
5.58045e-08
-9.70996e-08
6.10692e-08
-1.12621e-07
6.64055e-08
-1.29293e-07
7.19223e-08
-1.47191e-07
7.77151e-08
-1.66397e-07
8.386e-08
-1.86999e-07
9.04108e-08
-2.09086e-07
9.73979e-08
-2.32743e-07
1.04828e-07
-2.58047e-07
1.12684e-07
-2.85061e-07
1.20928e-07
-3.13834e-07
1.29503e-07
-3.44394e-07
1.38333e-07
-3.76747e-07
1.47325e-07
-4.10876e-07
1.56372e-07
-4.46735e-07
1.65351e-07
-4.84247e-07
1.74127e-07
-5.23308e-07
1.82555e-07
-5.63778e-07
1.90476e-07
-6.05489e-07
1.97727e-07
-6.48237e-07
2.04135e-07
-6.91792e-07
2.09528e-07
-7.35891e-07
2.13731e-07
-7.80247e-07
2.16573e-07
-8.24551e-07
2.17892e-07
-8.68474e-07
2.17537e-07
-9.11672e-07
2.15371e-07
-9.53793e-07
2.11277e-07
-9.94478e-07
2.0516e-07
-1.03337e-06
1.9695e-07
-1.07011e-06
1.86604e-07
-1.10436e-06
1.74108e-07
-1.13577e-06
1.59478e-07
-1.16403e-06
1.42762e-07
-1.18885e-06
1.24038e-07
-1.20993e-06
1.03414e-07
-1.22702e-06
8.10289e-08
-1.23989e-06
5.70505e-08
-1.24834e-06
3.16751e-08
-1.25217e-06
5.13858e-09
-1.25127e-06
-2.23626e-08
-1.24552e-06
-5.05163e-08
-1.23484e-06
-7.90424e-08
-1.2192e-06
-1.07637e-07
-1.19859e-06
-1.35979e-07
-1.17307e-06
-1.63737e-07
-1.14273e-06
-1.90571e-07
-1.1077e-06
-2.16137e-07
-1.06817e-06
-2.40095e-07
-1.02438e-06
-2.62109e-07
-9.7661e-07
-2.81858e-07
-9.25207e-07
-2.99043e-07
-8.7056e-07
-3.13388e-07
-8.13106e-07
-3.24654e-07
-7.5333e-07
-3.32644e-07
-6.91757e-07
-3.37207e-07
-6.28947e-07
-3.38248e-07
-5.65487e-07
-3.35733e-07
-5.01982e-07
-3.2969e-07
-4.39045e-07
-3.20217e-07
-3.77287e-07
-3.07474e-07
-3.17301e-07
-2.9169e-07
-2.59656e-07
-2.73152e-07
-2.04878e-07
-2.52203e-07
-1.53446e-07
-2.29229e-07
-1.05779e-07
-2.04653e-07
-6.22256e-08
-1.7892e-07
-2.3063e-08
-1.52484e-07
1.15119e-08
-1.25798e-07
4.13816e-08
-9.92969e-08
6.65079e-08
-7.33903e-08
8.69299e-08
-4.84502e-08
1.02759e-07
-2.48038e-08
1.14172e-07
-2.72987e-09
1.21406e-07
1.75454e-08
1.24749e-07
3.5843e-08
1.2453e-07
5.20298e-08
1.21118e-07
6.60077e-08
1.14906e-07
7.77032e-08
1.06314e-07
8.70529e-08
9.57785e-08
9.39877e-08
8.3756e-08
9.84161e-08
7.07223e-08
1.00208e-07
5.71778e-08
9.91806e-08
4.36567e-08
9.50895e-08
3.07416e-08
8.76223e-08
1.90858e-08
7.64001e-08
9.44415e-09
6.0984e-08
2.71423e-09
4.08861e-08
1.55707e-08
-9.81012e-10
1.1502e-09
-3.91165e-09
6.33945e-09
-8.70352e-09
1.31843e-08
-1.52296e-08
2.08624e-08
-2.33489e-08
2.88191e-08
-3.29241e-08
3.66914e-08
-4.38347e-08
4.42759e-08
-5.59851e-08
5.14952e-08
-6.93104e-08
5.83651e-08
-8.37777e-08
6.49647e-08
-9.93858e-08
7.14126e-08
-1.16162e-07
7.78459e-08
-1.34161e-07
8.44038e-08
-1.53454e-07
9.12156e-08
-1.74131e-07
9.83917e-08
-1.96288e-07
1.06017e-07
-2.20028e-07
1.14151e-07
-2.45449e-07
1.22819e-07
-2.72646e-07
1.32024e-07
-3.01698e-07
1.41736e-07
-3.32672e-07
1.51902e-07
-3.65614e-07
1.62445e-07
-4.00548e-07
1.73266e-07
-4.3747e-07
1.84247e-07
-4.7635e-07
1.95252e-07
-5.17125e-07
2.06126e-07
-5.59701e-07
2.16703e-07
-6.03949e-07
2.26803e-07
-6.49706e-07
2.36233e-07
-6.96776e-07
2.44796e-07
-7.44928e-07
2.52288e-07
-7.93904e-07
2.58503e-07
-8.43414e-07
2.6324e-07
-8.93144e-07
2.66303e-07
-9.4276e-07
2.67509e-07
-9.91912e-07
2.66689e-07
-1.04024e-06
2.63695e-07
-1.08736e-06
2.58404e-07
-1.13292e-06
2.50716e-07
-1.17653e-06
2.40565e-07
-1.21784e-06
2.27912e-07
-1.25649e-06
2.12752e-07
-1.29212e-06
1.95116e-07
-1.32443e-06
1.75065e-07
-1.35308e-06
1.52693e-07
-1.3778e-06
1.28131e-07
-1.39831e-06
1.01537e-07
-1.41436e-06
7.31025e-08
-1.42573e-06
4.30487e-08
-1.43223e-06
1.16308e-08
-1.43369e-06
-2.09013e-08
-1.42997e-06
-5.42335e-08
-1.42097e-06
-8.8039e-08
-1.40663e-06
-1.21979e-07
-1.38691e-06
-1.55695e-07
-1.36184e-06
-1.88814e-07
-1.33146e-06
-2.2095e-07
-1.29588e-06
-2.51713e-07
-1.25526e-06
-2.80712e-07
-1.20982e-06
-3.07558e-07
-1.1598e-06
-3.31875e-07
-1.10553e-06
-3.53306e-07
-1.0474e-06
-3.7152e-07
-9.85837e-07
-3.8622e-07
-9.21327e-07
-3.97154e-07
-8.54414e-07
-4.0412e-07
-7.85684e-07
-4.06978e-07
-7.15761e-07
-4.05655e-07
-6.453e-07
-4.00152e-07
-5.74972e-07
-3.90544e-07
-5.05457e-07
-3.76989e-07
-4.37425e-07
-3.59721e-07
-3.71528e-07
-3.39049e-07
-3.08381e-07
-3.1535e-07
-2.4855e-07
-2.8906e-07
-1.92543e-07
-2.60661e-07
-1.40793e-07
-2.3067e-07
-9.36558e-08
-1.99621e-07
-5.14009e-08
-1.68053e-07
-1.42088e-08
-1.36489e-07
1.78294e-08
-1.05429e-07
4.47099e-08
-7.53306e-08
6.65119e-08
-4.66059e-08
8.33915e-08
-1.96094e-08
9.55745e-08
5.36227e-09
1.03347e-07
2.80705e-08
1.07047e-07
4.83294e-08
1.07057e-07
6.59979e-08
1.03793e-07
8.09669e-08
9.77021e-08
9.31442e-08
8.92531e-08
1.02437e-07
7.89384e-08
1.08731e-07
6.72721e-08
1.11874e-07
5.47953e-08
1.11657e-07
4.20842e-08
1.07801e-07
2.97647e-08
9.99417e-08
1.85328e-08
8.7632e-08
9.18146e-09
7.03353e-08
2.63547e-09
4.74321e-08
1.82061e-08
-1.27129e-09
2.42149e-09
-4.95779e-09
1.0026e-08
-1.08711e-08
1.90977e-08
-1.88008e-08
2.87921e-08
-2.85398e-08
3.85581e-08
-3.99013e-08
4.80529e-08
-5.27304e-08
5.71049e-08
-6.69109e-08
6.56758e-08
-8.23684e-08
7.38225e-08
-9.90696e-08
8.16659e-08
-1.1702e-07
8.93629e-08
-1.36259e-07
9.70845e-08
-1.56853e-07
1.04998e-07
-1.78893e-07
1.13256e-07
-2.02483e-07
1.21981e-07
-2.27735e-07
1.3127e-07
-2.54764e-07
1.4118e-07
-2.83681e-07
1.51736e-07
-3.14585e-07
1.62928e-07
-3.47563e-07
1.74713e-07
-3.8268e-07
1.87019e-07
-4.1998e-07
1.99745e-07
-4.59479e-07
2.12765e-07
-5.01163e-07
2.25932e-07
-5.44989e-07
2.39077e-07
-5.90874e-07
2.52012e-07
-6.38705e-07
2.64534e-07
-6.8833e-07
2.76428e-07
-7.39562e-07
2.87465e-07
-7.92178e-07
2.97412e-07
-8.45922e-07
3.06032e-07
-9.00507e-07
3.13089e-07
-9.55622e-07
3.18354e-07
-1.01093e-06
3.21609e-07
-1.06607e-06
3.2265e-07
-1.12068e-06
3.21296e-07
-1.17437e-06
3.17389e-07
-1.22677e-06
3.108e-07
-1.27748e-06
3.01429e-07
-1.32613e-06
2.89213e-07
-1.37234e-06
2.74119e-07
-1.41574e-06
2.56154e-07
-1.45598e-06
2.35357e-07
-1.49272e-06
2.11806e-07
-1.52564e-06
1.85613e-07
-1.55443e-06
1.56922e-07
-1.57881e-06
1.25915e-07
-1.59851e-06
9.28017e-08
-1.61329e-06
5.78268e-08
-1.62292e-06
2.12664e-08
-1.62724e-06
-1.65871e-08
-1.62605e-06
-5.54157e-08
-1.61925e-06
-9.48469e-08
-1.60671e-06
-1.34511e-07
-1.58839e-06
-1.74014e-07
-1.56427e-06
-2.12941e-07
-1.53435e-06
-2.50866e-07
-1.49872e-06
-2.87349e-07
-1.45748e-06
-3.21949e-07
-1.41081e-06
-3.54222e-07
-1.35895e-06
-3.83735e-07
-1.30219e-06
-4.10069e-07
-1.24088e-06
-4.32829e-07
-1.17545e-06
-4.51654e-07
-1.10638e-06
-4.66227e-07
-1.03421e-06
-4.76286e-07
-9.59556e-07
-4.81632e-07
-8.8307e-07
-4.82141e-07
-8.05451e-07
-4.7777e-07
-7.27431e-07
-4.68564e-07
-6.4976e-07
-4.54661e-07
-5.73191e-07
-4.3629e-07
-4.98465e-07
-4.13774e-07
-4.26297e-07
-3.87518e-07
-3.57354e-07
-3.58003e-07
-2.92244e-07
-3.25771e-07
-2.315e-07
-2.91413e-07
-1.75571e-07
-2.5555e-07
-1.24811e-07
-2.18813e-07
-7.94753e-08
-1.81825e-07
-3.97179e-08
-1.45186e-07
-5.59357e-09
-1.09455e-07
2.29389e-08
-7.51384e-08
4.60101e-08
-4.26805e-08
6.38316e-08
-1.24592e-08
7.66868e-08
1.52152e-08
8.49209e-08
4.00954e-08
8.89307e-08
6.19881e-08
8.91559e-08
8.07417e-08
8.6071e-08
9.62291e-08
8.01794e-08
1.08328e-07
7.20098e-08
1.169e-07
6.2116e-08
1.21768e-07
5.10803e-08
1.22693e-07
3.95207e-08
1.1936e-07
2.81036e-08
1.11359e-07
1.75615e-08
9.81742e-08
8.71502e-09
7.91817e-08
2.49964e-09
5.36475e-08
2.07058e-08
-1.57904e-09
4.00052e-09
-6.06489e-09
1.45118e-08
-1.31614e-08
2.61941e-08
-2.25683e-08
3.8199e-08
-3.4008e-08
4.99977e-08
-4.72409e-08
6.12858e-08
-6.20765e-08
7.19405e-08
-7.83772e-08
8.19765e-08
-9.60594e-08
9.15047e-08
-1.1509e-07
1.00697e-07
-1.35483e-07
1.09756e-07
-1.5729e-07
1.18892e-07
-1.80595e-07
1.28303e-07
-2.05503e-07
1.38164e-07
-2.32137e-07
1.48615e-07
-2.60625e-07
1.59757e-07
-2.91093e-07
1.71648e-07
-3.23664e-07
1.84306e-07
-3.58443e-07
1.97707e-07
-3.9552e-07
2.1179e-07
-4.3496e-07
2.26459e-07
-4.76801e-07
2.41587e-07
-5.21053e-07
2.57017e-07
-5.67688e-07
2.72568e-07
-6.16646e-07
2.88035e-07
-6.67829e-07
3.03195e-07
-7.211e-07
3.17805e-07
-7.76285e-07
3.31612e-07
-8.3317e-07
3.44351e-07
-8.9151e-07
3.55751e-07
-9.51022e-07
3.65544e-07
-1.0114e-06
3.73464e-07
-1.0723e-06
3.79254e-07
-1.13336e-06
3.82676e-07
-1.19422e-06
3.83509e-07
-1.25449e-06
3.8156e-07
-1.31376e-06
3.76664e-07
-1.37165e-06
3.68686e-07
-1.42775e-06
3.57531e-07
-1.48167e-06
3.43136e-07
-1.53303e-06
3.25478e-07
-1.58145e-06
3.04572e-07
-1.62656e-06
2.8047e-07
-1.66802e-06
2.53263e-07
-1.70548e-06
2.23078e-07
-1.73864e-06
1.90078e-07
-1.76718e-06
1.5446e-07
-1.79084e-06
1.16455e-07
-1.80934e-06
7.63283e-08
-1.82245e-06
3.43757e-08
-1.82997e-06
-9.06647e-09
-1.83169e-06
-5.36942e-08
-1.82746e-06
-9.9075e-08
-1.81716e-06
-1.44818e-07
-1.80068e-06
-1.90495e-07
-1.77796e-06
-2.35656e-07
-1.74899e-06
-2.79833e-07
-1.7138e-06
-3.22544e-07
-1.67245e-06
-3.63294e-07
-1.62509e-06
-4.01589e-07
-1.57189e-06
-4.36934e-07
-1.51311e-06
-4.68846e-07
-1.44907e-06
-4.96864e-07
-1.38018e-06
-5.20553e-07
-1.30688e-06
-5.39525e-07
-1.22972e-06
-5.53443e-07
-1.14931e-06
-5.62039e-07
-1.06634e-06
-5.65119e-07
-9.81521e-07
-5.62584e-07
-8.95656e-07
-5.5443e-07
-8.09557e-07
-5.40759e-07
-7.24065e-07
-5.21783e-07
-6.40018e-07
-4.97821e-07
-5.58237e-07
-4.69299e-07
-4.79505e-07
-4.36735e-07
-4.04546e-07
-4.0073e-07
-3.3401e-07
-3.61949e-07
-2.68456e-07
-3.21104e-07
-2.08341e-07
-2.78928e-07
-1.54011e-07
-2.36155e-07
-1.05696e-07
-1.935e-07
-6.35153e-08
-1.51636e-07
-2.74731e-08
-1.11181e-07
2.52876e-09
-7.26824e-08
2.66839e-08