/*--------------------------------*- C++ -*----------------------------------*\
  =========                 |
  \\      /  F ield         | OpenFOAM: The Open Source CFD Toolbox
   \\    /   O peration     | Website:  https://openfoam.org
    \\  /    A nd           | Version:  9
     \\/     M anipulation  |
\*---------------------------------------------------------------------------*/
FoamFile
{
    format      ascii;
    class       volVectorField;
    location    "1.5";
    object      U;
}
// * * * * * * * * * * * * * * * * * * * * * * * * * * * * * * * * * * * * * //

dimensions      [0 1 -1 0 0 0 0];

internalField   nonuniform List<vector> 
10000
(
(4.58047e-06 -4.51361e-06 0)
(2.59355e-05 -1.25434e-05 0)
(6.09273e-05 -1.48039e-05 0)
(9.38868e-05 -1.31675e-05 0)
(0.000117894 -9.7805e-06 0)
(0.000130233 -5.88908e-06 0)
(0.000130251 -2.12374e-06 0)
(0.000118468 1.23302e-06 0)
(9.59623e-05 4.09943e-06 0)
(6.39494e-05 6.50583e-06 0)
(2.35308e-05 8.53957e-06 0)
(-2.4439e-05 1.0312e-05 0)
(-7.9414e-05 1.19388e-05 0)
(-0.000141169 1.35285e-05 0)
(-0.000209778 1.51756e-05 0)
(-0.000285577 1.69571e-05 0)
(-0.000369117 1.89316e-05 0)
(-0.000461103 2.11405e-05 0)
(-0.000562353 2.36093e-05 0)
(-0.000673739 2.63499e-05 0)
(-0.000796155 2.93636e-05 0)
(-0.000930474 3.26426e-05 0)
(-0.00107752 3.61727e-05 0)
(-0.00123806 3.99349e-05 0)
(-0.00141274 4.39058e-05 0)
(-0.00160212 4.80583e-05 0)
(-0.00180661 5.23611e-05 0)
(-0.00202649 5.67781e-05 0)
(-0.00226184 6.1267e-05 0)
(-0.00251258 6.57785e-05 0)
(-0.00277839 7.02548e-05 0)
(-0.00305868 7.46285e-05 0)
(-0.0033526 7.88216e-05 0)
(-0.003659 8.27451e-05 0)
(-0.00397635 8.62993e-05 0)
(-0.00430279 8.93736e-05 0)
(-0.00463604 9.18483e-05 0)
(-0.00497343 9.3596e-05 0)
(-0.00531188 9.44836e-05 0)
(-0.00564788 9.43758e-05 0)
(-0.00597754 9.31383e-05 0)
(-0.00629659 9.06422e-05 0)
(-0.00660044 8.67685e-05 0)
(-0.00688422 8.1413e-05 0)
(-0.00714285 7.44918e-05 0)
(-0.00737112 6.59471e-05 0)
(-0.00756384 5.57515e-05 0)
(-0.00771585 4.39171e-05 0)
(-0.00782228 3.05141e-05 0)
(-0.00787861 1.56575e-05 0)
(-0.00788069 -5.92497e-07 0)
(-0.00782495 -1.80107e-05 0)
(-0.00770874 -3.63275e-05 0)
(-0.00753023 -5.52567e-05 0)
(-0.00728857 -7.44678e-05 0)
(-0.00698402 -9.35922e-05 0)
(-0.00661797 -0.000112234 0)
(-0.00619306 -0.000129978 0)
(-0.00571313 -0.000146407 0)
(-0.00518323 -0.000161111 0)
(-0.00460957 -0.000173705 0)
(-0.00399938 -0.000183842 0)
(-0.00336084 -0.000191231 0)
(-0.00270282 -0.000195648 0)
(-0.00203476 -0.000196945 0)
(-0.00136638 -0.000195064 0)
(-0.000707467 -0.000190037 0)
(-6.75854e-05 -0.000181994 0)
(0.000544128 -0.000171149 0)
(0.00111925 -0.000157788 0)
(0.00165029 -0.000142286 0)
(0.00213084 -0.000125063 0)
(0.00255576 -0.000106576 0)
(0.00292124 -8.73022e-05 0)
(0.00322488 -6.77156e-05 0)
(0.00346567 -4.82714e-05 0)
(0.00364392 -2.93879e-05 0)
(0.00376119 -1.14324e-05 0)
(0.00382014 5.2888e-06 0)
(0.00382434 2.05381e-05 0)
(0.00377812 3.41489e-05 0)
(0.00368633 4.60283e-05 0)
(0.00355416 5.61485e-05 0)
(0.00338697 6.45428e-05 0)
(0.00319007 7.12961e-05 0)
(0.00296862 7.65327e-05 0)
(0.0027275 8.04025e-05 0)
(0.00247126 8.30635e-05 0)
(0.0022041 8.46623e-05 0)
(0.00192996 8.53089e-05 0)
(0.0016526 8.50468e-05 0)
(0.00137589 8.38135e-05 0)
(0.00110408 8.13914e-05 0)
(0.000842271 7.73443e-05 0)
(0.000596967 7.09426e-05 0)
(0.000376739 6.11126e-05 0)
(0.000192589 4.65404e-05 0)
(5.72396e-05 2.62044e-05 0)
(-1.55446e-05 1.32419e-06 0)
(-1.7253e-05 -1.73031e-05 0)
(1.29039e-05 -2.6099e-05 0)
(5.58252e-05 -5.52525e-05 0)
(0.000115607 -6.0302e-05 0)
(0.000165971 -4.93726e-05 0)
(0.000193957 -3.00755e-05 0)
(0.000193702 -7.48606e-06 0)
(0.000163086 1.53702e-05 0)
(0.000102456 3.68772e-05 0)
(1.35459e-05 5.63708e-05 0)
(-0.000101405 7.37924e-05 0)
(-0.000240235 8.94439e-05 0)
(-0.000401226 0.000103821 0)
(-0.000583284 0.000117496 0)
(-0.000786018 0.000131046 0)
(-0.00100972 0.000144995 0)
(-0.0012553 0.000159788 0)
(-0.00152417 0.000175778 0)
(-0.00181814 0.000193217 0)
(-0.00213927 0.000212265 0)
(-0.00248979 0.000232996 0)
(-0.00287194 0.000255409 0)
(-0.00328791 0.000279441 0)
(-0.00373974 0.000304972 0)
(-0.00422925 0.00033184 0)
(-0.00475795 0.000359841 0)
(-0.00532702 0.000388736 0)
(-0.00593721 0.000418243 0)
(-0.00658882 0.000448044 0)
(-0.0072816 0.000477772 0)
(-0.00801469 0.000507015 0)
(-0.00878656 0.000535304 0)
(-0.00959496 0.000562118 0)
(-0.0104368 0.000586875 0)
(-0.0113081 0.00060894 0)
(-0.0122041 0.000627625 0)
(-0.0131187 0.000642199 0)
(-0.0140452 0.000651901 0)
(-0.0149756 0.000655948 0)
(-0.0159011 0.000653561 0)
(-0.0168116 0.00064398 0)
(-0.0176966 0.000626488 0)
(-0.0185443 0.000600439 0)
(-0.0193427 0.000565282 0)
(-0.020079 0.000520592 0)
(-0.0207403 0.000466094 0)
(-0.0213136 0.000401691 0)
(-0.0217861 0.000327489 0)
(-0.0221456 0.000243825 0)
(-0.0223805 0.000151307 0)
(-0.0224807 5.07416e-05 0)
(-0.0224371 -5.70779e-05 0)
(-0.0222421 -0.000170517 0)
(-0.0218904 -0.000288037 0)
(-0.021379 -0.000407893 0)
(-0.0207073 -0.000528118 0)
(-0.019877 -0.000646587 0)
(-0.0188928 -0.000761071 0)
(-0.0177621 -0.00086929 0)
(-0.016495 -0.000968977 0)
(-0.0151044 -0.00105795 0)
(-0.0136057 -0.00113416 0)
(-0.0120164 -0.00119582 0)
(-0.0103561 -0.00124138 0)
(-0.00864624 -0.00126966 0)
(-0.0069091 -0.00127991 0)
(-0.0051678 -0.00127177 0)
(-0.00344562 -0.00124538 0)
(-0.00176546 -0.00120133 0)
(-0.000149306 -0.00114071 0)
(0.00138228 -0.00106497 0)
(0.00281068 -0.000975981 0)
(0.00411962 -0.000875934 0)
(0.00529552 -0.000767231 0)
(0.00632777 -0.000652431 0)
(0.0072089 -0.000534134 0)
(0.0079346 -0.000414898 0)
(0.00850374 -0.000297151 0)
(0.00891812 -0.000183106 0)
(0.00918232 -7.46992e-05 0)
(0.00930332 2.64588e-05 0)
(0.00929015 0.000119119 0)
(0.00915344 0.000202401 0)
(0.008905 0.000275788 0)
(0.00855737 0.000339102 0)
(0.00812347 0.000392461 0)
(0.00761618 0.000436221 0)
(0.00704814 0.000470895 0)
(0.00643153 0.000497064 0)
(0.00577807 0.000515266 0)
(0.0050991 0.000525859 0)
(0.00440583 0.000528879 0)
(0.00370983 0.000523863 0)
(0.00302357 0.000509674 0)
(0.00236123 0.000484325 0)
(0.00173947 0.000444876 0)
(0.00117816 0.000387566 0)
(0.000700152 0.000308639 0)
(0.000329058 0.000206472 0)
(8.82402e-05 8.71888e-05 0)
(1.67424e-06 -1.55451e-05 0)
(1.55535e-05 -6.19915e-05 0)
(6.13883e-05 -0.000115427 0)
(0.000116826 -0.000116798 0)
(0.000151745 -8.44135e-05 0)
(0.000151099 -3.30787e-05 0)
(0.000107852 2.66269e-05 0)
(1.92719e-05 8.78341e-05 0)
(-0.000114412 0.000146613 0)
(-0.000291219 0.00020116 0)
(-0.00050849 0.00025112 0)
(-0.000763639 0.000297072 0)
(-0.00105463 0.000340133 0)
(-0.00138026 0.000381673 0)
(-0.00174025 0.000423107 0)
(-0.00213528 0.000465758 0)
(-0.00256688 0.000510764 0)
(-0.00303726 0.000559036 0)
(-0.00354918 0.000611233 0)
(-0.00410579 0.000667768 0)
(-0.00471038 0.00072882 0)
(-0.00536628 0.000794362 0)
(-0.00607667 0.000864182 0)
(-0.00684449 0.000937908 0)
(-0.00767224 0.00101503 0)
(-0.00856194 0.0010949 0)
(-0.00951499 0.00117678 0)
(-0.0105321 0.00125976 0)
(-0.011613 0.00134287 0)
(-0.0127569 0.00142495 0)
(-0.0139615 0.00150475 0)
(-0.0152237 0.00158086 0)
(-0.016539 0.00165171 0)
(-0.0179019 0.00171563 0)
(-0.0193051 0.0017708 0)
(-0.0207401 0.00181527 0)
(-0.0221968 0.00184706 0)
(-0.0236638 0.00186409 0)
(-0.0251281 0.00186434 0)
(-0.0265752 0.00184579 0)
(-0.0279894 0.00180655 0)
(-0.029354 0.00174493 0)
(-0.0306512 0.00165944 0)
(-0.0318626 0.00154891 0)
(-0.0329693 0.00141256 0)
(-0.0339525 0.00125002 0)
(-0.0347934 0.00106143 0)
(-0.0354741 0.000847482 0)
(-0.0359776 0.00060943 0)
(-0.0362884 0.000349185 0)
(-0.0363931 6.92042e-05 0)
(-0.0362798 -0.000227878 0)
(-0.0359391 -0.00053782 0)
(-0.0353654 -0.000856522 0)
(-0.0345557 -0.00117936 0)
(-0.0335106 -0.00150125 0)
(-0.032234 -0.00181681 0)
(-0.0307337 -0.00212046 0)
(-0.029021 -0.00240655 0)
(-0.027111 -0.00266953 0)
(-0.0250221 -0.00290409 0)
(-0.0227763 -0.00310529 0)
(-0.0203983 -0.00326877 0)
(-0.0179155 -0.00339084 0)
(-0.0153574 -0.00346865 0)
(-0.0127551 -0.00350027 0)
(-0.0101406 -0.00348484 0)
(-0.00754634 -0.00342256 0)
(-0.00500433 -0.00331476 0)
(-0.00254562 -0.00316385 0)
(-0.000199543 -0.00297329 0)
(0.0020069 -0.00274743 0)
(0.00404965 -0.00249146 0)
(0.00590803 -0.00221117 0)
(0.00756522 -0.00191281 0)
(0.0090085 -0.00160279 0)
(0.0102294 -0.00128755 0)
(0.0112239 -0.000973302 0)
(0.0119918 -0.000665841 0)
(0.0125374 -0.000370372 0)
(0.0128681 -9.13744e-05 0)
(0.0129947 0.000167505 0)
(0.0129307 0.000403491 0)
(0.0126917 0.000614703 0)
(0.0122946 0.000800105 0)
(0.0117575 0.000959415 0)
(0.0110989 0.00109298 0)
(0.0103375 0.00120158 0)
(0.00949162 0.0012862 0)
(0.00857954 0.00134779 0)
(0.00761913 0.0013869 0)
(0.00662836 0.00140339 0)
(0.0056257 0.00139601 0)
(0.00463078 0.00136213 0)
(0.00366512 0.00129746 0)
(0.00275289 0.00119609 0)
(0.00192147 0.00105117 0)
(0.00120067 0.000856826 0)
(0.000619898 0.000612162 0)
(0.000211597 0.000329391 0)
(2.75798e-05 5.87736e-05 0)
(1.40216e-05 -9.59386e-05 0)
(4.8803e-05 -0.000164781 0)
(7.79286e-05 -0.000150618 0)
(7.22215e-05 -8.36186e-05 0)
(1.69341e-05 1.35378e-05 0)
(-9.47962e-05 0.000124409 0)
(-0.000265428 0.000238067 0)
(-0.00049441 0.000348086 0)
(-0.000779495 0.000451417 0)
(-0.00111782 0.000547398 0)
(-0.0015067 0.000636963 0)
(-0.00194413 0.000721996 0)
(-0.00242913 0.000804852 0)
(-0.00296181 0.000887989 0)
(-0.00354341 0.000973725 0)
(-0.00417619 0.00106407 0)
(-0.00486319 0.00116062 0)
(-0.00560812 0.00126454 0)
(-0.00641506 0.00137652 0)
(-0.00728826 0.00149685 0)
(-0.00823194 0.00162541 0)
(-0.00925004 0.00176171 0)
(-0.0103461 0.00190498 0)
(-0.0115231 0.00205414 0)
(-0.0127832 0.00220786 0)
(-0.0141276 0.00236458 0)
(-0.0155567 0.00252247 0)
(-0.0170694 0.00267948 0)
(-0.0186636 0.00283331 0)
(-0.0203355 0.0029814 0)
(-0.0220799 0.00312094 0)
(-0.02389 0.00324887 0)
(-0.0257569 0.00336189 0)
(-0.0276703 0.00345654 0)
(-0.0296176 0.00352917 0)
(-0.0315847 0.00357607 0)
(-0.0335554 0.0035935 0)
(-0.0355118 0.00357783 0)
(-0.0374346 0.00352556 0)
(-0.0393029 0.00343352 0)
(-0.0410947 0.00329891 0)
(-0.042787 0.00311946 0)
(-0.0443566 0.00289352 0)
(-0.0457798 0.00262016 0)
(-0.0470335 0.00229928 0)
(-0.048095 0.00193169 0)
(-0.0489429 0.00151918 0)
(-0.0495574 0.00106451 0)
(-0.0499208 0.000571448 0)
(-0.0500182 4.48808e-05 0)
(-0.0498368 -0.000508941 0)
(-0.0493662 -0.00108368 0)
(-0.0486017 -0.00167169 0)
(-0.0475411 -0.00226459 0)
(-0.0461863 -0.0028534 0)
(-0.0445432 -0.00342874 0)
(-0.0426221 -0.00398099 0)
(-0.0404373 -0.0045005 0)
(-0.0380073 -0.00497784 0)
(-0.0353544 -0.00540399 0)
(-0.0325047 -0.00577063 0)
(-0.0294876 -0.00607034 0)
(-0.0263354 -0.00629687 0)
(-0.0230829 -0.00644532 0)
(-0.0197669 -0.00651234 0)
(-0.0164253 -0.00649627 0)
(-0.0130967 -0.00639724 0)
(-0.00981944 -0.00621722 0)
(-0.00663117 -0.00596 0)
(-0.00356778 -0.00563113 0)
(-0.000662821 -0.00523775 0)
(0.00205318 -0.0047884 0)
(0.00455334 -0.00429275 0)
(0.00681498 -0.00376138 0)
(0.00882005 -0.0032053 0)
(0.0105553 -0.00263565 0)
(0.0120126 -0.00206341 0)
(0.0131888 -0.00149897 0)
(0.0140855 -0.000951852 0)
(0.014709 -0.000430475 0)
(0.0150697 5.80784e-05 0)
(0.0151816 0.000508168 0)
(0.0150617 0.000915653 0)
(0.0147295 0.00127784 0)
(0.0142062 0.00159339 0)
(0.0135143 0.00186206 0)
(0.0126767 0.00208445 0)
(0.0117169 0.00226163 0)
(0.0106584 0.00239467 0)
(0.00952474 0.00248412 0)
(0.00833972 0.00252948 0)
(0.00712777 0.00252863 0)
(0.0059145 0.00247735 0)
(0.00472731 0.00236913 0)
(0.00359611 0.00219525 0)
(0.00255379 0.00194601 0)
(0.00163554 0.00161331 0)
(0.000876177 0.00119568 0)
(0.0003197 0.000706959 0)
(4.94778e-05 0.000198864 0)
(1.01136e-05 -0.000119444 0)
(2.39552e-05 -0.000186102 0)
(9.55011e-06 -0.000140092 0)
(-5.71124e-05 -2.32861e-05 0)
(-0.000188629 0.000133805 0)
(-0.00039061 0.000309061 0)
(-0.000664435 0.000487761 0)
(-0.00100879 0.0006612 0)
(-0.00142098 0.000825265 0)
(-0.00189797 0.000979164 0)
(-0.00243712 0.00112435 0)
(-0.0030367 0.00126364 0)
(-0.00369619 0.00140054 0)
(-0.00441633 0.0015387 0)
(-0.00519911 0.00168156 0)
(-0.00604763 0.00183211 0)
(-0.00696589 0.00199269 0)
(-0.00795852 0.00216499 0)
(-0.00903052 0.00234998 0)
(-0.010187 0.00254798 0)
(-0.0114329 0.00275866 0)
(-0.0127729 0.00298113 0)
(-0.0142108 0.003214 0)
(-0.0157498 0.0034554 0)
(-0.0173918 0.00370304 0)
(-0.0191379 0.00395421 0)
(-0.0209875 0.00420582 0)
(-0.0229385 0.00445438 0)
(-0.0249871 0.004696 0)
(-0.0271277 0.00492641 0)
(-0.0293527 0.00514096 0)
(-0.0316524 0.00533466 0)
(-0.0340148 0.00550221 0)
(-0.036426 0.00563808 0)
(-0.0388696 0.00573657 0)
(-0.0413272 0.00579197 0)
(-0.0437783 0.00579863 0)
(-0.0462006 0.00575116 0)
(-0.0485701 0.00564455 0)
(-0.0508615 0.00547433 0)
(-0.0530485 0.00523676 0)
(-0.055104 0.00492899 0)
(-0.0570009 0.00454918 0)
(-0.0587123 0.00409666 0)
(-0.0602119 0.00357204 0)
(-0.0614746 0.0029773 0)
(-0.062477 0.00231584 0)
(-0.0631977 0.00159253 0)
(-0.0636179 0.000813646 0)
(-0.0637216 -1.30208e-05 0)
(-0.0634962 -0.000877865 0)
(-0.0629324 -0.00177109 0)
(-0.0620249 -0.00268118 0)
(-0.0607725 -0.00359562 0)
(-0.0591783 -0.00450126 0)
(-0.0572496 -0.00538438 0)
(-0.054998 -0.00623105 0)
(-0.0524398 -0.00702735 0)
(-0.0495953 -0.00775969 0)
(-0.046489 -0.0084151 0)
(-0.0431493 -0.0089816 0)
(-0.0396084 -0.00944848 0)
(-0.0359016 -0.00980663 0)
(-0.0320668 -0.0100488 0)
(-0.0281445 -0.0101699 0)
(-0.0241766 -0.0101672 0)
(-0.0202061 -0.0100405 0)
(-0.016276 -0.00979201 0)
(-0.0124289 -0.00942676 0)
(-0.00870623 -0.00895218 0)
(-0.00514699 -0.00837808 0)
(-0.00178742 -0.00771636 0)
(0.00133976 -0.00698068 0)
(0.00420615 -0.00618608 0)
(0.00678821 -0.00534851 0)
(0.00906746 -0.00448434 0)
(0.0110309 -0.00360983 0)
(0.0126713 -0.00274068 0)
(0.0139866 -0.00189152 0)
(0.0149804 -0.00107556 0)
(0.0156611 -0.000304206 0)
(0.0160417 0.0004131 0)
(0.0161392 0.00106905 0)
(0.0159737 0.00165843 0)
(0.0155681 0.00217801 0)
(0.0149474 0.00262625 0)
(0.0141377 0.00300297 0)
(0.0131663 0.00330876 0)
(0.0120609 0.0035444 0)
(0.0108498 0.00371017 0)
(0.00956177 0.00380503 0)
(0.0082263 0.00382595 0)
(0.00687404 0.00376726 0)
(0.00553732 0.00362037 0)
(0.00425079 0.00337405 0)
(0.00305214 0.00301569 0)
(0.00198161 0.00253419 0)
(0.0010801 0.00192482 0)
(0.000403888 0.00119694 0)
(6.55425e-05 0.000391352 0)
(4.83975e-06 -0.000127306 0)
(-9.35446e-06 -0.00016749 0)
(-8.07823e-05 -6.92156e-05 0)
(-0.000224935 0.000114982 0)
(-0.00045074 0.000347261 0)
(-0.000761639 0.000600414 0)
(-0.00115722 0.000856431 0)
(-0.00163494 0.00110479 0)
(-0.00219143 0.00134073 0)
(-0.00282342 0.00156363 0)
(-0.00352839 0.00177577 0)
(-0.00430506 0.00198111 0)
(-0.00515352 0.00218448 0)
(-0.00607535 0.00239089 0)
(-0.00707347 0.002605 0)
(-0.008152 0.00283081 0)
(-0.00931594 0.00307145 0)
(-0.0105709 0.0033291 0)
(-0.0119229 0.00360495 0)
(-0.0133778 0.00389922 0)
(-0.0149411 0.00421124 0)
(-0.0166181 0.00453951 0)
(-0.0184127 0.00488179 0)
(-0.020328 0.00523515 0)
(-0.0223659 0.00559602 0)
(-0.0245264 0.00596024 0)
(-0.026808 0.00632304 0)
(-0.0292072 0.00667913 0)
(-0.0317185 0.00702263 0)
(-0.0343339 0.00734714 0)
(-0.0370432 0.00764579 0)
(-0.0398337 0.00791125 0)
(-0.0426904 0.00813586 0)
(-0.0455953 0.00831173 0)
(-0.0485286 0.00843088 0)
(-0.0514677 0.0084854 0)
(-0.0543882 0.00846768 0)
(-0.0572637 0.00837054 0)
(-0.0600663 0.00818754 0)
(-0.0627671 0.00791312 0)
(-0.0653361 0.00754284 0)
(-0.0677434 0.00707359 0)
(-0.0699589 0.00650373 0)
(-0.0719534 0.00583327 0)
(-0.0736987 0.00506398 0)
(-0.0751682 0.00419947 0)
(-0.0763372 0.00324521 0)
(-0.0771836 0.00220858 0)
(-0.0776881 0.00109889 0)
(-0.0778344 -7.28364e-05 0)
(-0.0776099 -0.00129446 0)
(-0.0770051 -0.00255123 0)
(-0.0760151 -0.0038277 0)
(-0.074639 -0.00510731 0)
(-0.0728801 -0.00637253 0)
(-0.070746 -0.00760528 0)
(-0.0682488 -0.00878717 0)
(-0.0654051 -0.00989989 0)
(-0.0622359 -0.0109256 0)
(-0.0587664 -0.0118471 0)
(-0.055026 -0.0126486 0)
(-0.051048 -0.0133159 0)
(-0.0468692 -0.0138365 0)
(-0.0425297 -0.0142007 0)
(-0.0380722 -0.0144011 0)
(-0.0335415 -0.0144336 0)
(-0.0289838 -0.014297 0)
(-0.0244463 -0.0139936 0)
(-0.0199758 -0.0135291 0)
(-0.0156184 -0.0129126 0)
(-0.0114186 -0.0121561 0)
(-0.00741799 -0.0112747 0)
(-0.00365507 -0.0102861 0)
(-0.000164096 -0.00920965 0)
(0.00302551 -0.00806645 0)
(0.00588963 -0.0068783 0)
(0.00840989 -0.00566722 0)
(0.0105739 -0.0044547 0)
(0.0123755 -0.00326115 0)
(0.0138143 -0.00210529 0)
(0.0148958 -0.0010037 0)
(0.0156309 2.95257e-05 0)
(0.0160351 0.000982987 0)
(0.0161282 0.00184807 0)
(0.0159338 0.0026188 0)
(0.0154779 0.00329154 0)
(0.0147891 0.00386456 0)
(0.0138972 0.0043374 0)
(0.0128337 0.00471006 0)
(0.0116305 0.00498217 0)
(0.0103206 0.00515195 0)
(0.00893801 0.0052154 0)
(0.00751765 0.00516544 0)
(0.00609624 0.00499154 0)
(0.00471276 0.00467994 0)
(0.00340947 0.00421477 0)
(0.00223183 0.00358066 0)
(0.00122719 0.00276688 0)
(0.000463266 0.00177332 0)
(7.6203e-05 0.000622459 0)
(-1.38434e-06 -0.000115866 0)
(-4.8924e-05 -9.95287e-05 0)
(-0.000187987 7.53284e-05 0)
(-0.000423243 0.000346817 0)
(-0.00075863 0.000670772 0)
(-0.00119454 0.00101576 0)
(-0.00172816 0.00136126 0)
(-0.00235531 0.00169559 0)
(-0.00307169 0.00201389 0)
(-0.00387372 0.00231625 0)
(-0.00475905 0.00260609 0)
(-0.0057269 0.00288884 0)
(-0.0067782 0.00317089 0)
(-0.0079155 0.0034587 0)
(-0.00914285 0.00375826 0)
(-0.0104655 0.00407461 0)
(-0.0118896 0.00441166 0)
(-0.0134218 0.00477198 0)
(-0.015069 0.00515686 0)
(-0.0168378 0.00556628 0)
(-0.0187346 0.00599902 0)
(-0.0207646 0.00645273 0)
(-0.0229321 0.00692407 0)
(-0.0252399 0.00740874 0)
(-0.0276891 0.00790156 0)
(-0.0302791 0.00839653 0)
(-0.0330069 0.00888689 0)
(-0.0358674 0.00936511 0)
(-0.038853 0.00982293 0)
(-0.0419533 0.0102515 0)
(-0.0451554 0.0106413 0)
(-0.0484436 0.0109823 0)
(-0.0517993 0.0112644 0)
(-0.0552014 0.011477 0)
(-0.0586261 0.0116098 0)
(-0.0620474 0.0116525 0)
(-0.0654372 0.0115957 0)
(-0.0687658 0.0114306 0)
(-0.0720019 0.0111494 0)
(-0.0751137 0.0107458 0)
(-0.0780686 0.010215 0)
(-0.0808344 0.00955399 0)
(-0.0833791 0.0087617 0)
(-0.0856719 0.00783921 0)
(-0.0876834 0.00678982 0)
(-0.0893859 0.00561909 0)
(-0.0907542 0.00433485 0)
(-0.0917654 0.00294718 0)
(-0.0923998 0.00146834 0)
(-0.0926411 -8.73051e-05 0)
(-0.0924758 -0.00170312 0)
(-0.0918938 -0.00336149 0)
(-0.09089 -0.00504281 0)
(-0.0894628 -0.00672625 0)
(-0.0876148 -0.00838995 0)
(-0.0853528 -0.0100114 0)
(-0.0826881 -0.0115678 0)
(-0.0796366 -0.0130364 0)
(-0.0762185 -0.0143948 0)
(-0.0724587 -0.0156217 0)
(-0.0683864 -0.016697 0)
(-0.064035 -0.0176025 0)
(-0.0594419 -0.0183225 0)
(-0.0546483 -0.0188437 0)
(-0.0496985 -0.0191563 0)
(-0.0446396 -0.019254 0)
(-0.0395207 -0.0191343 0)
(-0.0343926 -0.0187989 0)
(-0.0293062 -0.0182536 0)
(-0.0243126 -0.0175086 0)
(-0.0194613 -0.0165778 0)
(-0.0147998 -0.0154792 0)
(-0.0103727 -0.014234 0)
(-0.00622044 -0.0128662 0)
(-0.00237875 -0.0114019 0)
(0.00112198 -0.00986841 0)
(0.00425742 -0.00829394 0)
(0.0070096 -0.00670618 0)
(0.00936712 -0.00513189 0)
(0.0113252 -0.003596 0)
(0.0128856 -0.002121 0)
(0.0140561 -0.000726498 0)
(0.0148502 0.000571174 0)
(0.0152866 0.00175906 0)
(0.0153883 0.00282759 0)
(0.0151821 0.00377017 0)
(0.0146978 0.00458279 0)
(0.0139675 0.00526324 0)
(0.0130252 0.0058102 0)
(0.0119062 0.00622221 0)
(0.0106473 0.00649653 0)
(0.00928597 0.006628 0)
(0.00786142 0.00660809 0)
(0.00641435 0.00642433 0)
(0.00498795 0.00606021 0)
(0.003629 0.00549608 0)
(0.00238823 0.00471105 0)
(0.00131937 0.00368616 0)
(0.000499738 0.00240855 0)
(8.23421e-05 0.000878826 0)
(-8.27331e-06 -8.23872e-05 0)
(-9.33423e-05 2.53473e-05 0)
(-0.000308824 0.000304511 0)
(-0.000646657 0.000685412 0)
(-0.00110466 0.00111883 0)
(-0.00167953 0.00157019 0)
(-0.0023655 0.0020174 0)
(-0.00315637 0.00244852 0)
(-0.00404672 0.00285933 0)
(-0.00503256 0.00325117 0)
(-0.00611174 0.00362911 0)
(-0.00728409 0.00400042 0)
(-0.0085515 0.00437324 0)
(-0.00991766 0.0047557 0)
(-0.0113879 0.00515515 0)
(-0.0129687 0.0055777 0)
(-0.0146674 0.00602792 0)
(-0.016492 0.00650872 0)
(-0.0184501 0.00702128 0)
(-0.0205493 0.00756516 0)
(-0.0227962 0.00813833 0)
(-0.0251964 0.00873734 0)
(-0.0277541 0.00935743 0)
(-0.0304717 0.00999258 0)
(-0.0333495 0.0106357 0)
(-0.0363858 0.0112785 0)
(-0.0395761 0.011912 0)
(-0.0429135 0.0125259 0)
(-0.046388 0.0131093 0)
(-0.0499869 0.0136505 0)
(-0.0536944 0.014137 0)
(-0.0574916 0.0145562 0)
(-0.0613568 0.0148948 0)
(-0.0652656 0.0151398 0)
(-0.069191 0.0152783 0)
(-0.0731036 0.0152982 0)
(-0.0769723 0.0151879 0)
(-0.0807645 0.0149373 0)
(-0.0844465 0.0145377 0)
(-0.087984 0.0139823 0)
(-0.0913427 0.0132663 0)
(-0.0944885 0.0123871 0)
(-0.0973884 0.0113445 0)
(-0.10001 0.0101411 0)
(-0.102324 0.0087818 0)
(-0.104301 0.00727435 0)
(-0.105915 0.00562903 0)
(-0.107144 0.00385869 0)
(-0.107966 0.00197849 0)
(-0.108363 6.14422e-06 0)
(-0.108322 -0.00203748 0)
(-0.107832 -0.00413199 0)
(-0.106886 -0.00625372 0)
(-0.10548 -0.00837771 0)
(-0.103616 -0.0104779 0)
(-0.101298 -0.0125274 0)
(-0.0985366 -0.014499 0)
(-0.095345 -0.0163653 0)
(-0.091742 -0.0180995 0)
(-0.0877511 -0.0196756 0)
(-0.0834004 -0.0210691 0)
(-0.0787225 -0.0222574 0)
(-0.0737549 -0.0232206 0)
(-0.068539 -0.0239419 0)
(-0.0631205 -0.0244079 0)
(-0.0575484 -0.0246096 0)
(-0.0518745 -0.0245425 0)
(-0.0461529 -0.0242068 0)
(-0.0404391 -0.023608 0)
(-0.0347889 -0.0227566 0)
(-0.0292577 -0.021668 0)
(-0.0238992 -0.0203625 0)
(-0.0187645 -0.0188648 0)
(-0.0139009 -0.0172029 0)
(-0.00935119 -0.0154082 0)
(-0.00515264 -0.0135139 0)
(-0.00133626 -0.0115544 0)
(0.00207363 -0.00956398 0)
(0.00505987 -0.00757643 0)
(0.00761254 -0.0056235 0)
(0.00972894 -0.0037344 0)
(0.0114133 -0.00193505 0)
(0.0126765 -0.000247601 0)
(0.0135354 0.00130978 0)
(0.0140121 0.002723 0)
(0.0141333 0.0039817 0)
(0.0139298 0.00507876 0)
(0.0134351 0.00600952 0)
(0.0126857 0.00677077 0)
(0.0117197 0.0073595 0)
(0.0105769 0.00777163 0)
(0.00929865 0.00800064 0)
(0.0079277 0.0080364 0)
(0.00650879 0.00786431 0)
(0.00508924 0.00746488 0)
(0.00372037 0.00681411 0)
(0.00245799 0.00588467 0)
(0.00136167 0.00464792 0)
(0.000516162 0.00307663 0)
(8.48197e-05 0.00114872 0)
(-1.57203e-05 -2.46126e-05 0)
(-0.000141893 0.000213312 0)
(-0.000441254 0.000627482 0)
(-0.000891471 0.00114202 0)
(-0.00148338 0.00170397 0)
(-0.00220939 0.00227689 0)
(-0.00306032 0.0028383 0)
(-0.00402763 0.003377 0)
(-0.00510462 0.00389027 0)
(-0.00628685 0.00438144 0)
(-0.00757237 0.00485779 0)
(-0.00896177 0.00532877 0)
(-0.010458 0.00580462 0)
(-0.012066 0.00629525 0)
(-0.0137926 0.00680946 0)
(-0.0156456 0.00735438 0)
(-0.0176337 0.00793518 0)
(-0.019766 0.0085549 0)
(-0.0220512 0.00921444 0)
(-0.0244975 0.00991267 0)
(-0.0271119 0.0106465 0)
(-0.0299003 0.011411 0)
(-0.0328665 0.0121998 0)
(-0.0360123 0.0130046 0)
(-0.0393372 0.0138162 0)
(-0.0428381 0.0146237 0)
(-0.0465089 0.0154153 0)
(-0.0503407 0.0161777 0)
(-0.0543211 0.0168972 0)
(-0.0584349 0.0175588 0)
(-0.0626634 0.018147 0)
(-0.0669848 0.0186459 0)
(-0.0713744 0.0190397 0)
(-0.0758048 0.0193126 0)
(-0.0802458 0.0194493 0)
(-0.0846657 0.0194357 0)
(-0.0890305 0.0192587 0)
(-0.0933054 0.0189071 0)
(-0.0974547 0.0183714 0)
(-0.101442 0.0176448 0)
(-0.105233 0.0167226 0)
(-0.108791 0.015603 0)
(-0.112082 0.014287 0)
(-0.115073 0.0127786 0)
(-0.117734 0.0110847 0)
(-0.120036 0.009215 0)
(-0.12195 0.00718233 0)
(-0.123453 0.00500218 0)
(-0.124524 0.00269269 0)
(-0.125141 0.000274706 0)
(-0.125291 -0.0022286 0)
(-0.124961 -0.00479235 0)
(-0.12414 -0.00738933 0)
(-0.122824 -0.00999077 0)
(-0.121011 -0.0125666 0)
(-0.118703 -0.0150856 0)
(-0.115907 -0.0175161 0)
(-0.112634 -0.0198261 0)
(-0.108901 -0.021984 0)
(-0.104729 -0.0239588 0)
(-0.100143 -0.0257213 0)
(-0.0951758 -0.027244 0)
(-0.0898633 -0.0285023 0)
(-0.084247 -0.0294746 0)
(-0.0783733 -0.0301438 0)
(-0.0722927 -0.0304972 0)
(-0.0660597 -0.0305272 0)
(-0.0597316 -0.0302319 0)
(-0.0533685 -0.0296154 0)
(-0.0470314 -0.0286879 0)
(-0.0407819 -0.0274656 0)
(-0.0346802 -0.0259707 0)
(-0.028785 -0.0242308 0)
(-0.0231511 -0.022278 0)
(-0.0178293 -0.0201487 0)
(-0.0128645 -0.0178821 0)
(-0.00829539 -0.0155191 0)
(-0.00415337 -0.0131013 0)
(-0.000462222 -0.01067 0)
(0.00276228 -0.00826436 0)
(0.00551239 -0.00592124 0)
(0.00778822 -0.00367371 0)
(0.0095974 -0.00155066 0)
(0.0109545 0.000423638 0)
(0.0118805 0.00222963 0)
(0.0124017 0.00385231 0)
(0.0125492 0.00528067 0)
(0.0123582 0.00650688 0)
(0.0118668 0.00752517 0)
(0.0111158 0.0083305 0)
(0.0101481 0.00891703 0)
(0.00900848 0.00927661 0)
(0.00774335 0.00939726 0)
(0.00640135 0.00926203 0)
(0.00503398 0.00884817 0)
(0.00369698 0.00812693 0)
(0.00245093 0.00706397 0)
(0.00136048 0.00562044 0)
(0.000515606 0.00375445 0)
(8.43747e-05 0.00142222 0)
(-2.36924e-05 5.94702e-05 0)
(-0.000194155 0.000469757 0)
(-0.000583959 0.00105227 0)
(-0.00115516 0.00172645 0)
(-0.00189089 0.00243713 0)
(-0.00277874 0.00314744 0)
(-0.00380576 0.00383584 0)
(-0.00496083 0.00449301 0)
(-0.00623584 0.00511873 0)
(-0.0076259 0.00571909 0)
(-0.00912933 0.0063042 0)
(-0.0107476 0.00688619 0)
(-0.0124847 0.00747766 0)
(-0.0143473 0.00809047 0)
(-0.0163434 0.00873491 0)
(-0.0184826 0.00941908 0)
(-0.0207749 0.0101486 0)
(-0.0232306 0.0109265 0)
(-0.0258592 0.011753 0)
(-0.0286698 0.0126262 0)
(-0.0316697 0.0135415 0)
(-0.0348646 0.0144923 0)
(-0.0382581 0.0154699 0)
(-0.0418514 0.0164639 0)
(-0.0456426 0.0174621 0)
(-0.0496274 0.0184509 0)
(-0.0537978 0.0194153 0)
(-0.0581426 0.0203389 0)
(-0.0626474 0.0212044 0)
(-0.0672942 0.0219937 0)
(-0.0720615 0.022688 0)
(-0.0769249 0.0232684 0)
(-0.0818568 0.0237161 0)
(-0.086827 0.0240128 0)
(-0.091803 0.024141 0)
(-0.0967505 0.0240847 0)
(-0.101634 0.0238298 0)
(-0.106415 0.0233639 0)
(-0.111059 0.0226774 0)
(-0.115527 0.0217634 0)
(-0.119782 0.0206177 0)
(-0.123788 0.0192395 0)
(-0.127511 0.017631 0)
(-0.130916 0.0157977 0)
(-0.133971 0.0137483 0)
(-0.136646 0.0114946 0)
(-0.138914 0.00905156 0)
(-0.140747 0.00643725 0)
(-0.142124 0.00367249 0)
(-0.143021 0.000780859 0)
(-0.143422 -0.00221199 0)
(-0.143312 -0.00527739 0)
(-0.142679 -0.00838467 0)
(-0.141513 -0.0115014 0)
(-0.13981 -0.0145937 0)
(-0.137569 -0.017626 0)
(-0.134794 -0.0205623 0)
(-0.131493 -0.0233658 0)
(-0.127679 -0.0259999 0)
(-0.12337 -0.0284285 0)
(-0.118589 -0.030617 0)
(-0.113367 -0.0325324 0)
(-0.107737 -0.0341447 0)
(-0.101741 -0.0354274 0)
(-0.0954249 -0.036358 0)
(-0.0888402 -0.0369193 0)
(-0.0820433 -0.0370998 0)
(-0.0750951 -0.0368944 0)
(-0.0680597 -0.0363049 0)
(-0.0610037 -0.0353401 0)
(-0.0539949 -0.0340162 0)
(-0.0471012 -0.0323566 0)
(-0.040389 -0.0303913 0)
(-0.0339219 -0.0281562 0)
(-0.0277595 -0.0256927 0)
(-0.0219556 -0.0230458 0)
(-0.0165575 -0.0202637 0)
(-0.011605 -0.0173955 0)
(-0.00712944 -0.0144907 0)
(-0.00315333 -0.0115969 0)
(0.000309723 -0.00875932 0)
(0.00325503 -0.00601926 0)
(0.00568649 -0.00341332 0)
(0.00761602 -0.000972891 0)
(0.00906292 0.00127608 0)
(0.010053 0.00331301 0)
(0.0106177 0.00512215 0)
(0.0107932 0.00669174 0)
(0.0106197 0.0080128 0)
(0.0101404 0.00907771 0)
(0.00940128 0.00987845 0)
(0.0084504 0.0104048 0)
(0.00733801 0.0106428 0)
(0.00611671 0.0105729 0)
(0.00484214 0.0101688 0)
(0.00357432 0.00939679 0)
(0.00237819 0.00821545 0)
(0.0013227 0.00657582 0)
(0.000501125 0.00442216 0)
(8.16501e-05 0.00169118 0)
(-3.22145e-05 0.00017171 0)
(-0.000249921 0.000799554 0)
(-0.000736076 0.00158598 0)
(-0.00143593 0.00244737 0)
(-0.00232426 0.00332798 0)
(-0.00338341 0.0041921 0)
(-0.00459635 0.00502057 0)
(-0.00594923 0.00580726 0)
(-0.00743248 0.00655552 0)
(-0.00904075 0.0072751 0)
(-0.0107728 0.00797961 0)
(-0.0126309 0.00868432 0)
(-0.0146205 0.00940451 0)
(-0.0167498 0.0101542 0)
(-0.0190286 0.010945 0)
(-0.0214678 0.0117862 0)
(-0.024079 0.0126834 0)
(-0.0268737 0.0136395 0)
(-0.0298623 0.014654 0)
(-0.0330545 0.0157235 0)
(-0.0364578 0.0168417 0)
(-0.0400779 0.018 0)
(-0.0439178 0.019187 0)
(-0.0479777 0.0203897 0)
(-0.0522548 0.0215929 0)
(-0.0567428 0.0227795 0)
(-0.061432 0.0239313 0)
(-0.0663091 0.0250283 0)
(-0.0713572 0.0260497 0)
(-0.0765556 0.0269739 0)
(-0.0818805 0.0277789 0)
(-0.0873046 0.0284425 0)
(-0.0927979 0.0289433 0)
(-0.0983276 0.0292605 0)
(-0.103859 0.0293746 0)
(-0.109356 0.0292682 0)
(-0.114781 0.0289259 0)
(-0.120095 0.0283349 0)
(-0.12526 0.0274854 0)
(-0.130238 0.0263707 0)
(-0.13499 0.0249873 0)
(-0.139479 0.0233353 0)
(-0.14367 0.0214181 0)
(-0.147527 0.0192428 0)
(-0.151018 0.0168196 0)
(-0.154111 0.0141623 0)
(-0.156776 0.011288 0)
(-0.158986 0.00821674 0)
(-0.160715 0.00497183 0)
(-0.161941 0.00157938 0)
(-0.162642 -0.0019321 0)
(-0.162802 -0.00553131 0)
(-0.162405 -0.00918407 0)
(-0.16144 -0.0128546 0)
(-0.159899 -0.016505 0)
(-0.157776 -0.0200959 0)
(-0.155073 -0.0235868 0)
(-0.151793 -0.026936 0)
(-0.147946 -0.030102 0)
(-0.143545 -0.0330431 0)
(-0.138613 -0.0357191 0)
(-0.133174 -0.038091 0)
(-0.127261 -0.0401229 0)
(-0.120913 -0.0417819 0)
(-0.114175 -0.04304 0)
(-0.107099 -0.0438741 0)
(-0.0997429 -0.0442676 0)
(-0.0921694 -0.044211 0)
(-0.0844467 -0.0437025 0)
(-0.0766466 -0.0427486 0)
(-0.0688435 -0.0413642 0)
(-0.061113 -0.039573 0)
(-0.0535302 -0.0374065 0)
(-0.0461682 -0.0349042 0)
(-0.0390966 -0.032112 0)
(-0.0323795 -0.0290812 0)
(-0.0260742 -0.025867 0)
(-0.0202302 -0.0225271 0)
(-0.0148878 -0.0191196 0)
(-0.0100774 -0.0157017 0)
(-0.00581979 -0.0123281 0)
(-0.00212518 -0.0090492 0)
(0.00100582 -0.00591064 0)
(0.00358197 -0.00295204 0)
(0.00562061 -0.000206805 0)
(0.00714672 0.00229788 0)
(0.00819199 0.0045406 0)
(0.00879373 0.00650486 0)
(0.00899402 0.00817782 0)
(0.00883874 0.00954864 0)
(0.00837689 0.0106067 0)
(0.00766016 0.0113394 0)
(0.00674263 0.0117303 0)
(0.00568096 0.0117572 0)
(0.00453496 0.0113902 0)
(0.00336882 0.0105906 0)
(0.00225146 0.0093101 0)
(0.00125542 0.00749041 0)
(0.000475707 0.00506335 0)
(7.72272e-05 0.00194907 0)
(-4.1275e-05 0.000313852 0)
(-0.000309015 0.00120719 0)
(-0.000896961 0.00223507 0)
(-0.00173241 0.00331253 0)
(-0.00278115 0.00438509 0)
(-0.00401997 0.0054199 0)
(-0.00542752 0.00640183 0)
(-0.00698711 0.0073293 0)
(-0.00868771 0.00821042 0)
(-0.0105236 0.00905954 0)
(-0.012494 0.00989447 0)
(-0.0146022 0.0107341 0)
(-0.0168554 0.0115968 0)
(-0.0192632 0.0124987 0)