/*--------------------------------*- C++ -*----------------------------------*\
  =========                 |
  \\      /  F ield         | OpenFOAM: The Open Source CFD Toolbox
   \\    /   O peration     | Website:  https://openfoam.org
    \\  /    A nd           | Version:  9
     \\/     M anipulation  |
\*---------------------------------------------------------------------------*/
FoamFile
{
    format      ascii;
    class       surfaceScalarField;
    location    "0.5";
    object      phi;
}
// * * * * * * * * * * * * * * * * * * * * * * * * * * * * * * * * * * * * * //

dimensions      [0 3 -1 0 0 0 0];

internalField   nonuniform List<scalar> 
2446
(
-9.36856e-07
1.19082e-06
-1.00904e-06
1.25898e-06
-1.08852e-06
1.33702e-06
-1.17524e-06
1.42389e-06
-1.26863e-06
1.51717e-06
-1.36761e-06
1.61286e-06
-1.47067e-06
1.70528e-06
-1.57586e-06
1.78818e-06
-1.68089e-06
1.85501e-06
-1.78336e-06
1.89955e-06
-1.88097e-06
1.91671e-06
-1.97173e-06
1.90306e-06
-2.05412e-06
1.85711e-06
-2.12715e-06
1.77931e-06
-2.19044e-06
1.67183e-06
-2.24415e-06
1.53809e-06
-2.28889e-06
1.38231e-06
-2.32557e-06
1.209e-06
-2.35527e-06
1.02248e-06
-2.37909e-06
8.26649e-07
-2.39802e-06
6.24753e-07
-2.41289e-06
4.19384e-07
-2.42435e-06
2.1254e-07
-2.43288e-06
5.75657e-09
-2.43881e-06
-1.99763e-07
-4.03285e-07
-9.03542e-07
1.25312e-06
-9.72259e-07
1.3277e-06
-1.0475e-06
1.41226e-06
-1.12906e-06
1.50545e-06
-1.21628e-06
1.60438e-06
-1.30797e-06
1.70456e-06
-1.4027e-06
1.8e-06
-1.49858e-06
1.88407e-06
-1.59353e-06
1.94995e-06
-1.68538e-06
1.9914e-06
-1.77216e-06
2.00349e-06
-1.8522e-06
1.9831e-06
-1.92432e-06
1.92922e-06
-1.98784e-06
1.84284e-06
-2.04266e-06
1.72665e-06
-2.08914e-06
1.58457e-06
-2.12801e-06
1.42118e-06
-2.16022e-06
1.24121e-06
-2.1868e-06
1.04907e-06
-2.20873e-06
8.4858e-07
-2.22682e-06
6.42837e-07
-2.24165e-06
4.34218e-07
-2.25362e-06
2.24503e-07
-2.2629e-06
1.50451e-08
-2.2696e-06
-1.93064e-07
-3.99092e-07
-8.63412e-07
1.31167e-06
-9.27631e-07
1.39192e-06
-9.97501e-07
1.48213e-06
-1.07269e-06
1.58064e-06
-1.15248e-06
1.68417e-06
-1.23576e-06
1.78783e-06
-1.32111e-06
1.88535e-06
-1.40684e-06
1.9698e-06
-1.49109e-06
2.0342e-06
-1.57203e-06
2.07234e-06
-1.64799e-06
2.07945e-06
-1.71769e-06
2.0528e-06
-1.78025e-06
1.99178e-06
-1.83529e-06
1.89788e-06
-1.88292e-06
1.77428e-06
-1.92362e-06
1.62528e-06
-1.9582e-06
1.45575e-06
-1.98756e-06
1.27057e-06
-2.01262e-06
1.07413e-06
-2.03419e-06
8.70144e-07
-2.05284e-06
6.61489e-07
-2.06892e-06
4.50305e-07
-2.08257e-06
2.38146e-07
-2.09371e-06
2.61894e-08
-2.10221e-06
-1.84565e-07
-3.93363e-07
-8.16703e-07
1.3656e-06
-8.75472e-07
1.45069e-06
-9.38952e-07
1.54561e-06
-1.00673e-06
1.64842e-06
-1.07809e-06
1.75553e-06
-1.15199e-06
1.86173e-06
-1.22716e-06
1.96052e-06
-1.30213e-06
2.04477e-06
-1.37533e-06
2.10741e-06
-1.44528e-06
2.14228e-06
-1.51068e-06
2.14486e-06
-1.57058e-06
2.11269e-06
-1.6244e-06
2.0456e-06
-1.67202e-06
1.94549e-06
-1.71366e-06
1.81592e-06
-1.74991e-06
1.66152e-06
-1.78151e-06
1.48735e-06
-1.80928e-06
1.29835e-06
-1.834e-06
1.09885e-06
-1.85623e-06
8.92379e-07
-1.87635e-06
6.81604e-07
-1.89446e-06
4.68416e-07
-1.91046e-06
2.54151e-07
-1.9241e-06
3.98277e-08
-1.93504e-06
-1.73625e-07
-3.85424e-07
-7.63873e-07
1.41415e-06
-8.16375e-07
1.50319e-06
-8.72611e-07
1.60185e-06
-9.32133e-07
1.70794e-06
-9.9425e-07
1.81765e-06
-1.05805e-06
1.92553e-06
-1.12245e-06
2.02493e-06
-1.18626e-06
2.10857e-06
-1.24824e-06
2.16939e-06
-1.30728e-06
2.20132e-06
-1.36246e-06
2.20003e-06
-1.41312e-06
2.16336e-06
-1.45898e-06
2.09146e-06
-1.50007e-06
1.98658e-06
-1.53672e-06
1.85258e-06
-1.56949e-06
1.6943e-06
-1.59906e-06
1.51692e-06
-1.62609e-06
1.32538e-06
-1.65115e-06
1.1239e-06
-1.67459e-06
9.15824e-07
-1.69657e-06
7.03585e-07
-1.71701e-06
4.88849e-07
-1.73561e-06
2.72759e-07
-1.75199e-06
5.62014e-08
-1.76566e-06
-1.59949e-07
-3.74871e-07
-7.0553e-07
1.4567e-06
-7.51094e-07
1.54875e-06
-7.99403e-07
1.65016e-06
-8.50001e-07
1.75854e-06
-9.02269e-07
1.86991e-06
-9.55449e-07
1.97871e-06
-1.00869e-06
2.07817e-06
-1.0611e-06
2.16098e-06
-1.11182e-06
2.22011e-06
-1.16011e-06
2.2496e-06
-1.20538e-06
2.2453e-06
-1.24731e-06
2.20529e-06
-1.28581e-06
2.12997e-06
-1.32106e-06
2.02183e-06
-1.35341e-06
1.88493e-06
-1.38336e-06
1.72424e-06
-1.41144e-06
1.545e-06
-1.43812e-06
1.35206e-06
-1.46377e-06
1.14954e-06
-1.48853e-06
9.40587e-07
-1.51237e-06
7.27422e-07
-1.53503e-06
5.11517e-07
-1.55614e-06
2.9386e-07
-1.57517e-06
7.52333e-08
-1.59159e-06
-1.43523e-07
-3.61544e-07
-6.42405e-07
1.49272e-06
-6.80513e-07
1.58686e-06
-7.20384e-07
1.69003e-06
-7.61582e-07
1.79974e-06
-8.03579e-07
1.91191e-06
-8.45797e-07
2.02093e-06
-8.87644e-07
2.12001e-06
-9.28554e-07
2.20189e-06
-9.68036e-07
2.2596e-06
-1.00571e-06
2.28728e-06
-1.04136e-06
2.28095e-06
-1.07491e-06
2.23884e-06
-1.10648e-06
2.16153e-06
-1.1363e-06
2.05165e-06
-1.16472e-06
1.91335e-06
-1.19213e-06
1.75165e-06
-1.21888e-06
1.57176e-06
-1.24526e-06
1.37844e-06
-1.27139e-06
1.17567e-06
-1.29724e-06
9.6644e-07
-1.32261e-06
7.52796e-07
-1.34715e-06
5.36057e-07
-1.37039e-06
3.17093e-07
-1.39177e-06
9.66199e-08
-1.41075e-06
-1.24541e-07
-3.45479e-07
-5.75326e-07
1.52186e-06
-6.05613e-07
1.61715e-06
-6.36708e-07
1.72112e-06
-6.68204e-07
1.83123e-06
-6.99684e-07
1.94339e-06
-7.30759e-07
2.052e-06
-7.61106e-07
2.15036e-06
-7.90492e-07
2.23128e-06
-8.18789e-07
2.28789e-06
-8.45984e-07
2.31448e-06
-8.72172e-07
2.30714e-06
-8.97541e-07
2.26421e-06
-9.22347e-07
2.18634e-06
-9.46883e-07
2.07618e-06
-9.71445e-07
1.93791e-06
-9.96283e-07
1.77649e-06
-1.02157e-06
1.59704e-06
-1.04737e-06
1.40424e-06
-1.07362e-06
1.20192e-06
-1.1001e-06
9.92925e-07
-1.1265e-06
7.79193e-07
-1.15238e-06
5.61937e-07
-1.17724e-06
3.41954e-07
-1.20055e-06
1.19926e-07
-1.22176e-06
-1.03329e-07
-3.26847e-07
-5.05176e-07
1.54388e-06
-5.27435e-07
1.63941e-06
-5.49579e-07
1.74327e-06
-5.71243e-07
1.8529e-06
-5.92122e-07
1.96427e-06
-6.12019e-07
2.0719e-06
-6.30874e-07
2.16922e-06
-6.48777e-07
2.24918e-06
-6.65953e-07
2.30507e-06
-6.82733e-07
2.33126e-06
-6.99516e-07
2.32392e-06
-7.16717e-07
2.28141e-06
-7.34727e-07
2.20435e-06
-7.5387e-07
2.09533e-06
-7.74372e-07
1.95841e-06
-7.96346e-07
1.79846e-06
-8.19778e-07
1.62048e-06
-8.44528e-07
1.42899e-06
-8.70341e-07
1.22773e-06
-8.96864e-07
1.01945e-06
-9.23673e-07
8.06002e-07
-9.50293e-07
5.88556e-07
-9.76222e-07
3.67883e-07
-1.00096e-06
1.44664e-07
-1.02402e-06
-8.02678e-08
-3.05894e-07
-4.32872e-07
1.55867e-06
-4.47043e-07
1.65358e-06
-4.6022e-07
1.75644e-06
-4.72081e-07
1.86476e-06
-4.82429e-07
1.97462e-06
-4.91245e-07
2.08072e-06
-4.98719e-07
2.17669e-06
-5.05241e-07
2.2557e-06
-5.11365e-07
2.31119e-06
-5.17747e-07
2.33764e-06
-5.25069e-07
2.33124e-06
-5.33962e-07
2.29031e-06
-5.44944e-07
2.21533e-06
-5.58363e-07
2.10875e-06
-5.74386e-07
1.97443e-06
-5.92992e-07
1.81707e-06
-6.13995e-07
1.64148e-06
-6.37074e-07
1.45207e-06
-6.61806e-07
1.25246e-06
-6.87715e-07
1.04536e-06
-7.14296e-07
8.32584e-07
-7.41052e-07
6.15311e-07
-7.67502e-07
3.94334e-07
-7.93199e-07
1.7036e-07
-8.17724e-07
-5.57423e-08
-2.82895e-07
-3.59335e-07
1.56628e-06
-3.65497e-07
1.65974e-06
-3.69839e-07
1.76079e-06
-3.72077e-07
1.867e-06
-3.72108e-07
1.97465e-06
-3.7007e-07
2.07868e-06
-3.66373e-07
2.17299e-06
-3.61677e-07
2.25101e-06
-3.56837e-07
2.30635e-06
-3.52806e-07
2.33361e-06
-3.50532e-07
2.32897e-06
-3.50851e-07
2.29062e-06
-3.5442e-07
2.2189e-06
-3.61619e-07
2.11594e-06
-3.72571e-07
1.98538e-06
-3.8715e-07
1.83165e-06
-4.05025e-07
1.65935e-06
-4.2572e-07
1.47276e-06
-4.48675e-07
1.27542e-06
-4.733e-07
1.06998e-06
-4.99035e-07
8.58318e-07
-5.25366e-07
6.41643e-07
-5.51842e-07
4.2081e-07
-5.78072e-07
1.9659e-07
-6.03716e-07
-3.00977e-08
-2.58109e-07
-2.8546e-07
1.56684e-06
-2.83823e-07
1.6581e-06
-2.796e-07
1.75656e-06
-2.72535e-07
1.85993e-06
-2.62599e-07
1.96471e-06
-2.50059e-07
2.06614e-06
-2.35508e-07
2.15844e-06
-2.19837e-07
2.23534e-06
-2.04161e-07
2.29068e-06
-1.89706e-07
2.31915e-06
-1.77665e-07
2.31692e-06
-1.69062e-07
2.28202e-06
-1.6474e-07
2.21458e-06
-1.65106e-07
2.11631e-06
-1.70276e-07
1.99055e-06
-1.80063e-07
1.84144e-06
-1.9402e-07
1.67331e-06
-2.11567e-07
1.49031e-06
-2.32028e-07
1.29588e-06
-2.54713e-07
1.09267e-06
-2.79018e-07
8.82623e-07
-3.0442e-07
6.67045e-07
-3.30494e-07
4.46884e-07
-3.56902e-07
2.22997e-07
-3.83377e-07
-3.6221e-09
-2.31764e-07
-2.12096e-07
1.56061e-06
-2.02985e-07
1.64899e-06
-1.90591e-07
1.74417e-06
-1.74673e-07
1.84401e-06
-1.5525e-07
1.94529e-06
-1.32687e-07
2.04358e-06
-1.07715e-07
2.13347e-06
-8.14086e-08
2.20903e-06
-5.51063e-08
2.26437e-06
-3.02727e-08
2.29432e-06
-8.35163e-09
2.295e-06
9.39436e-09
2.26428e-06
2.21898e-08
2.20178e-06
2.93732e-08
2.10913e-06
3.07796e-08
1.98915e-06
2.66272e-08
1.84559e-06
1.73957e-08
1.68254e-06
3.80965e-09
1.5039e-06
-1.33707e-08
1.31306e-06
-3.34609e-08
1.11276e-06
-5.57868e-08
9.04949e-07
-7.98079e-08
6.91066e-07
-1.05115e-07
4.7219e-07
-1.31412e-07
2.49294e-07
-1.58494e-07
2.34602e-08
-2.04036e-07
-1.40026e-07
1.54794e-06
-1.23866e-07
1.63283e-06
-1.03802e-07
1.7241e-06
-7.95981e-08
1.81981e-06
-5.12882e-08
1.91698e-06
-1.93043e-08
2.01159e-06
1.55326e-08
2.09863e-06
5.20156e-08
2.17255e-06
8.86439e-08
2.22775e-06
1.23764e-07
2.2592e-06
1.5575e-07
2.26302e-06
1.8317e-07
2.23686e-06
2.04862e-07
2.18009e-06
2.20185e-07
2.0938e-06
2.28908e-07
1.98043e-06
2.31203e-07
1.84329e-06
2.2758e-07
1.68617e-06
2.18734e-07
1.51274e-06
2.05465e-07
1.32633e-06
1.88576e-07
1.12965e-06
1.68746e-07
9.24778e-07
1.46522e-07
7.1329e-07
1.22303e-07
4.9641e-07
9.63546e-08
2.75243e-07
6.88442e-08
5.09706e-08
-1.7505e-07
-6.99522e-08
1.52924e-06
-4.72494e-08
1.61013e-06
-2.0099e-08
1.69695e-06
1.1749e-08
1.78796e-06
4.82098e-08
1.88052e-06
8.88835e-08
1.97092e-06
1.32897e-07
2.05462e-06
1.78963e-07
2.12648e-06
2.25463e-07
2.18125e-06
2.70594e-07
2.21407e-06
3.12547e-07
2.22107e-06
3.49693e-07
2.19971e-06
3.80734e-07
2.14905e-06
4.04833e-07
2.06971e-06
4.21625e-07
1.96363e-06
4.31197e-07
1.83372e-06
4.33995e-07
1.68337e-06
4.3071e-07
1.51603e-06
4.22145e-07
1.33489e-06
4.09106e-07
1.14269e-06
3.92301e-07
9.41584e-07
3.72289e-07
7.33301e-07
3.49471e-07
5.19228e-07
3.24097e-07
3.00616e-07
2.96315e-07
7.87528e-08
-1.44919e-07
-2.48339e-09
1.50496e-06
2.61949e-08
1.58145e-06
5.97527e-08
1.6634e-06
9.84633e-08
1.74925e-06
1.42309e-07
1.83667e-06
1.90854e-07
1.92237e-06
2.43231e-07
2.00224e-06
2.98131e-07
2.07158e-06
3.5388e-07
2.1255e-06
4.08576e-07
2.15937e-06
4.60271e-07
2.16937e-06
5.07171e-07
2.15281e-06
5.47794e-07
2.10842e-06
5.81112e-07
2.03639e-06
6.06586e-07
1.93816e-06
6.24155e-07
1.81615e-06
6.34154e-07
1.67337e-06
6.37199e-07
1.51298e-06
6.34052e-07
1.33804e-06
6.25502e-07
1.15124e-06
6.12258e-07
9.54828e-07
5.9489e-07
7.50669e-07
5.73806e-07
5.40312e-07
5.4926e-07
3.25162e-07
5.21388e-07
1.06625e-07
4.90244e-07
-1.13775e-07
4.5582e-07
-3.34337e-07
4.18124e-07
-5.53035e-07
-7.67554e-07
6.1814e-08
1.47565e-06
9.58807e-08
1.54738e-06
1.3517e-07
1.62411e-06
1.79978e-07
1.70444e-06
2.30314e-07
1.78634e-06
2.85799e-07
1.86689e-06
3.45602e-07
1.94244e-06
4.08444e-07
2.00874e-06
4.72644e-07
2.0613e-06
5.36259e-07
2.09576e-06
5.9725e-07
2.10838e-06
6.53681e-07
2.09638e-06
7.03899e-07
2.05821e-06
7.4667e-07
1.99362e-06
7.8125e-07
1.90358e-06
8.07385e-07
1.79002e-06
8.25244e-07
1.65551e-06
8.35312e-07
1.50291e-06
8.38261e-07
1.33509e-06
8.34824e-07
1.15467e-06
8.25686e-07
9.63966e-07
8.11414e-07
7.64941e-07
7.92425e-07
5.59301e-07
7.68985e-07
3.48602e-07
7.41234e-07
1.34376e-07
7.09219e-07
-8.17597e-08
6.72945e-07
-2.98063e-07
6.32396e-07
-5.12486e-07
-7.22767e-07
1.22605e-07
1.4418e-06
1.61429e-07
1.50856e-06
2.05714e-07
1.57982e-06
2.55785e-07
1.65437e-06
3.11695e-07
1.73043e-06
3.73129e-07
1.80546e-06
4.39331e-07
1.87624e-06
5.09088e-07
1.93898e-06
5.80772e-07
1.98961e-06
6.5245e-07
2.02408e-06
7.22042e-07
2.03879e-06
7.87515e-07
2.03091e-06
8.4706e-07
1.99866e-06
8.99246e-07
1.94143e-06
9.43106e-07
1.85972e-06
9.78157e-07
1.75497e-06
1.00436e-06
1.62931e-06
1.02201e-06
1.48526e-06
1.03165e-06
1.32545e-06
1.0339e-06
1.15242e-06
1.0294e-06
9.68464e-07
1.0187e-06
7.75648e-07
1.0022e-06
5.75801e-07
9.80181e-07
3.70617e-07
9.52807e-07
1.6175e-07
9.20107e-07
-4.90604e-08
8.82153e-07
-2.60109e-07
8.38919e-07
-4.69251e-07
-6.74317e-07
1.79608e-07
1.40398e-06
2.22545e-07
1.46562e-06
2.7109e-07
1.53128e-06
3.25587e-07
1.59988e-06
3.86135e-07
1.66988e-06
4.52493e-07
1.7391e-06
5.23999e-07
1.80473e-06
5.99545e-07
1.86344e-06
6.77598e-07
1.91156e-06
7.56286e-07
1.94539e-06
8.33544e-07
1.96153e-06
9.07285e-07
1.95716e-06
9.75585e-07
1.93036e-06
1.03683e-06
1.88018e-06
1.08984e-06
1.80671e-06
1.13388e-06
1.71093e-06
1.16866e-06
1.59453e-06
1.19426e-06
1.45966e-06
1.21104e-06
1.30868e-06
1.21947e-06
1.14398e-06
1.2201e-06
9.67832e-07
1.21343e-06
7.82326e-07
1.19983e-06
5.89393e-07
1.17961e-06
3.90839e-07
1.15294e-06
1.8842e-07
1.11985e-06
-1.59684e-08
1.08048e-06
-2.20742e-07
1.03483e-06
-4.23598e-07
-6.22488e-07
2.32625e-07
1.36272e-06
2.79054e-07
1.41919e-06
3.31142e-07
1.47919e-06
3.89247e-07
1.54177e-06
4.53511e-07
1.60561e-06
5.23766e-07
1.66884e-06
5.9946e-07
1.72904e-06
6.79608e-07
1.78329e-06
7.62807e-07
1.82836e-06
8.47294e-07
1.86091e-06
9.31066e-07
1.87776e-06
1.01204e-06
1.87619e-06
1.08822e-06
1.85418e-06
1.15784e-06
1.81056e-06
1.21953e-06
1.74503e-06
1.27229e-06
1.65816e-06
1.3156e-06
1.55123e-06
1.34927e-06
1.42599e-06
1.37343e-06
1.28452e-06
1.38839e-06
1.12902e-06
1.39455e-06
9.6167e-07
1.39232e-06
7.84554e-07
1.38206e-06
5.99655e-07
1.36404e-06
4.08864e-07
1.33843e-06
2.14029e-07
1.30542e-06
1.70409e-08
1.26499e-06
-1.80311e-07
1.2173e-06
-3.75911e-07
-5.67685e-07
2.81536e-07
1.31853e-06
3.30875e-07
1.36985e-06
3.85833e-07
1.42423e-06
4.46774e-07
1.48083e-06
5.13875e-07
1.53851e-06
5.87039e-07
1.59568e-06
6.65821e-07
1.65026e-06
7.49374e-07
1.69974e-06
8.36445e-07
1.74129e-06
9.25413e-07
1.77194e-06
1.01439e-06
1.78878e-06
1.10133e-06
1.78925e-06
1.18424e-06
1.77128e-06
1.26124e-06
1.73355e-06
1.33079e-06
1.67548e-06
1.39169e-06
1.59726e-06
1.44313e-06
1.49978e-06
1.48468e-06
1.38444e-06
1.51622e-06
1.25298e-06
1.53785e-06
1.1074e-06
1.5498e-06
9.49722e-07
1.55236e-06
7.81992e-07
1.54582e-06
6.06194e-07
1.53042e-06
4.24259e-07
1.50636e-06
2.38089e-07
1.47381e-06
4.95965e-08
1.43284e-06
-1.39341e-07
1.38364e-06
-3.2671e-07
-5.10459e-07
3.26303e-07
1.27185e-06
3.78019e-07
1.31814e-06
4.35231e-07
1.36702e-06
4.98301e-07
1.41776e-06
5.67431e-07
1.46938e-06
6.42584e-07
1.52053e-06
7.23416e-07
1.56942e-06
8.09217e-07
1.61394e-06
8.98893e-07
1.65161e-06
9.90991e-07
1.67984e-06
1.08376e-06
1.69601e-06
1.17527e-06
1.69774e-06
1.26354e-06
1.68302e-06
1.34666e-06
1.65042e-06
1.42296e-06
1.59917e-06
1.49106e-06
1.52917e-06
1.54992e-06
1.44093e-06
1.59885e-06
1.33551e-06
1.63747e-06
1.21436e-06
1.66566e-06
1.07921e-06
1.68346e-06
9.31924e-07
1.69101e-06
7.74439e-07
1.68851e-06
6.08697e-07
1.67614e-06
4.36626e-07
1.65409e-06
2.60142e-07
1.62252e-06
8.11634e-08
1.58159e-06
-9.84051e-08
1.5315e-06
-2.76625e-07
-4.51491e-07
3.66958e-07
1.22312e-06
4.20569e-07
1.26453e-06
4.79487e-07
1.3081e-06
5.4406e-07
1.35319e-06
6.14501e-07
1.39894e-06
6.90821e-07
1.44421e-06
7.72762e-07
1.48748e-06
8.59742e-07
1.52696e-06
9.50827e-07
1.56053e-06
1.04474e-06
1.58593e-06
1.13989e-06
1.60086e-06
1.23448e-06
1.60314e-06
1.32662e-06
1.59088e-06
1.41442e-06
1.56263e-06
1.49612e-06
1.51747e-06
1.57022e-06
1.45507e-06
1.63547e-06
1.37567e-06
1.69097e-06
1.28001e-06
1.73609e-06
1.16924e-06
1.77047e-06
1.04482e-06
1.79396e-06
9.08439e-07
1.80653e-06
7.61872e-07
1.80824e-06
6.06979e-07
1.79923e-06
4.4564e-07
1.77963e-06
2.79743e-07
1.74961e-06
1.11186e-07
1.70933e-06
-5.81297e-08
1.65908e-06
-2.26375e-07
-3.91574e-07
4.03588e-07
1.1727e-06
4.58673e-07
1.20944e-06
5.18822e-07
1.24795e-06
5.84359e-07
1.28765e-06
6.55497e-07
1.3278e-06
7.32278e-07
1.36743e-06
8.14512e-07
1.40525e-06
9.0173e-07
1.43974e-06
9.93145e-07
1.46911e-06
1.08765e-06
1.49143e-06
1.18384e-06
1.50467e-06
1.28007e-06
1.5069e-06
1.37457e-06
1.49638e-06
1.4655e-06
1.47169e-06
1.55111e-06
1.43186e-06
1.6298e-06
1.37638e-06
1.7002e-06
1.30528e-06
1.76119e-06
1.21901e-06
1.81196e-06
1.11847e-06
1.85191e-06
1.00487e-06
1.88069e-06
8.79662e-07
1.89809e-06
7.44466e-07
1.90406e-06
6.01012e-07
1.89861e-06
4.51088e-07
1.88184e-06
2.96519e-07
1.85389e-06
1.39136e-07
1.81491e-06
-1.91585e-08
1.76526e-06
-1.76721e-07
-3.31564e-07
4.36321e-07
1.12093e-06
4.9252e-07
1.15324e-06
5.53501e-07
1.18697e-06
6.19557e-07
1.22159e-06
6.90887e-07
1.25647e-06
7.67547e-07
1.29076e-06
8.49402e-07
1.32339e-06
9.36071e-07
1.35307e-06
1.0269e-06
1.37829e-06
1.12094e-06
1.39739e-06
1.21695e-06
1.40866e-06
1.31349e-06
1.41037e-06
1.40889e-06
1.40097e-06
1.50145e-06
1.37914e-06
1.58944e-06
1.34387e-06
1.67123e-06
1.29459e-06
1.74537e-06
1.23113e-06
1.81062e-06
1.15376e-06
1.86597e-06
1.06313e-06
1.91065e-06
9.60194e-07
1.9441e-06
8.46206e-07
1.96597e-06
7.22598e-07
1.97604e-06
5.90941e-07
1.97423e-06
4.52903e-07
1.96054e-06
3.10204e-07
1.93508e-06
1.64595e-07
1.89809e-06
1.78388e-08
1.84976e-06
-1.2839e-07
-2.72336e-07
4.65327e-07
1.06809e-06
5.22338e-07
1.09623e-06
5.83825e-07
1.12548e-06
6.50042e-07
1.15538e-06
7.21166e-07
1.18535e-06
7.97254e-07
1.21468e-06
8.78204e-07
1.24244e-06
9.63705e-07
1.26757e-06
1.05321e-06
1.28878e-06
1.14591e-06
1.30469e-06
1.24074e-06
1.31382e-06
1.33641e-06
1.3147e-06
1.43144e-06
1.30595e-06
1.52422e-06
1.28635e-06
1.61312e-06
1.25497e-06
1.69655e-06
1.21116e-06
1.77301e-06
1.15467e-06
1.84118e-06
1.08559e-06
1.89993e-06
1.00438e-06
1.94834e-06
9.11787e-07
1.98569e-06
8.08853e-07
2.01147e-06
6.96817e-07
2.02533e-06
5.77083e-07
2.02707e-06
4.51166e-07
2.01661e-06
3.20658e-07
1.99402e-06
1.8719e-07
1.95945e-06
5.24036e-08
1.91316e-06
-8.2096e-08
-2.14725e-07
4.90805e-07
1.01442e-06
5.48384e-07
1.03865e-06
6.1012e-07
1.06375e-06
6.76225e-07
1.08927e-06
7.46846e-07
1.11473e-06
8.22031e-07
1.13949e-06
9.01694e-07
1.16278e-06
9.85575e-07
1.18369e-06
1.07321e-06
1.20115e-06
1.16391e-06
1.21399e-06
1.25677e-06
1.22097e-06
1.35063e-06
1.22084e-06
1.4442e-06
1.21239e-06
1.536e-06
1.19455e-06
1.62452e-06
1.16645e-06
1.70823e-06
1.12745e-06
1.78565e-06
1.07725e-06
1.85544e-06
1.01581e-06
1.91637e-06
9.43439e-07
1.96744e-06
8.60717e-07
2.00781e-06
7.68487e-07
2.03682e-06
6.67802e-07
2.05402e-06
5.5989e-07
2.05908e-06
4.46103e-07
2.05186e-06
3.27882e-07
2.03233e-06
2.06718e-07
2.00061e-06
8.41189e-08
1.95695e-06
-3.84286e-08
-1.59489e-07
5.13004e-07
9.60093e-07
5.70955e-07
9.80703e-07
6.32743e-07
1.00196e-06
6.98537e-07
1.02348e-06
7.68449e-07
1.04482e-06
8.42509e-07
1.06543e-06
9.20635e-07
1.08466e-06
1.0026e-06
1.10172e-06
1.088e-06
1.11574e-06
1.17625e-06
1.12574e-06
1.26656e-06
1.13066e-06
1.35793e-06
1.12947e-06
1.4492e-06
1.12112e-06
1.53906e-06
1.10468e-06
1.62613e-06
1.07938e-06
1.70896e-06
1.04462e-06
1.78614e-06
1.00006e-06
1.85634e-06
9.45616e-07
1.91832e-06
8.8146e-07
1.971e-06
8.08036e-07
2.01347e-06
7.26019e-07
2.04498e-06
6.36292e-07
2.06496e-06
5.39907e-07
2.07301e-06
4.38049e-07
2.0689e-06
3.31999e-07
2.05252e-06
2.23093e-07
2.02395e-06
1.12691e-07
1.98338e-06
2.13703e-09
-1.07275e-07
5.3225e-07
9.05285e-07
5.9042e-07
9.22532e-07
6.52115e-07
9.40266e-07
7.1746e-07
9.58134e-07
7.86533e-07
9.75745e-07
8.59339e-07
9.92624e-07
9.35789e-07
1.00821e-06
1.01567e-06
1.02184e-06
1.09864e-06
1.03278e-06
1.18417e-06
1.04021e-06
1.27158e-06
1.04326e-06
1.36e-06
1.04105e-06
1.4484e-06
1.03271e-06
1.53564e-06
1.01745e-06
1.62043e-06
9.94584e-07
1.70148e-06
9.6358e-07
1.77744e-06
9.24101e-07
1.84703e-06
8.76022e-07
1.90905e-06
8.19445e-07
1.96239e-06
7.54695e-07
2.0061e-06
6.8231e-07
2.03937e-06
6.03017e-07
2.06157e-06
5.17708e-07
2.07222e-06
4.27402e-07
2.071e-06
3.33215e-07
2.05777e-06
2.36325e-07
2.03252e-06
1.37935e-07
1.99543e-06
3.92344e-08
-5.86296e-08
5.49019e-07
8.50117e-07
6.07292e-07
8.64259e-07
6.68791e-07
8.78766e-07
7.33602e-07
8.93323e-07
8.01765e-07
9.07581e-07
8.73261e-07
9.21129e-07
9.47987e-07
9.33481e-07
1.02574e-06
9.44084e-07
1.1062e-06
9.52316e-07
1.18891e-06
9.57497e-07
1.27326e-06
9.58909e-07
1.35849e-06
9.55816e-07
1.4437e-06
9.47499e-07
1.52786e-06
9.33288e-07
1.60985e-06
9.12598e-07
1.68846e-06
8.84967e-07
1.76248e-06
8.50084e-07
1.83069e-06
8.07811e-07
1.89194e-06
7.58197e-07
1.94515e-06
7.01484e-07
1.98936e-06
6.38096e-07
2.02375e-06
5.68629e-07
2.04764e-06
4.93825e-07
2.06049e-06
4.14549e-07
2.06194e-06
3.31759e-07
2.0518e-06
2.46471e-07
2.03e-06
1.59728e-07
1.99667e-06
7.25647e-08
-1.4032e-08
5.64092e-07
7.94687e-07
6.22383e-07
8.05968e-07
6.83619e-07
8.17531e-07
7.47848e-07
8.29094e-07
8.15078e-07
8.40351e-07
8.85262e-07
8.50944e-07
9.58285e-07
8.60458e-07
1.03395e-06
8.68424e-07
1.11194e-06
8.74322e-07
1.19185e-06
8.77586e-07
1.27314e-06
8.77623e-07
1.35512e-06
8.73827e-07
1.43702e-06
8.65602e-07
1.51792e-06
8.52393e-07
1.5968e-06
8.33711e-07
1.67261e-06
8.0916e-07
1.74423e-06
7.78468e-07
1.81054e-06
7.415e-07
1.87046e-06
6.98277e-07
1.92297e-06
6.48975e-07
1.96713e-06
5.93932e-07
2.00213e-06
5.33628e-07
2.02728e-06
4.68677e-07
2.04203e-06
3.99802e-07
2.04598e-06
3.27809e-07
2.03889e-06
2.5356e-07
2.02067e-06
1.77942e-07
1.99141e-06
1.01832e-07
2.60647e-08
5.7884e-07
7.39063e-07
6.37095e-07
7.47713e-07
6.9803e-07
7.56595e-07
7.61663e-07
7.65461e-07
8.27973e-07
7.74042e-07
8.96888e-07
7.82029e-07
9.68278e-07
7.89068e-07
1.04194e-06
7.94763e-07
1.11758e-06
7.9868e-07
1.19482e-06
8.00349e-07
1.27316e-06
7.99283e-07
1.352e-06
7.94982e-07
1.43065e-06
7.8696e-07
1.50828e-06
7.74759e-07
1.58402e-06
7.57977e-07
1.65689e-06
7.36284e-07
1.72591e-06
7.09446e-07
1.79007e-06
6.77344e-07
1.84837e-06
6.39981e-07
1.89985e-06
5.9749e-07
1.94365e-06
5.50135e-07
1.97897e-06
4.98306e-07
2.00515e-06
4.425e-07
2.02164e-06
3.83314e-07
2.02803e-06
3.21415e-07
2.02407e-06
2.57519e-07
2.00965e-06
1.92364e-07
1.9848e-06
1.26678e-07
6.11532e-08
5.95724e-07
6.83268e-07
6.53929e-07
6.89508e-07
7.14565e-07
6.95958e-07
7.77625e-07
7.02401e-07
8.43063e-07
7.08604e-07
9.10789e-07
7.14303e-07
9.8066e-07
7.19197e-07
1.05247e-06
7.22955e-07
1.12594e-06
7.25213e-07
1.2007e-06
7.25586e-07
1.27631e-06
7.23672e-07
1.35223e-06
7.19064e-07
1.42782e-06
7.11365e-07
1.50238e-06
7.00204e-07
1.5751e-06
6.8525e-07
1.64515e-06
6.66234e-07
1.71164e-06
6.42962e-07
1.77365e-06
6.1533e-07
1.8303e-06
5.83334e-07
1.88072e-06
5.47074e-07
1.92409e-06
5.06758e-07
1.9597e-06
4.62695e-07
1.98691e-06
4.15288e-07
2.00521e-06
3.65018e-07
2.0142e-06
3.12428e-07
2.01362e-06
2.58099e-07
2.00335e-06
2.0263e-07
1.98342e-06
1.46608e-07
9.05778e-08
6.19128e-07
6.27253e-07
6.77335e-07
6.31301e-07
7.37735e-07
6.35558e-07
8.003e-07
6.39836e-07
8.64967e-07
6.43937e-07
9.31633e-07
6.47637e-07
1.00015e-06
6.50684e-07
1.0703e-06
6.52801e-07
1.14182e-06
6.53689e-07
1.21438e-06
6.5303e-07
1.28756e-06
6.50496e-07
1.36086e-06
6.45756e-07
1.43374e-06
6.38489e-07
1.50555e-06
6.28394e-07
1.5756e-06
6.15205e-07
1.64313e-06
5.98702e-07
1.70736e-06
5.78727e-07
1.7675e-06
5.55192e-07
1.82274e-06
5.28089e-07
1.87232e-06
4.97493e-07
1.91552e-06
4.63566e-07
1.95166e-06
4.2655e-07
1.98019e-06
3.86764e-07
2.00061e-06
3.4459e-07
2.01258e-06
3.00459e-07
2.01585e-06
2.54833e-07
2.01029e-06
2.08186e-07
1.99593e-06
1.60975e-07
1.1362e-07
6.56633e-07
5.70847e-07
7.15007e-07
5.72928e-07
7.75335e-07
5.7523e-07
8.37576e-07
5.77594e-07
9.01658e-07
5.79855e-07
9.67471e-07
5.81824e-07
1.03486e-06
5.83294e-07
1.10363e-06
5.84035e-07
1.17351e-06
5.83802e-07
1.24421e-06
5.82337e-07
1.31533e-06
5.79373e-07
1.38644e-06
5.74642e-07
1.45704e-06
5.67887e-07
1.52657e-06
5.58865e-07
1.59442e-06
5.47361e-07
1.65992e-06
5.33199e-07
1.7224e-06
5.1625e-07
1.78115e-06
4.96439e-07
1.83548e-06
4.73756e-07
1.88472e-06
4.48256e-07
1.92823e-06
4.20061e-07
1.96542e-06
3.89357e-07
1.99579e-06
3.56391e-07
2.01892e-06
3.2146e-07
2.03449e-06
2.84897e-07
2.04226e-06
2.47059e-07
2.04214e-06
2.0831e-07
2.03411e-06
1.68996e-07
1.29425e-07
7.20837e-07
5.13698e-07
7.7971e-07
5.14055e-07
8.40285e-07
5.14654e-07
9.02518e-07
5.15362e-07
9.66332e-07
5.16041e-07
1.03162e-06
5.16538e-07
1.09823e-06
5.16681e-07
1.16598e-06
5.16286e-07
1.23463e-06
5.15153e-07
1.30389e-06
5.13072e-07
1.37344e-06
5.09831e-07
1.44287e-06
5.05214e-07
1.51174e-06
4.99013e-07
1.57957e-06
4.91037e-07
1.64582e-06
4.81111e-07
1.70992e-06
4.69094e-07
1.77129e-06
4.5488e-07
1.82932e-06
4.38407e-07
1.88342e-06
4.19661e-07
1.933e-06
3.98679e-07
1.97751e-06
3.7555e-07
2.01645e-06
3.50415e-07
2.04938e-06
3.23457e-07
2.07594e-06
2.949e-07
2.09584e-06
2.64996e-07
2.10889e-06
2.34012e-07
2.11498e-06
2.02218e-07
2.11411e-06
1.69868e-07
1.37175e-07
8.31684e-07
4.55223e-07
8.91604e-07
4.54136e-07
9.52946e-07
4.53312e-07
1.01567e-06
4.52641e-07
1.0797e-06
4.52011e-07
1.14494e-06
4.51299e-07
1.21125e-06
4.50366e-07
1.27847e-06
4.49063e-07
1.34639e-06
4.47232e-07
1.41476e-06
4.44705e-07
1.48328e-06
4.41312e-07
1.55161e-06
4.36882e-07
1.61938e-06
4.31249e-07
1.68615e-06
4.24261e-07
1.75148e-06
4.15778e-07
1.81489e-06
4.05688e-07
1.87587e-06
3.93901e-07
1.93391e-06
3.80367e-07
1.98851e-06
3.65066e-07
2.03916e-06
3.48023e-07
2.08541e-06
3.29298e-07
2.12684e-06
3.08992e-07
2.16305e-06
2.87239e-07
2.19375e-06
2.64202e-07
2.21868e-06
2.40064e-07
2.23768e-06
2.15021e-07
2.25063e-06
1.89264e-07
2.25753e-06
1.62972e-07
1.36283e-07
1.01911e-06
3.94632e-07
1.08082e-06
3.9243e-07
1.14362e-06
3.90509e-07
1.20749e-06
3.88776e-07
1.27236e-06
3.87142e-07
1.33815e-06
3.85509e-07
1.40475e-06
3.83766e-07
1.47201e-06
3.81795e-07
1.53977e-06
3.79472e-07
1.60782e-06
3.76664e-07
1.67589e-06
3.73237e-07
1.74372e-06
3.69057e-07
1.81097e-06
3.63994e-07
1.87731e-06
3.57925e-07
1.94234e-06
3.50743e-07
2.00568e-06
3.42354e-07
2.06689e-06
3.32687e-07
2.12556e-06
3.21697e-07
2.18126e-06
3.09365e-07
2.23358e-06
2.95701e-07
2.28214e-06
2.80745e-07
2.32656e-06
2.64567e-07
2.36654e-06
2.47259e-07
2.4018e-06
2.28938e-07
2.43214e-06
2.09733e-07
2.45738e-06
1.8978e-07
2.47743e-06
1.69211e-07
2.49225e-06
1.48147e-07
1.26668e-07
1.32545e-06
3.311e-07
1.38969e-06
3.28183e-07
1.45465e-06
3.25549e-07
1.5203e-06
3.23126e-07
1.58661e-06
3.2084e-07
1.6535e-06
3.18613e-07
1.72091e-06
3.16362e-07
1.78871e-06
3.13992e-07
1.85677e-06
3.11407e-07
1.92493e-06
3.08505e-07
1.99299e-06
3.0518e-07
2.06072e-06
3.0133e-07
2.12786e-06
2.96854e-07
2.19412e-06
2.91656e-07
2.25922e-06
2.85651e-07
2.3228e-06
2.78766e-07
2.38455e-06
2.70944e-07
2.4441e-06
2.62146e-07
2.50111e-06
2.52352e-07
2.55525e-06
2.41566e-07
2.60618e-06
2.29812e-07
2.65361e-06
2.17135e-07
2.69727e-06
2.03599e-07
2.73692e-06
1.89283e-07
2.77238e-06
1.74275e-07
2.80349e-06
1.58668e-07
2.83016e-06
1.42548e-07
2.85231e-06
1.25995e-07
1.09046e-07
1.80651e-06
2.64225e-07
1.87364e-06
2.61054e-07
1.94103e-06
2.58154e-07
2.00869e-06
2.55465e-07
2.0766e-06
2.52929e-07
2.14473e-06
2.50485e-07
2.21302e-06
2.48069e-07
2.28141e-06
2.45609e-07
2.34978e-06
2.43031e-07
2.41803e-06
2.40257e-07
2.486e-06
2.37209e-07
2.55352e-06
2.33809e-07
2.6204e-06
2.29979e-07
2.68641e-06
2.25647e-07
2.75131e-06
2.2075e-07
2.81484e-06
2.15231e-07
2.87674e-06
2.09045e-07
2.93673e-06
2.02161e-07
2.99452e-06
1.94563e-07
3.04983e-06
1.86249e-07
3.10241e-06
1.77234e-07
3.152e-06
1.67546e-07
3.19837e-06
1.57229e-07
3.24132e-06
1.46335e-07
3.28067e-06
1.34923e-07
3.31628e-06
1.23054e-07
3.34805e-06
1.10783e-07
3.37589e-06
9.816e-08
8.5194e-08
2.52977e-06
1.94797e-07
2.59895e-06
1.91874e-07
2.66791e-06
1.89185e-07
2.73669e-06
1.86685e-07
2.8053e-06
1.84326e-07
2.87372e-06
1.82064e-07
2.94194e-06
1.79851e-07
3.00991e-06
1.77633e-07
3.07759e-06
1.75357e-07
3.14488e-06
1.72966e-07
3.21169e-06
1.70402e-07
3.27789e-06
1.67609e-07
3.34333e-06
1.64532e-07
3.40786e-06
1.61119e-07
3.47129e-06
1.57323e-07
3.53341e-06
1.53105e-07
3.59403e-06
1.48431e-07
3.65291e-06
1.4328e-07
3.70983e-06
1.37639e-07
3.76458e-06
1.31506e-07
3.81692e-06
1.2489e-07
3.86665e-06
1.17812e-07
3.91359e-06
1.10299e-07
3.95753e-06
1.02387e-07
3.99834e-06
9.4114e-08
4.03588e-06
8.55205e-08
4.07002e-06
7.66385e-08
4.10068e-06
6.74986e-08
5.80952e-08
3.56683e-06
1.25865e-07
3.63506e-06
1.23648e-07
3.70264e-06
1.21603e-07
3.76963e-06
1.19698e-07
3.83605e-06
1.17902e-07
3.90194e-06
1.16181e-07
3.96728e-06
1.14502e-07
4.03209e-06
1.12829e-07
4.09632e-06
1.11126e-07
4.15993e-06
1.09354e-07
4.22286e-06
1.07476e-07
4.28501e-06
1.05452e-07
4.3463e-06
1.03249e-07
4.40658e-06
1.00831e-07
4.46574e-06
9.81688e-08
4.52361e-06
9.52367e-08
4.58002e-06
9.20147e-08
4.63481e-06
8.8489e-08
4.6878e-06
8.46527e-08
4.7388e-06
8.05061e-08
4.78763e-06
7.60564e-08
4.83413e-06
7.13176e-08
4.87812e-06
6.6309e-08
4.91945e-06
6.10542e-08
4.95799e-06
5.55784e-08
4.9936e-06
4.99072e-08
5.02618e-06
4.40587e-08
5.05563e-06
3.80497e-08
3.18656e-08
4.97657e-06
6.37151e-08
5.03774e-06
6.24732e-08
5.09802e-06
6.13265e-08
5.15746e-06
6.02579e-08
5.21611e-06
5.92478e-08
5.27402e-06
5.82762e-08
5.3312e-06
5.73238e-08
5.38766e-06
5.63707e-08
5.44339e-06
5.53958e-08
5.49836e-06
5.43779e-08
5.55254e-06
5.32959e-08
5.60587e-06
5.21292e-08
5.65826e-06
5.08585e-08
5.70962e-06
4.9466e-08
5.75985e-06
4.79363e-08
5.80883e-06
4.62568e-08
5.85643e-06
4.44181e-08
5.9025e-06
4.24146e-08
5.94691e-06
4.02447e-08
5.98951e-06
3.79109e-08
6.03014e-06
3.54196e-08
6.06868e-06
3.27806e-08
6.10498e-06
3.00067e-08
6.13892e-06
2.71126e-08
6.17039e-06
2.41132e-08
6.19927e-06
2.10237e-08
6.22548e-06
1.78545e-08
6.24891e-06
1.46165e-08
1.1289e-08
6.77467e-06
1.80186e-08
6.81948e-06
1.76622e-08
6.86348e-06
1.73309e-08
6.90672e-06
1.70208e-08
6.94924e-06
1.6725e-08
6.99108e-06
1.64355e-08
7.03226e-06
1.61451e-08
7.07278e-06
1.58469e-08
7.11264e-06
1.55337e-08
7.15182e-06
1.51983e-08
7.19029e-06
1.48335e-08
7.22798e-06
1.44326e-08
7.26485e-06
1.39895e-08
7.30082e-06
1.3499e-08
7.3358e-06
1.29566e-08
7.3697e-06
1.23593e-08
7.40241e-06
1.17053e-08
7.43383e-06
1.09942e-08
7.46385e-06
1.02272e-08
7.49235e-06
9.40711e-09
7.51923e-06
8.53787e-09
7.54439e-06
7.62472e-09
7.56772e-06
6.67358e-09
7.58914e-06
5.69092e-09
7.60857e-06
4.6824e-09
7.62594e-06
3.65421e-09
7.64119e-06
2.60882e-09
7.65425e-06
1.5584e-09
5.18683e-10
8.88889e-06
8.90656e-06
8.92389e-06
8.94091e-06
8.95763e-06
8.97407e-06
8.99021e-06
9.00606e-06
9.02159e-06
9.03679e-06
9.05163e-06
9.06606e-06
9.08005e-06
9.09355e-06