/*--------------------------------*- C++ -*----------------------------------*\
  =========                 |
  \\      /  F ield         | OpenFOAM: The Open Source CFD Toolbox
   \\    /   O peration     | Website:  https://openfoam.org
    \\  /    A nd           | Version:  9
     \\/     M anipulation  |
\*---------------------------------------------------------------------------*/
FoamFile
{
    format      ascii;
    class       volVectorField;
    location    "0.5";
    object      U;
}
// * * * * * * * * * * * * * * * * * * * * * * * * * * * * * * * * * * * * * //

dimensions      [0 1 -1 0 0 0 0];

internalField   nonuniform List<vector> 
1260
(
(-0.0902428 0.115876 0)
(-0.0970953 0.122352 0)
(-0.104673 0.129807 0)
(-0.112988 0.138153 0)
(-0.12201 0.147166 0)
(-0.131667 0.156483 0)
(-0.141817 0.165546 0)
(-0.152293 0.173754 0)
(-0.162876 0.180465 0)
(-0.173325 0.185062 0)
(-0.183398 0.187028 0)
(-0.192874 0.186006 0)
(-0.201571 0.181823 0)
(-0.209362 0.174496 0)
(-0.21618 0.164213 0)
(-0.222015 0.151292 0)
(-0.226909 0.136134 0)
(-0.230945 0.119175 0)
(-0.234227 0.100843 0)
(-0.236869 0.0815271 0)
(-0.238976 0.0615592 0)
(-0.240642 0.0412079 0)
(-0.241939 0.0206831 0)
(-0.242925 0.00014782 0)
(-0.243649 -0.0202707 0)
(-0.244105 -0.0405041 0)
(-0.0870654 0.122272 0)
(-0.0936066 0.129425 0)
(-0.100802 0.137574 0)
(-0.108651 0.1466 0)
(-0.117111 0.156235 0)
(-0.126093 0.16605 0)
(-0.135464 0.175464 0)
(-0.145055 0.183831 0)
(-0.154665 0.19048 0)
(-0.164073 0.194786 0)
(-0.173066 0.196248 0)
(-0.181455 0.194538 0)
(-0.189094 0.189532 0)
(-0.195888 0.181301 0)
(-0.201799 0.17009 0)
(-0.206843 0.156268 0)
(-0.211079 0.140278 0)
(-0.214597 0.122581 0)
(-0.217502 0.103618 0)
(-0.219897 0.0837757 0)
(-0.221873 0.0633724 0)
(-0.223502 0.0426577 0)
(-0.224829 0.0218208 0)
(-0.225884 0.00100599 0)
(-0.226691 -0.0196713 0)
(-0.227224 -0.0401392 0)
(-0.0832555 0.128341 0)
(-0.0893875 0.136102 0)
(-0.0960924 0.144862 0)
(-0.103357 0.154471 0)
(-0.111129 0.164619 0)
(-0.119319 0.174833 0)
(-0.127797 0.184501 0)
(-0.136409 0.192941 0)
(-0.14497 0.199463 0)
(-0.15329 0.203441 0)
(-0.161188 0.204391 0)
(-0.16851 0.202022 0)
(-0.175145 0.196253 0)
(-0.181029 0.187209 0)
(-0.18615 0.175185 0)
(-0.190542 0.160596 0)
(-0.194274 0.143916 0)
(-0.197436 0.125625 0)
(-0.200126 0.106167 0)
(-0.202432 0.0859194 0)
(-0.204425 0.0651807 0)
(-0.206152 0.0441776 0)
(-0.207633 0.0230768 0)
(-0.208871 0.00200416 0)
(-0.209864 -0.0189356 0)
(-0.210572 -0.0396682 0)
(-0.0788335 0.133983 0)
(-0.084465 0.142271 0)
(-0.0905805 0.151551 0)
(-0.0971563 0.16164 0)
(-0.104137 0.172196 0)
(-0.111434 0.18271 0)
(-0.118931 0.192542 0)
(-0.12649 0.200987 0)
(-0.133954 0.207341 0)
(-0.141164 0.210985 0)
(-0.147975 0.211454 0)
(-0.15427 0.20849 0)
(-0.15997 0.202056 0)
(-0.16504 0.192322 0)
(-0.169486 0.179626 0)
(-0.173354 0.16442 0)
(-0.176715 0.147201 0)
(-0.179653 0.12846 0)
(-0.182251 0.108636 0)
(-0.184579 0.0880916 0)
(-0.186685 0.0671035 0)
(-0.188592 0.0458734 0)
(-0.190299 0.0245455 0)
(-0.191784 0.0032291 0)
(-0.193028 -0.0179797 0)
(-0.193974 -0.0390041 0)
(-0.0738391 0.139125 0)
(-0.0788911 0.147853 0)
(-0.084333 0.157556 0)
(-0.090134 0.168024 0)
(-0.096238 0.178887 0)
(-0.102565 0.18961 0)
(-0.109014 0.199533 0)
(-0.11547 0.207933 0)
(-0.121806 0.214104 0)
(-0.127901 0.217433 0)
(-0.133646 0.217477 0)
(-0.13896 0.214008 0)
(-0.143794 0.207026 0)
(-0.148134 0.19674 0)
(-0.152003 0.183524 0)
(-0.155448 0.167854 0)
(-0.158536 0.150243 0)
(-0.16134 0.131187 0)
(-0.163923 0.111113 0)
(-0.166334 0.090367 0)
(-0.1686 0.0692019 0)
(-0.170722 0.0477953 0)
(-0.17268 0.0262708 0)
(-0.174436 0.00472306 0)
(-0.175955 -0.0167583 0)
(-0.177172 -0.0380929 0)
(-0.0683266 0.143695 0)
(-0.0727332 0.152772 0)
(-0.0774331 0.162799 0)
(-0.0823912 0.173546 0)
(-0.0875544 0.184621 0)
(-0.0928536 0.195472 0)
(-0.0982079 0.205425 0)
(-0.103528 0.213751 0)
(-0.108723 0.219742 0)
(-0.113707 0.222798 0)
(-0.118411 0.222495 0)
(-0.122786 0.21863 0)
(-0.12681 0.211234 0)
(-0.130487 0.200546 0)
(-0.133848 0.186963 0)
(-0.136939 0.17098 0)
(-0.139816 0.153118 0)
(-0.142532 0.133868 0)
(-0.145134 0.113646 0)
(-0.147646 0.0927777 0)
(-0.150076 0.0714949 0)
(-0.152406 0.0499533 0)
(-0.154603 0.0282586 0)
(-0.156619 0.00649392 0)
(-0.158409 -0.0152558 0)
(-0.159904 -0.036906 0)
(-0.0623621 0.147635 0)
(-0.0660717 0.156967 0)
(-0.0699776 0.167219 0)
(-0.0740428 0.178147 0)
(-0.0782194 0.189344 0)
(-0.082452 0.20025 0)
(-0.0866814 0.210186 0)
(-0.0908482 0.218422 0)
(-0.0948965 0.224255 0)
(-0.0987795 0.227096 0)
(-0.102464 0.226539 0)
(-0.105932 0.222401 0)
(-0.109186 0.214734 0)
(-0.112244 0.203795 0)
(-0.115138 0.189999 0)
(-0.117909 0.173847 0)
(-0.120597 0.155861 0)
(-0.123238 0.136524 0)
(-0.125854 0.11624 0)
(-0.12845 0.0953163 0)
(-0.131015 0.0739644 0)
(-0.133518 0.0523229 0)
(-0.135917 0.0304837 0)
(-0.138158 0.00852118 0)
(-0.140193 -0.0134822 0)
(-0.141954 -0.0354376 0)
(-0.0560208 0.150901 0)
(-0.0589964 0.160395 0)
(-0.0620727 0.170775 0)
(-0.0652126 0.181788 0)
(-0.0683748 0.193024 0)
(-0.0715189 0.20392 0)
(-0.0746088 0.2138 0)
(-0.0776156 0.22194 0)
(-0.0805192 0.227646 0)
(-0.0833099 0.230341 0)
(-0.0859893 0.229632 0)
(-0.0885701 0.225348 0)
(-0.091074 0.217554 0)
(-0.0935297 0.206516 0)
(-0.0959691 0.192652 0)
(-0.0984226 0.176465 0)
(-0.100914 0.158471 0)
(-0.103459 0.139143 0)
(-0.106057 0.118871 0)
(-0.108694 0.0979463 0)
(-0.111344 0.0765666 0)
(-0.113968 0.0548572 0)
(-0.116516 0.0329007 0)
(-0.118933 0.0107661 0)
(-0.121174 -0.011465 0)
(-0.123175 -0.0336992 0)
(-0.0493841 0.153464 0)
(-0.0516032 0.163027 0)
(-0.0538306 0.173441 0)
(-0.0560296 0.184449 0)
(-0.0581665 0.195644 0)
(-0.060216 0.20647 0)
(-0.062165 0.216261 0)
(-0.0640144 0.224305 0)
(-0.0657786 0.229921 0)
(-0.0674839 0.232543 0)
(-0.0691653 0.231784 0)
(-0.0708626 0.227482 0)
(-0.0726161 0.219702 0)
(-0.0744628 0.208709 0)
(-0.0764324 0.194916 0)
(-0.0785442 0.178818 0)
(-0.0808054 0.160921 0)
(-0.0832097 0.141686 0)
(-0.0857379 0.12149 0)
(-0.0883593 0.100613 0)
(-0.0910341 0.0792432 0)
(-0.0937157 0.0574979 0)
(-0.0963533 0.0354547 0)
(-0.098895 0.0131809 0)
(-0.101297 -0.00924109 0)
(-0.103506 -0.0317128 0)
(-0.0425363 0.155306 0)
(-0.0439909 0.164849 0)
(-0.0453653 0.175207 0)
(-0.0466242 0.186124 0)
(-0.0477408 0.197204 0)
(-0.0487042 0.207904 0)
(-0.0495229 0.217577 0)
(-0.0502258 0.225526 0)
(-0.0508595 0.231088 0)
(-0.0514842 0.233705 0)
(-0.052166 0.232996 0)
(-0.0529705 0.228796 0)
(-0.0539554 0.221163 0)
(-0.0551653 0.210351 0)
(-0.0566277 0.196758 0)
(-0.0583516 0.180865 0)
(-0.0603279 0.163161 0)
(-0.0625321 0.144096 0)
(-0.0649267 0.124036 0)
(-0.0674661 0.103253 0)
(-0.0700999 0.0819305 0)
(-0.072777 0.0601832 0)
(-0.0754466 0.0380889 0)
(-0.0780605 0.0157161 0)
(-0.0805806 -0.00684998 0)
(-0.0829634 -0.029506 0)
(-0.0355627 0.156425 0)
(-0.0362581 0.165863 0)
(-0.0367903 0.176079 0)
(-0.0371247 0.186825 0)
(-0.0372411 0.197718 0)
(-0.0371409 0.208238 0)
(-0.0368516 0.217762 0)
(-0.0364272 0.225616 0)
(-0.0359437 0.231153 0)
(-0.0354918 0.233827 0)
(-0.0351668 0.233256 0)
(-0.0350586 0.229269 0)
(-0.0352424 0.221906 0)
(-0.0357713 0.2114 0)
(-0.0366718 0.198127 0)
(-0.0379447 0.182545 0)
(-0.0395677 0.165127 0)
(-0.0415005 0.146306 0)
(-0.0436905 0.126442 0)
(-0.0460789 0.1058 0)
(-0.0486072 0.0845645 0)
(-0.0512203 0.0628542 0)
(-0.0538687 0.0407503 0)
(-0.0565088 0.018326 0)
(-0.0591084 -0.00432926 0)
(-0.0616344 -0.0271063 0)
(-0.0285466 0.156829 0)
(-0.0285007 0.166083 0)
(-0.0282146 0.176078 0)
(-0.0276545 0.186575 0)
(-0.0268046 0.197214 0)
(-0.0256766 0.207501 0)
(-0.0243137 0.216842 0)
(-0.0227908 0.224593 0)
(-0.0212092 0.230126 0)
(-0.0196872 0.232906 0)
(-0.0183465 0.232549 0)
(-0.0172993 0.228867 0)
(-0.0166404 0.221885 0)
(-0.0164332 0.211799 0)
(-0.0167051 0.198957 0)
(-0.0174525 0.183788 0)
(-0.0186437 0.166744 0)
(-0.0202267 0.148243 0)
(-0.0221373 0.128635 0)
(-0.0243058 0.108186 0)
(-0.026666 0.087085 0)
(-0.0291607 0.0654574 0)
(-0.0317414 0.0433925 0)
(-0.0343686 0.0209709 0)
(-0.0370158 -0.00171139 0)
(-0.0396591 -0.0245392 0)
(-0.0215675 0.156539 0)
(-0.020809 0.165538 0)
(-0.0197409 0.175237 0)
(-0.0183288 0.185415 0)
(-0.0165599 0.195734 0)
(-0.0144529 0.205734 0)
(-0.0120629 0.214856 0)
(-0.00948107 0.222487 0)
(-0.00682959 0.228024 0)
(-0.00425019 0.230943 0)
(-0.00188839 0.230858 0)
(0.000125726 0.227562 0)
(0.00167286 0.221047 0)
(0.00267493 0.211479 0)
(0.00310513 0.199169 0)
(0.00296416 0.184511 0)
(0.00228905 0.167929 0)
(0.00113913 0.149824 0)
(-0.000415938 0.13054 0)
(-0.00229623 0.110346 0)
(-0.00442847 0.0894354 0)
(-0.00675477 0.0679451 0)
(-0.009227 0.0459759 0)
(-0.0118089 0.0236188 0)
(-0.0144783 0.000977474 0)
(-0.0172189 -0.0218252 0)
(-0.0146987 0.155585 0)
(-0.0132663 0.164263 0)
(-0.0114625 0.173601 0)
(-0.0092523 0.183394 0)
(-0.0066235 0.193332 0)
(-0.00359871 0.202992 0)
(-0.000240663 0.211852 0)
(0.00334817 0.219337 0)
(0.00703045 0.224871 0)
(0.0106458 0.227944 0)
(0.0140275 0.228167 0)
(0.0170217 0.225315 0)
(0.019496 0.219339 0)
(0.0213579 0.210376 0)
(0.0225646 0.198687 0)
(0.023113 0.184631 0)
(0.023039 0.168599 0)
(0.022404 0.150972 0)
(0.0212843 0.132087 0)
(0.0197631 0.112217 0)
(0.0179159 0.0915627 0)
(0.0158047 0.0702743 0)
(0.0134776 0.0484669 0)
(0.0109684 0.0262439 0)
(0.00829708 0.00371812 0)
(0.00547428 -0.0189789 0)
(-0.00800664 0.154006 0)
(-0.00594638 0.162307 0)
(-0.00346191 0.171225 0)
(-0.000517321 0.180575 0)
(0.00290187 0.190076 0)
(0.00677226 0.199341 0)
(0.0110264 0.207892 0)
(0.0155566 0.215194 0)
(0.0202158 0.220704 0)
(0.0248301 0.223925 0)
(0.0292159 0.22447 0)
(0.0331989 0.222094 0)
(0.0366303 0.216715 0)
(0.0394014 0.208423 0)
(0.041452 0.197434 0)
(0.0427686 0.184063 0)
(0.0433794 0.168667 0)
(0.0433431 0.151605 0)
(0.0427364 0.133204 0)
(0.0416425 0.113737 0)
(0.0401388 0.0934151 0)
(0.0382897 0.0724041 0)
(0.0361438 0.0508344 0)
(0.0337341 0.0288236 0)
(0.0310792 0.00649497 0)
(0.0281867 -0.0160113 0)
(-0.0015506 0.151846 0)
(0.00108582 0.159724 0)
(0.00418969 0.168173 0)
(0.00779978 0.177028 0)
(0.0119314 0.18604 0)
(0.0165631 0.194859 0)
(0.0216298 0.203052 0)
(0.0270219 0.210127 0)
(0.0325884 0.215575 0)
(0.0381473 0.218922 0)
(0.043503 0.219782 0)
(0.0484651 0.217891 0)
(0.0528671 0.213139 0)
(0.0565819 0.205565 0)
(0.0595303 0.195339 0)
(0.061683 0.182728 0)
(0.063055 0.168052 0)
(0.063696 0.151643 0)
(0.0636773 0.133815 0)
(0.063079 0.11484 0)
(0.0619779 0.0949391 0)
(0.0604393 0.0742922 0)
(0.0585126 0.0530463 0)
(0.056231 0.0313342 0)
(0.0536139 0.00928978 0)
(0.0506675 -0.0129373 0)
(0.0473956 -0.0351811 0)
(0.043797 -0.057239 0)
(0.0398705 -0.0788776 0)
(0.00461783 0.149151 0)
(0.0077769 0.156572 0)
(0.0114352 0.164514 0)
(0.0156355 0.172832 0)
(0.0203956 0.181309 0)
(0.0256982 0.189634 0)
(0.0314832 0.197418 0)
(0.0376446 0.204216 0)
(0.0440324 0.209556 0)
(0.0504626 0.212989 0)
(0.0567325 0.214134 0)
(0.06264 0.212718 0)
(0.0680026 0.208597 0)
(0.0726739 0.201767 0)
(0.0765542 0.192349 0)
(0.0795937 0.18056 0)
(0.0817897 0.16668 0)
(0.0831769 0.15101 0)
(0.0838156 0.133849 0)
(0.0837787 0.115462 0)
(0.0831391 0.0960799 0)
(0.0819609 0.075894 0)
(0.080294 0.0550678 0)
(0.0781725 0.0337494 0)
(0.0756164 0.0120854 0)
(0.0726337 -0.00976774 0)
(0.0692258 -0.0316355 0)
(0.0653925 -0.0533165 0)
(0.0611304 -0.0745807 0)
(0.0104645 0.145982 0)
(0.0140863 0.152912 0)
(0.0182319 0.160317 0)
(0.0229443 0.168068 0)
(0.0282451 0.175973 0)
(0.0341226 0.183762 0)
(0.040524 0.191091 0)
(0.0473506 0.197559 0)
(0.0544588 0.202735 0)
(0.0616677 0.206201 0)
(0.0687734 0.207585 0)
(0.0755664 0.206608 0)
(0.0818516 0.2031 0)
(0.0874645 0.197017 0)
(0.0922841 0.188431 0)
(0.0962379 0.17751 0)
(0.0993005 0.164491 0)
(0.101487 0.149642 0)
(0.102842 0.133239 0)
(0.103426 0.115542 0)
(0.103304 0.0967824 0)
(0.102537 0.0771627 0)
(0.101173 0.0568605 0)
(0.0992469 0.0360389 0)
(0.0967807 0.014857 0)
(0.0937824 -0.00651911 0)
(0.0902565 -0.0279104 0)
(0.086204 -0.0491138 0)
(0.0816242 -0.0699056 0)
(0.0159607 0.142385 0)
(0.019987 0.148808 0)
(0.0245512 0.155657 0)
(0.0296969 0.162819 0)
(0.0354496 0.170127 0)
(0.0418036 0.177347 0)
(0.0487146 0.184178 0)
(0.0560944 0.190264 0)
(0.0638095 0.195218 0)
(0.0716875 0.198653 0)
(0.0795282 0.200216 0)
(0.0871205 0.199624 0)
(0.0942605 0.196689 0)
(0.100769 0.191333 0)
(0.106504 0.183581 0)
(0.111369 0.173556 0)
(0.115315 0.161448 0)
(0.118333 0.14749 0)
(0.120446 0.131933 0)
(0.121698 0.115024 0)
(0.122144 0.0969934 0)
(0.121835 0.07805 0)
(0.120818 0.0583829 0)
(0.119128 0.0381676 0)
(0.116786 0.0175751 0)
(0.113803 -0.00322048 0)
(0.110186 -0.0240297 0)
(0.105941 -0.0446545 0)
(0.10107 -0.0648765 0)
(0.0210873 0.138418 0)
(0.0254606 0.144325 0)
(0.0303764 0.150608 0)
(0.035879 0.157168 0)
(0.0419965 0.163863 0)
(0.0487292 0.17049 0)
(0.0560422 0.176789 0)
(0.0638591 0.182448 0)
(0.0720597 0.187123 0)
(0.0804837 0.190461 0)
(0.0889401 0.192132 0)
(0.0972211 0.191858 0)
(0.105119 0.189439 0)
(0.112445 0.184767 0)
(0.119037 0.177831 0)
(0.124778 0.168706 0)
(0.129592 0.157539 0)
(0.133445 0.144528 0)
(0.136335 0.129893 0)
(0.138286 0.113864 0)
(0.139337 0.0966665 0)
(0.139529 0.07851 0)
(0.138902 0.0595911 0)
(0.137488 0.0400959 0)
(0.135309 0.0202051 0)
(0.132382 0.000100769 0)
(0.128715 -0.0200236 0)
(0.124313 -0.0399712 0)
(0.119191 -0.0595282 0)
(0.0258305 0.134133 0)
(0.0304967 0.139522 0)
(0.0357016 0.145239 0)
(0.0414888 0.151197 0)
(0.0478888 0.157273 0)
(0.0549069 0.163294 0)
(0.0625172 0.169037 0)
(0.0706559 0.174232 0)
(0.0792175 0.178576 0)
(0.0880571 0.181753 0)
(0.0969964 0.183458 0)
(0.105836 0.183426 0)
(0.114371 0.18145 0)
(0.122405 0.177404 0)
(0.129765 0.171242 0)
(0.136311 0.163002 0)
(0.141944 0.152787 0)
(0.146603 0.140758 0)
(0.150261 0.127104 0)
(0.152919 0.112037 0)
(0.154595 0.095767 0)
(0.155319 0.0785025 0)
(0.155119 0.0604428 0)
(0.154022 0.0417804 0)
(0.152052 0.0227034 0)
(0.149224 0.00340066 0)
(0.145551 -0.015937 0)
(0.141045 -0.0351095 0)
(0.135725 -0.0539088 0)
(0.0301843 0.129578 0)
(0.0350937 0.134456 0)
(0.0405304 0.139616 0)
(0.0465365 0.144979 0)
(0.0531434 0.150442 0)
(0.0603607 0.155856 0)
(0.0681705 0.161031 0)
(0.0765209 0.165735 0)
(0.0853219 0.169706 0)
(0.0944452 0.172663 0)
(0.103729 0.174332 0)
(0.112986 0.174463 0)
(0.122017 0.172852 0)
(0.130627 0.169359 0)
(0.138634 0.163915 0)
(0.145882 0.156521 0)
(0.152252 0.147247 0)
(0.157656 0.136214 0)
(0.162042 0.123583 0)
(0.165388 0.109538 0)
(0.167689 0.0942772 0)
(0.168957 0.0779989 0)
(0.16921 0.060901 0)
(0.168468 0.0431777 0)
(0.166749 0.0250208 0)
(0.164071 0.00662201 0)
(0.160448 -0.0118266 0)
(0.155897 -0.0301281 0)
(0.150444 -0.0480805 0)
(0.0341494 0.124798 0)
(0.0392572 0.129178 0)
(0.0448744 0.133796 0)
(0.0510409 0.138582 0)
(0.057788 0.143446 0)
(0.0651277 0.148262 0)
(0.0730489 0.152869 0)
(0.0815107 0.157069 0)
(0.0904376 0.160637 0)
(0.0997182 0.163328 0)
(0.109208 0.164898 0)
(0.118737 0.165117 0)
(0.128116 0.16379 0)
(0.137154 0.160771 0)
(0.145666 0.155973 0)
(0.153489 0.149373 0)
(0.160482 0.141007 0)
(0.16654 0.130963 0)
(0.171585 0.119372 0)
(0.17557 0.106393 0)
(0.17847 0.0922018 0)
(0.180276 0.0769872 0)
(0.180993 0.0609395 0)
(0.180631 0.0442504 0)
(0.179203 0.0271109 0)
(0.176723 0.00971251 0)
(0.17321 -0.00775373 0)
(0.168683 -0.0250955 0)
(0.163172 -0.0421181 0)
(0.0377319 0.119831 0)
(0.0429984 0.123734 0)
(0.0487516 0.127831 0)
(0.0550282 0.132064 0)
(0.0618579 0.136352 0)
(0.0692544 0.14059 0)
(0.0772114 0.14464 0)
(0.0856969 0.148336 0)
(0.0946488 0.151485 0)
(0.103972 0.153876 0)
(0.11354 0.155296 0)
(0.123199 0.155536 0)
(0.132776 0.154416 0)
(0.142089 0.151791 0)
(0.150955 0.147563 0)
(0.159205 0.141691 0)
(0.166689 0.134184 0)
(0.173283 0.125103 0)
(0.178891 0.114547 0)
(0.183441 0.10265 0)
(0.186888 0.0895691 0)
(0.189204 0.0754749 0)
(0.190379 0.0605474 0)
(0.190409 0.044971 0)
(0.1893 0.0289322 0)
(0.187066 0.0126182 0)
(0.18372 -0.00378469 0)
(0.179287 -0.0200871 0)
(0.1738 -0.0361053 0)
(0.0409421 0.114714 0)
(0.046333 0.118161 0)
(0.0521844 0.121766 0)
(0.058529 0.125474 0)
(0.0653943 0.129217 0)
(0.0727936 0.132904 0)
(0.0807241 0.13642 0)
(0.0891608 0.139622 0)
(0.0980527 0.14235 0)
(0.10732 0.144423 0)
(0.116852 0.145655 0)
(0.126514 0.145863 0)
(0.136149 0.144882 0)
(0.145587 0.142574 0)
(0.154653 0.13884 0)
(0.163178 0.133623 0)
(0.171008 0.126914 0)
(0.178006 0.11875 0)
(0.184059 0.109204 0)
(0.189079 0.0983869 0)
(0.193 0.0864314 0)
(0.195777 0.073491 0)
(0.197382 0.0597313 0)
(0.197801 0.0453258 0)
(0.19703 0.0304524 0)
(0.195075 0.015291 0)
(0.191952 2.0996e-05 0)
(0.187683 -0.0151767 0)
(0.1823 -0.0301287 0)
(0.043794 0.109477 0)
(0.0492803 0.112493 0)
(0.0551988 0.115635 0)
(0.0615774 0.118852 0)
(0.0684408 0.122085 0)
(0.0758009 0.125256 0)
(0.0836564 0.128267 0)
(0.0919876 0.130999 0)
(0.100752 0.133316 0)
(0.109883 0.135065 0)
(0.119286 0.136087 0)
(0.128842 0.136224 0)
(0.138411 0.135327 0)
(0.147839 0.13327 0)
(0.156961 0.129955 0)
(0.165614 0.12532 0)
(0.173642 0.119342 0)
(0.180904 0.112038 0)
(0.187277 0.103461 0)
(0.192657 0.0936977 0)
(0.196963 0.0828606 0)
(0.200134 0.0710836 0)
(0.202127 0.0585156 0)
(0.202915 0.0453163 0)
(0.202484 0.0316518 0)
(0.200834 0.0176916 0)
(0.197977 0.00360622 0)
(0.193931 -0.0104375 0)
(0.18873 -0.0242749 0)
(0.0463054 0.104146 0)
(0.0518631 0.106758 0)
(0.0578235 0.109467 0)
(0.0642099 0.112229 0)
(0.071043 0.114991 0)
(0.0783329 0.117685 0)
(0.0860783 0.120228 0)
(0.0942626 0.12252 0)
(0.10285 0.124446 0)
(0.111785 0.125879 0)
(0.120985 0.126684 0)
(0.130349 0.126724 0)
(0.139752 0.125871 0)
(0.149054 0.12401 0)
(0.158106 0.121049 0)
(0.166753 0.116926 0)
(0.174844 0.111609 0)
(0.182236 0.105101 0)
(0.1888 0.0974392 0)
(0.194425 0.0886887 0)
(0.199018 0.078943 0)
(0.202504 0.0683166 0)
(0.204828 0.0569409 0)
(0.205951 0.0449595 0)
(0.20585 0.0325244 0)
(0.204516 0.0197921 0)
(0.201955 0.00692045 0)
(0.198183 -0.00593566 0)
(0.193232 -0.0186241 0)
(0.0484987 0.0987413 0)
(0.0541084 0.100977 0)
(0.0600911 0.103287 0)
(0.0664654 0.10563 0)
(0.0732483 0.10796 0)
(0.0804467 0.110218 0)
(0.0880586 0.112333 0)
(0.0960692 0.114221 0)
(0.104448 0.115786 0)
(0.113145 0.116921 0)
(0.122093 0.117513 0)
(0.131201 0.117446 0)
(0.140361 0.116609 0)
(0.149449 0.114903 0)
(0.158329 0.112243 0)
(0.166857 0.108569 0)
(0.174891 0.103846 0)
(0.182292 0.098069 0)
(0.18893 0.0912596 0)
(0.194689 0.0834686 0)
(0.199469 0.0747711 0)
(0.203187 0.0652633 0)
(0.205777 0.0550591 0)
(0.207191 0.0442853 0)
(0.207396 0.033078 0)
(0.206377 0.0215789 0)
(0.204131 0.0099315 0)
(0.200672 -0.0017225 0)
(0.196027 -0.0132454 0)
(0.0504045 0.0932811 0)
(0.0560506 0.0951674 0)
(0.0620407 0.0971093 0)
(0.068389 0.0990699 0)
(0.0751082 0.101008 0)
(0.0822024 0.102872 0)
(0.0896677 0.104602 0)
(0.09749 0.106126 0)
(0.105642 0.107364 0)
(0.114079 0.108227 0)
(0.122744 0.10862 0)
(0.131556 0.108447 0)
(0.140422 0.107612 0)
(0.149232 0.106032 0)
(0.157864 0.10363 0)
(0.166187 0.100353 0)
(0.174069 0.096164 0)
(0.181377 0.0910526 0)
(0.187987 0.0850321 0)
(0.193781 0.0781398 0)
(0.198658 0.0704357 0)
(0.202527 0.0619997 0)
(0.205318 0.0529287 0)
(0.206973 0.0433325 0)
(0.207455 0.0333311 0)
(0.206738 0.0230502 0)
(0.204817 0.0126179 0)
(0.201698 0.00216109 0)
(0.197406 -0.00819765 0)
(0.0520689 0.0877793 0)
(0.0577391 0.0893426 0)
(0.0637256 0.0909473 0)
(0.0700383 0.0925602 0)
(0.0766861 0.0941444 0)
(0.0836698 0.0956558 0)
(0.0909836 0.0970421 0)
(0.0986129 0.0982434 0)
(0.106532 0.099192 0)
(0.114702 0.0998136 0)
(0.12307 0.10003 0)
(0.131567 0.0997597 0)
(0.140111 0.0989251 0)
(0.148605 0.0974527 0)
(0.15694 0.0952793 0)
(0.164998 0.0923553 0)
(0.172659 0.0886477 0)
(0.1798 0.084143 0)
(0.186301 0.0788481 0)
(0.19205 0.0727908 0)
(0.196945 0.0660185 0)
(0.200896 0.0585967 0)
(0.203827 0.0506067 0)
(0.205678 0.0421425 0)
(0.206404 0.0333074 0)
(0.205977 0.0242111 0)
(0.204383 0.0149658 0)
(0.201626 0.00568295 0)
(0.197725 -0.00353061 0)
(0.0535684 0.0822472 0)
(0.0592535 0.0835124 0)
(0.0652287 0.0848091 0)
(0.0715 0.0861073 0)
(0.0780727 0.0873744 0)
(0.0849448 0.0885721 0)
(0.0921082 0.0896556 0)
(0.0995474 0.0905741 0)
(0.107238 0.0912709 0)
(0.115143 0.0916843 0)
(0.123216 0.0917491 0)
(0.131397 0.0913989 0)
(0.13961 0.0905685 0)
(0.147772 0.0891968 0)
(0.155785 0.0872306 0)
(0.163546 0.0846269 0)
(0.170944 0.0813564 0)
(0.177867 0.0774052 0)
(0.184205 0.0727765 0)
(0.189852 0.0674906 0)
(0.194709 0.0615851 0)
(0.198688 0.0551133 0)
(0.201713 0.0481426 0)
(0.203722 0.0407518 0)
(0.204668 0.033029 0)
(0.204519 0.0250679 0)
(0.203257 0.0169647 0)
(0.200883 0.00881514 0)
(0.197411 0.000710462 0)
(0.0550385 0.0766932 0)
(0.0607323 0.0776841 0)
(0.0666915 0.0786999 0)
(0.0729187 0.0797141 0)
(0.0794163 0.080698 0)
(0.0861794 0.0816184 0)
(0.093198 0.0824371 0)
(0.100456 0.0831109 0)
(0.107928 0.0835925 0)
(0.115581 0.0838307 0)
(0.123372 0.0837718 0)
(0.131246 0.0833609 0)
(0.139138 0.0825446 0)
(0.146971 0.0812724 0)
(0.154661 0.0795002 0)
(0.162115 0.0771918 0)
(0.169234 0.0743219 0)
(0.175918 0.0708777 0)
(0.182065 0.0668601 0)
(0.187577 0.0622844 0)
(0.192363 0.0571801 0)
(0.196339 0.0515903 0)
(0.199431 0.0455702 0)
(0.201578 0.0391854 0)
(0.202734 0.0325091 0)
(0.202863 0.0256201 0)
(0.201948 0.0185993 0)
(0.199985 0.0115268 0)
(0.196985 0.0044789 0)
(0.0567234 0.0711223 0)
(0.0624237 0.0718613 0)
(0.0683662 0.0726218 0)
(0.0745504 0.0733804 0)
(0.0809764 0.0741123 0)
(0.0876369 0.0747887 0)
(0.0945203 0.0753772 0)
(0.101609 0.0758415 0)
(0.10888 0.076142 0)
(0.1163 0.0762364 0)
(0.12383 0.0760804 0)
(0.131419 0.0756293 0)
(0.13901 0.0748392 0)
(0.146535 0.0736692 0)
(0.153918 0.0720827 0)
(0.161078 0.0700502 0)
(0.167926 0.0675503 0)
(0.174373 0.0645719 0)
(0.180328 0.0611148 0)
(0.185703 0.0571904 0)
(0.190412 0.0528221 0)
(0.19438 0.0480444 0)
(0.197537 0.0429021 0)
(0.199826 0.0374485 0)
(0.201201 0.031744 0)
(0.201629 0.025853 0)
(0.201091 0.019842 0)
(0.199581 0.0137766 0)
(0.197111 0.00771822 0)
(0.0590577 0.0655342 0)
(0.0647697 0.0660431 0)
(0.0707009 0.0665724 0)
(0.0768491 0.0671019 0)
(0.0832121 0.0676103 0)
(0.0897814 0.068073 0)
(0.096544 0.0684626 0)
(0.103482 0.0687489 0)
(0.110573 0.0688989 0)
(0.117785 0.0688777 0)
(0.125081 0.0686492 0)
(0.132417 0.0681769 0)
(0.13974 0.0674251 0)
(0.14699 0.0663606 0)
(0.1541 0.0649539 0)
(0.160996 0.0631808 0)
(0.167604 0.0610238 0)
(0.173842 0.0584733 0)
(0.179631 0.0555288 0)
(0.184891 0.0521989 0)
(0.189548 0.0485018 0)
(0.193531 0.044465 0)
(0.196779 0.0401241 0)
(0.199239 0.035522 0)
(0.200869 0.030707 0)
(0.201637 0.0257309 0)
(0.201527 0.0206471 0)
(0.200531 0.0155073 0)
(0.198659 0.0103594 0)
(0.0627941 0.0599191 0)
(0.0685342 0.0602197 0)
(0.0744704 0.0605415 0)
(0.0805991 0.0608672 0)
(0.0869169 0.0611786 0)
(0.0934144 0.0614553 0)
(0.100078 0.0616742 0)
(0.106891 0.0618104 0)
(0.11383 0.0618367 0)
(0.120866 0.0617246 0)
(0.127966 0.0614446 0)
(0.135088 0.0609671 0)
(0.142186 0.0602633 0)
(0.149206 0.0593065 0)
(0.156089 0.0580729 0)
(0.162772 0.0565429 0)
(0.169188 0.0547023 0)
(0.175267 0.0525431 0)
(0.180938 0.0500643 0)
(0.186133 0.0472725 0)
(0.190786 0.0441816 0)
(0.194836 0.0408129 0)
(0.198227 0.0371945 0)
(0.200913 0.0333599 0)
(0.202857 0.029347 0)
(0.20403 0.0251964 0)
(0.204416 0.0209494 0)
(0.204009 0.016646 0)
(0.202816 0.0123221 0)
(0.0691832 0.0542524 0)
(0.0749855 0.0543679 0)
(0.0809593 0.0545063 0)
(0.0871001 0.0546531 0)
(0.0934041 0.0547933 0)
(0.0998617 0.0549099 0)
(0.10646 0.054984 0)
(0.113183 0.054995 0)
(0.120008 0.0549209 0)
(0.126911 0.0547385 0)
(0.133859 0.0544239 0)
(0.140817 0.0539535 0)
(0.147742 0.053304 0)
(0.154589 0.052454 0)
(0.161306 0.0513843 0)
(0.167837 0.0500793 0)
(0.174125 0.0485273 0)
(0.18011 0.0467216 0)
(0.185731 0.044661 0)
(0.190929 0.0423501 0)
(0.195647 0.0397994 0)
(0.199832 0.0370249 0)
(0.203437 0.034048 0)
(0.206422 0.0308943 0)
(0.208752 0.0275928 0)
(0.210405 0.0241744 0)
(0.211365 0.0206702 0)
(0.211627 0.0171098 0)
(0.211195 0.0135189 0)
(0.0802086 0.048488 0)
(0.0861294 0.0484439 0)
(0.0921939 0.0484251 0)
(0.0983974 0.0484195 0)
(0.104736 0.0484146 0)
(0.111202 0.0483968 0)
(0.117783 0.0483506 0)
(0.124464 0.0482595 0)
(0.131226 0.0481057 0)
(0.138046 0.0478706 0)
(0.144897 0.0475352 0)
(0.151748 0.0470803 0)
(0.158561 0.0464877 0)
(0.165298 0.04574 0)
(0.171914 0.0448221 0)
(0.178363 0.0437211 0)
(0.184594 0.0424277 0)
(0.190557 0.0409361 0)
(0.196202 0.0392449 0)
(0.201476 0.0373568 0)
(0.206333 0.0352794 0)
(0.210728 0.0330245 0)
(0.21462 0.0306077 0)
(0.217974 0.0280482 0)
(0.220762 0.0253673 0)
(0.222963 0.0225878 0)
(0.224564 0.0197322 0)
(0.225557 0.0168218 0)
(0.225946 0.0138737 0)
(0.098854 0.042555 0)
(0.10497 0.0423816 0)
(0.111196 0.0422354 0)
(0.11753 0.0421066 0)
(0.123968 0.0419852 0)
(0.130502 0.04186 0)
(0.137124 0.0417189 0)
(0.143821 0.0415486 0)
(0.150576 0.041335 0)
(0.157371 0.0410634 0)
(0.164183 0.0407187 0)
(0.170984 0.0402858 0)
(0.177746 0.0397501 0)
(0.184433 0.039098 0)
(0.191011 0.0383173 0)
(0.197439 0.0373978 0)
(0.203676 0.0363317 0)
(0.20968 0.0351139 0)
(0.215409 0.0337429 0)
(0.220821 0.0322201 0)
(0.225874 0.0305505 0)
(0.230532 0.0287423 0)
(0.234761 0.0268068 0)
(0.23853 0.0247576 0)
(0.241816 0.0226099 0)
(0.244599 0.02038 0)
(0.246867 0.0180837 0)
(0.248612 0.0157355 0)
(0.249835 0.0133458 0)
(0.12935 0.0363657 0)
(0.135739 0.036099 0)
(0.142201 0.0358608 0)
(0.148731 0.035643 0)
(0.155329 0.0354375 0)
(0.161991 0.0352355 0)
(0.168707 0.0350274 0)
(0.17547 0.0348029 0)
(0.182266 0.034551 0)
(0.189081 0.0342599 0)
(0.195896 0.0339181 0)
(0.20269 0.0335137 0)
(0.20944 0.0330352 0)
(0.216116 0.0324721 0)
(0.222692 0.0318146 0)
(0.229133 0.0310546 0)
(0.235408 0.0301858 0)
(0.241481 0.0292038 0)
(0.247317 0.0281068 0)
(0.252883 0.0268953 0)
(0.258145 0.0255725 0)
(0.263071 0.0241438 0)
(0.267632 0.022617 0)
(0.271804 0.0210013 0)
(0.275566 0.0193076 0)
(0.278898 0.0175467 0)
(0.28179 0.0157294 0)
(0.284233 0.0138653 0)
(0.286224 0.0119597 0)
(0.177301 0.0298443 0)
(0.184001 0.0295276 0)
(0.190728 0.0292391 0)
(0.19748 0.0289722 0)
(0.204258 0.0287204 0)
(0.211061 0.0284769 0)
(0.217883 0.0282343 0)
(0.224718 0.0279844 0)
(0.231558 0.0277189 0)
(0.238392 0.0274287 0)
(0.245206 0.027105 0)
(0.251984 0.0267387 0)
(0.258708 0.0263209 0)
(0.265357 0.0258436 0)
(0.271908 0.0252992 0)
(0.278336 0.0246813 0)
(0.284614 0.0239849 0)
(0.290715 0.0232064 0)
(0.29661 0.0223441 0)
(0.302272 0.0213978 0)
(0.307674 0.0203696 0)
(0.312789 0.0192627 0)
(0.317593 0.0180825 0)
(0.322064 0.0168352 0)
(0.326184 0.0155279 0)
(0.329937 0.0141681 0)
(0.333309 0.0127625 0)
(0.336291 0.0113173 0)
(0.338879 0.00983442 0)
(0.249513 0.0229896 0)
(0.256441 0.0226722 0)
(0.263349 0.0223806 0)
(0.270235 0.0221096 0)
(0.277103 0.0218541 0)
(0.283954 0.0216086 0)
(0.290786 0.0213678 0)
(0.297597 0.0211254 0)
(0.30438 0.0208751 0)
(0.31113 0.0206102 0)
(0.317837 0.0203242 0)
(0.32449 0.0200102 0)
(0.331075 0.0196617 0)
(0.337577 0.0192728 0)
(0.343979 0.0188377 0)
(0.350261 0.0183518 0)
(0.356403 0.0178113 0)
(0.362383 0.0172134 0)
(0.368179 0.0165566 0)
(0.373768 0.0158407 0)
(0.379128 0.0150668 0)
(0.384237 0.0142372 0)
(0.389076 0.0133552 0)
(0.393624 0.0124251 0)
(0.397867 0.0114516 0)
(0.401788 0.0104395 0)
(0.405376 0.00939286 0)
(0.408618 0.0083156 0)
(0.411509 0.00720753 0)
(0.353256 0.015963 0)
(0.360111 0.0156953 0)
(0.366901 0.0154485 0)
(0.373628 0.0152188 0)
(0.380297 0.0150023 0)
(0.386912 0.014795 0)
(0.393473 0.0145929 0)
(0.39998 0.0143916 0)
(0.406432 0.0141867 0)
(0.412824 0.0139734 0)
(0.419152 0.0137471 0)
(0.425408 0.013503 0)
(0.431582 0.0132367 0)
(0.437663 0.012944 0)
(0.443638 0.0126211 0)
(0.449492 0.0122647 0)
(0.45521 0.0118721 0)
(0.460775 0.0114416 0)
(0.466168 0.0109722 0)
(0.471372 0.0104638 0)
(0.476368 0.00991702 0)
(0.481139 0.00933356 0)
(0.485668 0.00871565 0)
(0.489939 0.00806611 0)
(0.493936 0.00738801 0)
(0.497647 0.0066845 0)
(0.50106 0.00595797 0)
(0.504163 0.00521071 0)
(0.506951 0.00444138 0)
(0.494576 0.00917232 0)
(0.500738 0.00899594 0)
(0.50681 0.00883313 0)
(0.512794 0.00868157 0)
(0.518697 0.00853865 0)
(0.524524 0.00840174 0)
(0.530277 0.00826825 0)
(0.535958 0.00813546 0)
(0.541567 0.00800054 0)
(0.547103 0.0078606 0)
(0.552561 0.00771272 0)
(0.557937 0.0075541 0)
(0.563224 0.007382 0)
(0.568413 0.00719395 0)
(0.573495 0.00698771 0)
(0.578458 0.00676142 0)
(0.58329 0.00651366 0)
(0.587977 0.00624348 0)
(0.592505 0.00595046 0)
(0.596858 0.00563473 0)
(0.601024 0.00529695 0)
(0.604986 0.00493827 0)
(0.608732 0.00456023 0)
(0.612248 0.00416469 0)
(0.615522 0.00375356 0)
(0.618542 0.0033288 0)
(0.621299 0.00289175 0)
(0.623783 0.00244378 0)
(0.625986 0.00198361 0)
(0.675207 0.00347654 0)
(0.679728 0.0034057 0)
(0.684168 0.00334016 0)
(0.688528 0.00327898 0)
(0.692815 0.00322096 0)
(0.697031 0.00316481 0)
(0.701181 0.00310924 0)
(0.705266 0.00305302 0)
(0.709285 0.00299484 0)
(0.713237 0.00293339 0)
(0.717119 0.00286738 0)
(0.720928 0.00279557 0)
(0.724657 0.00271683 0)
(0.7283 0.00263012 0)
(0.731849 0.00253458 0)
(0.735295 0.00242955 0)
(0.738627 0.00231457 0)
(0.741836 0.00218946 0)
(0.744911 0.00205427 0)
(0.74784 0.00190935 0)
(0.750612 0.00175524 0)
(0.753217 0.00159275 0)
(0.755644 0.00142281 0)
(0.757884 0.00124645 0)
(0.759929 0.00106465 0)
(0.761771 0.000878371 0)
(0.763404 0.000687986 0)
(0.76482 0.000494369 0)
(0.766013 0.000296444 0)
(0.887999 0.000519929 0)
(0.889781 0.000510564 0)
(0.89153 0.000501801 0)
(0.893247 0.000493491 0)
(0.894934 0.000485384 0)
(0.896591 0.000477154 0)
(0.89822 0.00046849 0)
(0.899819 0.000459104 0)
(0.901388 0.000448701 0)
(0.902925 0.000436989 0)
(0.904427 0.000423688 0)
(0.90589 0.000408539 0)
(0.907312 0.000391315 0)
(0.908687 0.000371832 0)
(0.910011 0.000349953 0)
(0.911277 0.000325601 0)
(0.912482 0.000298762 0)
(0.913618 0.000269494 0)
(0.91468 0.000237921 0)
(0.915663 0.000204235 0)
(0.916562 0.000168687 0)
(0.917371 0.000131576 0)
(0.918087 9.32143e-05 0)
(0.918706 5.39417e-05 0)
(0.919226 1.39985e-05 0)
(0.919643 -2.63119e-05 0)
(0.919957 -6.71286e-05 0)
(0.920166 -0.000107971 0)
(0.920269 -0.000149715 0)
)
;

boundaryField
{
    movingWall
    {
        type            fixedValue;