/*--------------------------------*- C++ -*----------------------------------*\
  =========                 |
  \\      /  F ield         | OpenFOAM: The Open Source CFD Toolbox
   \\    /   O peration     | Website:  https://openfoam.org
    \\  /    A nd           | Version:  9
     \\/     M anipulation  |
\*---------------------------------------------------------------------------*/
FoamFile
{
    format      ascii;
    class       volScalarField;
    location    "1.5";
    object      p;
}
// * * * * * * * * * * * * * * * * * * * * * * * * * * * * * * * * * * * * * //

dimensions      [0 2 -2 0 0 0 0];

internalField   nonuniform List<scalar> 
1260
(
-0.0929479
-0.0943793
-0.0956971
-0.0968962
-0.0979718
-0.0989189
-0.099733
-0.10041
-0.100947
-0.101342
-0.101593
-0.101698
-0.101657
-0.101472
-0.101144
-0.100674
-0.100066
-0.0993228
-0.098449
-0.0974493
-0.096329
-0.095094
-0.0937508
-0.0923065
-0.0907688
-0.089146
-0.0932212
-0.0946603
-0.0959854
-0.0971914
-0.0982732
-0.0992261
-0.100045
-0.100727
-0.101268
-0.101665
-0.101917
-0.102024
-0.101983
-0.101797
-0.101467
-0.100994
-0.100383
-0.0996349
-0.0987556
-0.0977495
-0.0966221
-0.0953793
-0.0940275
-0.0925741
-0.0910267
-0.0893937
-0.0933567
-0.0948021
-0.0961333
-0.0973449
-0.098432
-0.0993895
-0.100213
-0.100898
-0.101442
-0.101841
-0.102095
-0.102202
-0.102161
-0.101974
-0.101642
-0.101167
-0.100551
-0.0997989
-0.0989143
-0.0979022
-0.0967679
-0.0955176
-0.0941577
-0.0926955
-0.0911388
-0.0894961
-0.0933536
-0.0948042
-0.0961403
-0.0973565
-0.0984477
-0.0994089
-0.100235
-0.100923
-0.101469
-0.10187
-0.102125
-0.102232
-0.102191
-0.102003
-0.101669
-0.101191
-0.100571
-0.0998149
-0.0989251
-0.0979071
-0.0967662
-0.0955085
-0.0941407
-0.09267
-0.0911043
-0.0894523
-0.0932118
-0.0946666
-0.0960065
-0.0972262
-0.0983206
-0.0992847
-0.100114
-0.100804
-0.101351
-0.101754
-0.102009
-0.102116
-0.102074
-0.101885
-0.101548
-0.101067
-0.100444
-0.0996836
-0.0987888
-0.0977648
-0.0966174
-0.0953525
-0.0939768
-0.0924977
-0.0909231
-0.0892618
-0.0929318
-0.0943899
-0.0957328
-0.0969553
-0.0980521
-0.0990183
-0.0998491
-0.100541
-0.101089
-0.101492
-0.101748
-0.101854
-0.101812
-0.101621
-0.101282
-0.100798
-0.100172
-0.0994067
-0.0985067
-0.097477
-0.0963229
-0.0950507
-0.0936671
-0.0921795
-0.0905959
-0.0889251
-0.0925147
-0.0939755
-0.0953207
-0.0965452
-0.0976438
-0.0986115
-0.0994437
-0.100136
-0.100685
-0.101089
-0.101344
-0.10145
-0.101407
-0.101214
-0.100873
-0.100386
-0.0997562
-0.0989865
-0.0980813
-0.0970456
-0.0958848
-0.0946051
-0.0932134
-0.0917171
-0.0901243
-0.0884438
-0.0919621
-0.093425
-0.0947721
-0.0959982
-0.0970982
-0.098067
-0.0989
-0.0995932
-0.100143
-0.100546
-0.100801
-0.100907
-0.100862
-0.100667
-0.100324
-0.0998341
-0.0992002
-0.098426
-0.0975155
-0.0964736
-0.0953059
-0.0940185
-0.0926184
-0.0911129
-0.0895104
-0.0878198
-0.0912758
-0.0927407
-0.0940895
-0.095317
-0.0964181
-0.0973878
-0.0982215
-0.098915
-0.0994649
-0.0998681
-0.100123
-0.100227
-0.100181
-0.0999845
-0.0996388
-0.0991457
-0.098508
-0.097729
-0.096813
-0.0957647
-0.0945897
-0.0932943
-0.0918853
-0.0903702
-0.0887575
-0.0870561
-0.0904582
-0.0919252
-0.0932758
-0.0945047
-0.0956069
-0.0965774
-0.0974117
-0.0981056
-0.0986556
-0.0990587
-0.0993128
-0.0994163
-0.0993688
-0.0991703
-0.098822
-0.0983257
-0.0976839
-0.0969
-0.0959781
-0.0949231
-0.0937405
-0.0924366
-0.0910181
-0.0894929
-0.0878692
-0.0861564
-0.0895119
-0.0909815
-0.0923342
-0.0935648
-0.0946683
-0.0956399
-0.096475
-0.0971694
-0.0977196
-0.0981226
-0.0983762
-0.0984789
-0.0984299
-0.0982295
-0.0978786
-0.0973789
-0.0967328
-0.0959438
-0.0950159
-0.0939539
-0.0927632
-0.0914502
-0.0900217
-0.0884856
-0.0868503
-0.0851251
-0.0884399
-0.0899127
-0.0912681
-0.092501
-0.0936064
-0.0945795
-0.0954157
-0.096111
-0.0966617
-0.0970648
-0.0973181
-0.0974201
-0.0973699
-0.0971676
-0.096814
-0.0963108
-0.0956604
-0.0948661
-0.0939318
-0.0928624
-0.0916632
-0.0903405
-0.0889014
-0.0873537
-0.0857059
-0.0839674
-0.0872453
-0.0887223
-0.0900814
-0.0913174
-0.0924254
-0.0934007
-0.0942387
-0.0949354
-0.0954871
-0.0958908
-0.0961442
-0.0962456
-0.0961944
-0.0959903
-0.0956341
-0.0951275
-0.0944727
-0.0936729
-0.092732
-0.0916547
-0.0904465
-0.0891137
-0.0876633
-0.0861032
-0.084442
-0.0826894
-0.0859317
-0.0874141
-0.088778
-0.0900183
-0.09113
-0.0921085
-0.0929491
-0.0936479
-0.0942013
-0.0946061
-0.0948601
-0.0949615
-0.0949095
-0.0947039
-0.0943453
-0.0938352
-0.093176
-0.0923706
-0.0914228
-0.0903375
-0.0891199
-0.0877764
-0.0863141
-0.0847409
-0.0830655
-0.0812978
-0.0845026
-0.085992
-0.0873622
-0.0886081
-0.0897248
-0.0907077
-0.0915521
-0.0922541
-0.0928099
-0.0932167
-0.0934719
-0.0935739
-0.0935216
-0.0933148
-0.0929541
-0.0924408
-0.0917772
-0.0909661
-0.0900114
-0.0889178
-0.0876905
-0.0863359
-0.0848611
-0.0832741
-0.0815839
-0.0798003
-0.0829622
-0.0844602
-0.0858384
-0.0870916
-0.0882149
-0.0892035
-0.0900531
-0.0907594
-0.091319
-0.0917287
-0.091986
-0.0920893
-0.0920373
-0.0918299
-0.0914675
-0.0909513
-0.0902835
-0.0894669
-0.0885053
-0.0874032
-0.086166
-0.0848
-0.0833123
-0.0817111
-0.0800053
-0.0782051
-0.0763214
-0.0743664
-0.0723532
-0.0813147
-0.0828233
-0.0842114
-0.0854737
-0.0866053
-0.0876015
-0.0884577
-0.0891699
-0.0897345
-0.0901483
-0.0904089
-0.0905144
-0.0904636
-0.0902563
-0.0898927
-0.0893742
-0.0887025
-0.0878807
-0.0869123
-0.0858018
-0.0845547
-0.0831771
-0.0816764
-0.0800606
-0.0783389
-0.0765215
-0.0746196
-0.0726457
-0.070613
-0.0795651
-0.0810863
-0.0824863
-0.0837598
-0.0849017
-0.0859073
-0.086772
-0.0874918
-0.0880629
-0.0884822
-0.0887473
-0.0888562
-0.0888077
-0.0886013
-0.0882375
-0.0877172
-0.0870424
-0.0862157
-0.0852409
-0.0841224
-0.0828655
-0.0814765
-0.0799627
-0.0783323
-0.0765945
-0.0747597
-0.0728393
-0.0708459
-0.068793
-0.0777193
-0.0792551
-0.0806691
-0.0819558
-0.0831101
-0.0841271
-0.0850023
-0.0857314
-0.0863108
-0.0867373
-0.0870084
-0.0871221
-0.0870771
-0.0868729
-0.0865097
-0.0859886
-0.0853114
-0.0844808
-0.0835002
-0.0823742
-0.0811081
-0.0797081
-0.0781815
-0.0765367
-0.074783
-0.0729308
-0.0709918
-0.0689787
-0.0669053
-0.0757838
-0.0773361
-0.0787662
-0.0800683
-0.0812371
-0.0822677
-0.0831554
-0.0838959
-0.0844855
-0.084921
-0.0851998
-0.0853199
-0.0852799
-0.0850792
-0.0847181
-0.0841974
-0.0835189
-0.0826852
-0.0816999
-0.0805672
-0.0792926
-0.0778824
-0.0763438
-0.0746851
-0.072916
-0.0710469
-0.0690896
-0.067057
-0.0649632
-0.0737661
-0.0753368
-0.0767849
-0.0781046
-0.0792902
-0.0803365
-0.0812389
-0.0819929
-0.0825949
-0.0830414
-0.0833298
-0.0834581
-0.0834248
-0.0832293
-0.0828717
-0.0823528
-0.0816745
-0.0808391
-0.0798503
-0.0787123
-0.0774304
-0.076011
-0.0744614
-0.07279
-0.0710064
-0.0691212
-0.0671463
-0.0650948
-0.0629808
-0.0716749
-0.0732657
-0.074734
-0.0760732
-0.0772776
-0.078342
-0.0792613
-0.0800311
-0.0806475
-0.0811072
-0.0814073
-0.0815458
-0.0815211
-0.0813327
-0.0809805
-0.0804652
-0.0797887
-0.0789534
-0.0779627
-0.0768209
-0.0755333
-0.0741064
-0.0725473
-0.0708646
-0.0690679
-0.0671679
-0.0651766
-0.0631071
-0.0609738
-0.0695207
-0.0711331
-0.0726231
-0.0739838
-0.0752092
-0.0762937
-0.0772322
-0.07802
-0.0786532
-0.0791282
-0.0794422
-0.0795931
-0.0795793
-0.0794
-0.0790552
-0.0785457
-0.077873
-0.0770398
-0.0760492
-0.0749057
-0.0736145
-0.0721819
-0.0706153
-0.0689233
-0.0671153
-0.0652023
-0.0631962
-0.0611103
-0.0589588
-0.0673152
-0.0689504
-0.0704637
-0.0718476
-0.0730959
-0.0742026
-0.0751623
-0.0759704
-0.0766226
-0.0771153
-0.0774456
-0.0776112
-0.0776105
-0.0774427
-0.0771079
-0.0766063
-0.0759399
-0.075111
-0.074123
-0.0729802
-0.0716877
-0.070252
-0.0686804
-0.0669814
-0.0651646
-0.0632408
-0.0612221
-0.0591216
-0.0569536
-0.0650719
-0.066731
-0.0682687
-0.0696773
-0.0709501
-0.0720809
-0.073064
-0.0738945
-0.0745679
-0.0750807
-0.0754296
-0.0756124
-0.0756273
-0.0754735
-0.0751508
-0.0746601
-0.0740027
-0.0731809
-0.0721982
-0.0710589
-0.0697681
-0.0683321
-0.0667583
-0.0650553
-0.0632324
-0.0613007
-0.0592719
-0.0571592
-0.0549767
-0.0628061
-0.0644896
-0.0660527
-0.0674872
-0.068786
-0.0699425
-0.0709509
-0.0718058
-0.0725027
-0.0730377
-0.0734077
-0.0736101
-0.0736433
-0.0735062
-0.0731987
-0.0727215
-0.0720758
-0.0712642
-0.07029
-0.0691572
-0.0678713
-0.0664384
-0.0648658
-0.063162
-0.0613364
-0.0593998
-0.057364
-0.0552418
-0.0530474
-0.0605345
-0.0622427
-0.0638318
-0.0652931
-0.0666191
-0.0678028
-0.0688381
-0.0697193
-0.0704417
-0.0710013
-0.0713947
-0.0716193
-0.0716733
-0.0715557
-0.0712662
-0.0708055
-0.0701748
-0.0693766
-0.0684141
-0.0672915
-0.066014
-0.0645877
-0.06302
-0.0613192
-0.0594945
-0.0575567
-0.0555172
-0.0533887
-0.0511849
-0.0582752
-0.060008
-0.0616235
-0.0631123
-0.0644664
-0.0656785
-0.066742
-0.0676512
-0.0684011
-0.0689873
-0.0694064
-0.0696556
-0.0697332
-0.0696378
-0.0693693
-0.0689281
-0.0683157
-0.0675343
-0.0665872
-0.0654784
-0.0642132
-0.0627975
-0.0612387
-0.0595447
-0.057725
-0.0557897
-0.0537502
-0.0516187
-0.0494085
-0.0560472
-0.0578046
-0.0594465
-0.060963
-0.0623458
-0.0635872
-0.0646803
-0.0656189
-0.0663978
-0.0670126
-0.0674595
-0.0677358
-0.0678394
-0.0677691
-0.0675245
-0.0671061
-0.0665153
-0.0657543
-0.0648262
-0.0637351
-0.062486
-0.061085
-0.0595391
-0.0578563
-0.0560455
-0.0541168
-0.052081
-0.04995
-0.0477363
-0.0538702
-0.0556517
-0.05732
-0.0588644
-0.0602762
-0.0615476
-0.0626711
-0.0636403
-0.0644498
-0.0650948
-0.0655715
-0.065877
-0.0660091
-0.0659665
-0.0657487
-0.0653563
-0.0647904
-0.0640531
-0.0631477
-0.0620781
-0.0608493
-0.0594671
-0.0579383
-0.0562707
-0.0544729
-0.0525546
-0.0505262
-0.048399
-0.0461847
-0.0517641
-0.0535693
-0.0552635
-0.0568356
-0.0582767
-0.0595784
-0.0607329
-0.0617337
-0.0625749
-0.0632516
-0.0637599
-0.0640966
-0.0642594
-0.0642469
-0.0640587
-0.063695
-0.0631571
-0.0624472
-0.061568
-0.0605236
-0.0593188
-0.0579592
-0.0564514
-0.054803
-0.0530221
-0.0511179
-0.0491003
-0.0469797
-0.0447673
-0.0497482
-0.0515764
-0.0532962
-0.0548958
-0.0563661
-0.0576982
-0.0588842
-0.0599172
-0.060791
-0.0615006
-0.0620418
-0.0624113
-0.0626068
-0.0626267
-0.0624704
-0.0621382
-0.0616311
-0.0609513
-0.0601016
-0.0590858
-0.0579084
-0.0565749
-0.0550917
-0.0534658
-0.0517051
-0.0498182
-0.0478142
-0.0457028
-0.0434941
-0.0478409
-0.0496916
-0.0514363
-0.0530631
-0.0545622
-0.0559247
-0.0571423
-0.0582078
-0.0591148
-0.0598581
-0.0604332
-0.0608369
-0.0610665
-0.0611205
-0.0609981
-0.0606995
-0.0602257
-0.0595786
-0.058761
-0.0577764
-0.0566292
-0.0553247
-0.0538688
-0.0522682
-0.0505303
-0.0486629
-0.0466745
-0.0445739
-0.0423702
-0.046059
-0.0479316
-0.0497007
-0.051354
-0.0528815
-0.054274
-0.0555231
-0.056621
-0.0575614
-0.0583387
-0.0589484
-0.059387
-0.0596518
-0.059741
-0.0596538
-0.0593903
-0.0589513
-0.0583386
-0.0575548
-0.0566033
-0.0554883
-0.0542147
-0.0527879
-0.0512143
-0.0495006
-0.0476541
-0.0456824
-0.0435933
-0.0413947
-0.044417
-0.0463108
-0.0481036
-0.0497827
-0.051338
-0.0527599
-0.0540397
-0.0551697
-0.0561431
-0.0569543
-0.0575985
-0.0580721
-0.0583722
-0.058497
-0.0584455
-0.0582176
-0.0578141
-0.0572365
-0.0564874
-0.0555698
-0.0544875
-0.0532454
-0.0518485
-0.0503024
-0.0486133
-0.0467878
-0.0448327
-0.0427547
-0.0405604
-0.0429266
-0.0448409
-0.0466565
-0.0483603
-0.0499422
-0.0513924
-0.052702
-0.0538629
-0.0548684
-0.0557124
-0.0563903
-0.0568981
-0.0572328
-0.0573925
-0.0573761
-0.0571832
-0.0568147
-0.0562718
-0.0555568
-0.0546725
-0.0536227
-0.0524112
-0.0510433
-0.0495239
-0.0478586
-0.0460532
-0.0441134
-0.0420451
-0.0398536
-0.0415951
-0.0435287
-0.0453657
-0.0470929
-0.0486997
-0.0501765
-0.051514
-0.0527041
-0.0537397
-0.0546148
-0.0553244
-0.0558646
-0.0562321
-0.0564249
-0.0564417
-0.0562822
-0.0559468
-0.0554367
-0.054754
-0.0539013
-0.0528818
-0.0516995
-0.0503585
-0.0488638
-0.0472203
-0.0454329
-0.0435064
-0.0414456
-0.0392546
-0.0404238
-0.0423751
-0.0442316
-0.0459799
-0.0476094
-0.0491102
-0.050473
-0.0516895
-0.0527524
-0.0536557
-0.0543942
-0.0549638
-0.0553612
-0.0555841
-0.0556313
-0.0555021
-0.0551969
-0.0547167
-0.0540633
-0.0532392
-0.0522472
-0.051091
-0.0497745
-0.0483016
-0.0466768
-0.0449047
-0.042989
-0.0409332
-0.0387401
-0.0394064
-0.041373
-0.0432462
-0.0450127
-0.0466617
-0.0481832
-0.0495678
-0.050807
-0.0518936
-0.0528213
-0.0535849
-0.05418
-0.0546034
-0.0548527
-0.0549264
-0.0548237
-0.054545
-0.054091
-0.0534633
-0.0526642
-0.0516963
-0.0505629
-0.0492674
-0.0478135
-0.0462048
-0.0444447
-0.0425369
-0.0404837
-0.0382862
-0.0385277
-0.0405064
-0.042393
-0.044174
-0.0458387
-0.0473769
-0.0487791
-0.050037
-0.051143
-0.0520909
-0.0528752
-0.0534917
-0.0539369
-0.0542084
-0.0543044
-0.0542243
-0.0539681
-0.0535365
-0.0529309
-0.0521532
-0.051206
-0.0500921
-0.0488146
-0.0473766
-0.0457813
-0.0440313
-0.042129
-0.0400762
-0.0378726
-0.0377644
-0.0397516
-0.0416479
-0.0434397
-0.0451161
-0.046667
-0.0480829
-0.0493553
-0.0504766
-0.0514406
-0.0522418
-0.0528757
-0.0533389
-0.0536287
-0.0537436
-0.0536825
-0.0534455
-0.0530331
-0.0524464
-0.0516874
-0.0507582
-0.0496614
-0.0483996
-0.0469755
-0.0453917
-0.0436502
-0.0417522
-0.0396988
-0.0374886
-0.0370918
-0.0390844
-0.0409873
-0.0427866
-0.0444715
-0.0460318
-0.0474581
-0.0487418
-0.0498754
-0.0508525
-0.0516675
-0.052316
-0.0527944
-0.0531
-0.0532312
-0.0531868
-0.0529667
-0.0525713
-0.0520016
-0.0512593
-0.0503465
-0.0492654
-0.0480183
-0.0466072
-0.0450342
-0.0433013
-0.0414071
-0.0393536
-0.0371374
-0.0364942
-0.0384907
-0.0403987
-0.0422042
-0.0438962
-0.0454645
-0.0468999
-0.0481936
-0.0493381
-0.0503269
-0.0511545
-0.0518163
-0.0523087
-0.052629
-0.0527752
-0.0527465
-0.0525423
-0.052163
-0.0516093
-0.0508827
-0.0499848
-0.0489184
-0.0476857
-0.0462878
-0.0447242
-0.0429984
-0.0411123
-0.0390611
-0.0368413
-0.0359306
-0.0379352
-0.0398523
-0.0416679
-0.0433708
-0.0449509
-0.0463987
-0.0477058
-0.0488643
-0.0498679
-0.0507108
-0.0513884
-0.0518972
-0.0522341
-0.0523974
-0.0523859
-0.052199
-0.0518371
-0.051301
-0.0505915
-0.0497091
-0.0486568
-0.0474373
-0.0460519
-0.0445034
-0.0427901
-0.0409114
-0.0388649
-0.0366465
-0.0352937
-0.0373197
-0.0392588
-0.0410972
-0.0428235
-0.0444274
-0.0458994
-0.0472308
-0.048414
-0.0494423
-0.05031
-0.0510123
-0.0515456
-0.0519069
-0.0520941
-0.052106
-0.0519421
-0.0516024
-0.051088
-0.0504005
-0.0495425
-0.0485123
-0.0473106
-0.0459419
-0.0444086
-0.0427096
-0.0408435
-0.0388083
-0.0365997
)
;

boundaryField
{
    movingWall
    {
        type            zeroGradient;
    }
    fixedWalls
    {
        type            zeroGradient;
    }
    frontAndBack
    {
        type            empty;
    }
    procBoundary5to2
    {
        type            processor;
        value           nonuniform List<scalar> 
29
(
-0.079691
-0.0779284
-0.0760677
-0.0741155
-0.0720795
-0.0699686
-0.0677933
-0.0655659
-0.0633002
-0.0610116
-0.0587173
-0.0564355
-0.0541855
-0.0519871
-0.0498603
-0.0478243
-0.0458975
-0.0440966
-0.0424362
-0.0409278
-0.0395792
-0.0383922
-0.0373611
-0.0364716
-0.0357008
-0.0350237
-0.0344231
-0.0338521
-0.0331942
)
;
    }
    procBoundary5to3
    {
        type            processor;
        value           nonuniform List<scalar> 
21
(
-0.0925376
-0.09396
-0.0952692
-0.0964603
-0.0975284
-0.0914081
-0.0916735
-0.0918023
-0.0917937
-0.0916475
-0.0913639
-0.0909439
-0.0903887
-0.0897
-0.0888799
-0.0879306
-0.0868549
-0.0856556
-0.0843359
-0.0828993
-0.0813496
)
;
    }
    procBoundary5to4
    {
        type            processor;
        value           nonuniform List<scalar> 
48
(
-0.0874467
-0.0876839
-0.0877764
-0.0877228
-0.0875228
-0.0871765
-0.0866852
-0.0860508
-0.0852759
-0.0843643
-0.0833202
-0.0821487
-0.0808559
-0.0794485
-0.0779341
-0.0779341
-0.0759974
-0.0740029
-0.070296
-0.068536
-0.0666954
-0.0647867
-0.0628232
-0.0608196
-0.0587919
-0.0567572
-0.0547335
-0.0527397
-0.0507955
-0.0489204
-0.0471337
-0.0454535
-0.043896
-0.0424746
-0.0411987
-0.0400725
-0.0390944
-0.0382564
-0.0375439
-0.0369368
-0.0364116
-0.0359447
-0.0355167
-0.0351179
-0.0347535
-0.0344475
-0.0342498
-0.0342107
)
;
    }
    procBoundary5to6
    {
        type            processor;
        value           nonuniform List<scalar> 
21
(
-0.0984687
-0.0992768
-0.0999487
-0.100482
-0.100873
-0.101121
-0.101225
-0.101184
-0.101
-0.100673
-0.100206
-0.0996017
-0.0988634
-0.0979954
-0.0970024
-0.0958895
-0.0946629
-0.0933288
-0.0918942
-0.0903668
-0.0887548
)
;
    }
}


// ************************************************************************* //
