/*--------------------------------*- C++ -*----------------------------------*\
  =========                 |
  \\      /  F ield         | OpenFOAM: The Open Source CFD Toolbox
   \\    /   O peration     | Website:  https://openfoam.org
    \\  /    A nd           | Version:  9
     \\/     M anipulation  |
\*---------------------------------------------------------------------------*/
FoamFile
{
    format      ascii;
    class       surfaceScalarField;
    location    "1.5";
    object      phi;
}
// * * * * * * * * * * * * * * * * * * * * * * * * * * * * * * * * * * * * * //

dimensions      [0 3 -1 0 0 0 0];

internalField   nonuniform List<scalar> 
2446
(
-2.47814e-07
1.26083e-06
-2.57186e-07
1.15072e-06
-2.66809e-07
1.03871e-06
-2.76702e-07
9.24753e-07
-2.86885e-07
8.08893e-07
-2.97376e-07
6.91217e-07
-3.08186e-07
5.71882e-07
-3.19322e-07
4.51075e-07
-3.30789e-07
3.28999e-07
-3.42589e-07
2.05877e-07
-3.54721e-07
8.19396e-08
-3.67183e-07
-4.25772e-08
-3.79967e-07
-1.67441e-07
-3.93061e-07
-2.92428e-07
-4.0645e-07
-4.17322e-07
-4.20113e-07
-5.41921e-07
-4.34024e-07
-6.66034e-07
-4.48147e-07
-7.89483e-07
-4.62443e-07
-9.12094e-07
-4.76862e-07
-1.0337e-06
-4.91345e-07
-1.15413e-06
-5.05822e-07
-1.27322e-06
-5.20218e-07
-1.39076e-06
-5.34447e-07
-1.50656e-06
-5.48415e-07
-1.62038e-06
-1.73198e-06
-1.3395e-07
1.2689e-06
-1.42312e-07
1.15909e-06
-1.51007e-07
1.0474e-06
-1.60068e-07
9.33814e-07
-1.69525e-07
8.1835e-07
-1.79409e-07
7.01101e-07
-1.89738e-07
5.82211e-07
-2.00525e-07
4.61862e-07
-2.1178e-07
3.40253e-07
-2.23507e-07
2.17604e-07
-2.3571e-07
9.41423e-08
-2.48385e-07
-2.99018e-08
-2.61527e-07
-1.543e-07
-2.75122e-07
-2.78833e-07
-2.89155e-07
-4.03289e-07
-3.03603e-07
-5.27472e-07
-3.1844e-07
-6.51198e-07
-3.3363e-07
-7.74293e-07
-3.49132e-07
-8.96592e-07
-3.64895e-07
-1.01794e-06
-3.80862e-07
-1.13817e-06
-3.96965e-07
-1.25711e-06
-4.13126e-07
-1.3746e-06
-4.29261e-07
-1.49043e-06
-4.45277e-07
-1.60437e-06
-1.71618e-06
-1.93968e-08
1.27586e-06
-2.6725e-08
1.16641e-06
-3.44678e-08
1.05514e-06
-4.26724e-08
9.42018e-07
-5.13816e-08
8.2706e-07
-6.06333e-08
7.10353e-07
-7.04555e-08
5.92034e-07
-8.08683e-08
4.72274e-07
-9.1886e-08
3.51271e-07
-1.03518e-07
2.29237e-07
-1.15769e-07
1.06393e-07
-1.28637e-07
-1.7034e-08
-1.42115e-07
-1.40822e-07
-1.56191e-07
-2.64756e-07
-1.70849e-07
-3.88632e-07
-1.86064e-07
-5.12257e-07
-2.01808e-07
-6.35454e-07
-2.18045e-07
-7.58055e-07
-2.34734e-07
-8.79903e-07
-2.51824e-07
-1.00085e-06
-2.69257e-07
-1.12073e-06
-2.86967e-07
-1.2394e-06
-3.04879e-07
-1.35669e-06
-3.22907e-07
-1.4724e-06
-3.40961e-07
-1.58631e-06
-1.69819e-06
9.56439e-08
1.28171e-06
8.93641e-08
1.17269e-06
8.25894e-08
1.06192e-06
7.52591e-08
9.49349e-07
6.73187e-08
8.35e-07
5.8721e-08
7.1895e-07
4.94292e-08
6.01325e-07
3.94156e-08
4.82288e-07
2.86601e-08
3.62027e-07
1.71494e-08
2.40747e-07
4.87719e-09
1.18665e-07
-8.15667e-09
-4.00017e-09
-2.19455e-08
-1.27033e-07
-3.64771e-08
-2.50224e-07
-5.17331e-08
-3.73376e-07
-6.76895e-08
-4.96301e-07
-8.43161e-08
-6.18827e-07
-1.01577e-07
-7.40794e-07
-1.19429e-07
-8.62051e-07
-1.37822e-07
-9.82453e-07
-1.567e-07
-1.10186e-06
-1.75997e-07
-1.22011e-06
-1.95639e-07
-1.33705e-06
-2.15545e-07
-1.45249e-06
-2.35623e-07
-1.56623e-06
-1.67804e-06
2.10994e-07
1.28644e-06
2.05769e-07
1.17792e-06
1.99972e-07
1.06772e-06
1.93528e-07
9.55792e-07
1.86373e-07
8.42156e-07
1.78448e-07
7.26875e-07
1.69708e-07
6.10065e-07
1.60117e-07
4.91879e-07
1.4965e-07
3.72494e-07
1.38288e-07
2.52109e-07
1.26023e-07
1.3093e-07
1.12853e-07
9.16968e-09
9.87841e-08
-1.12964e-07
8.38277e-08
-2.35268e-07
6.80033e-08
-3.57551e-07
5.13355e-08
-4.79633e-07
3.38555e-08
-6.01347e-07
1.56003e-08
-7.22539e-07
-3.38702e-09
-8.43064e-07
-2.30577e-08
-9.62783e-07
-4.33543e-08
-1.08156e-06
-6.42133e-08
-1.19925e-06
-8.55637e-08
-1.3157e-06
-1.07327e-07
-1.43073e-06
-1.29413e-07
-1.54415e-06
-1.65572e-06
3.26492e-07
1.29005e-06
3.22322e-07
1.18209e-06
3.17504e-07
1.07253e-06
3.11953e-07
9.61343e-07
3.05593e-07
8.48517e-07
2.98355e-07
7.34113e-07
2.90185e-07
6.18235e-07
2.8104e-07
5.01024e-07
2.70887e-07
3.82647e-07
2.59703e-07
2.63292e-07
2.47476e-07
1.43157e-07
2.34203e-07
2.24433e-08
2.19886e-07
-9.86477e-08
2.0454e-07
-2.19921e-07
1.88181e-07
-3.41193e-07
1.70836e-07
-4.62288e-07
1.52536e-07
-5.83047e-07
1.33319e-07
-7.03322e-07
1.13228e-07
-8.22973e-07
9.23121e-08
-9.41867e-07
7.06268e-08
-1.05987e-06
4.82341e-08
-1.17686e-06
2.5204e-08
-1.29267e-06
1.61451e-09
-1.40714e-06
-2.2465e-08
-1.52007e-06
-1.63125e-06
4.41996e-07
1.29256e-06
4.38871e-07
1.18521e-06
4.35028e-07
1.07638e-06
4.30371e-07
9.66e-07
4.24811e-07
8.54077e-07
4.18271e-07
7.40653e-07
4.10687e-07
6.25819e-07
4.02007e-07
5.09704e-07
3.92192e-07
3.92462e-07
3.81215e-07
2.7427e-07
3.69058e-07
1.55314e-07
3.55715e-07
3.57864e-08
3.41188e-07
-8.41209e-08
3.25488e-07
-2.04222e-07
3.08634e-07
-3.24338e-07
2.90651e-07
-4.44305e-07
2.7157e-07
-5.63967e-07
2.51429e-07
-6.83181e-07
2.30271e-07
-8.01815e-07
2.08145e-07
-9.19741e-07
1.85104e-07
-1.03683e-06
1.61209e-07
-1.15296e-06
1.36526e-07
-1.26798e-06
1.11124e-07
-1.38174e-06
8.50872e-08
-1.49403e-06
-1.60466e-06
5.57387e-07
1.29398e-06
5.55292e-07
1.18731e-06
5.52413e-07
1.07926e-06
5.48642e-07
9.69771e-07
5.43882e-07
8.58837e-07
5.38045e-07
7.4649e-07
5.31059e-07
6.32806e-07
5.22862e-07
5.179e-07
5.13408e-07
4.01915e-07
5.02665e-07
2.85013e-07
4.9061e-07
1.67369e-07
4.77233e-07
4.91634e-08
4.62534e-07
-6.94217e-08
4.46521e-07
-1.88209e-07
4.29213e-07
-3.0703e-07
4.10634e-07
-4.25725e-07
3.90814e-07
-5.44147e-07
3.69792e-07
-6.62158e-07
3.47608e-07
-7.79631e-07
3.24312e-07
-8.96444e-07
2.99954e-07
-1.01248e-06
2.74593e-07
-1.1276e-06
2.4829e-07
-1.24168e-06
2.21113e-07
-1.35456e-06
1.93137e-07
-1.46606e-06
-1.57596e-06
6.72567e-07
1.29433e-06
6.71483e-07
1.18839e-06
6.69551e-07
1.08119e-06
6.66656e-07
9.72666e-07
6.6269e-07
8.62804e-07
6.57557e-07
7.51623e-07
6.51174e-07
6.39188e-07
6.43474e-07
5.256e-07
6.34403e-07
4.10987e-07
6.23919e-07
2.95497e-07
6.11997e-07
1.79291e-07
5.98622e-07
6.25387e-08
5.8379e-07
-5.45895e-08
5.67507e-07
-1.71927e-07
5.49789e-07
-2.89312e-07
5.30659e-07
-4.06595e-07
5.10147e-07
-5.23635e-07
4.88289e-07
-6.403e-07
4.65125e-07
-7.56467e-07
4.40702e-07
-8.7202e-07
4.15068e-07
-9.86842e-07
3.88279e-07
-1.10081e-06
3.60392e-07
-1.21379e-06
3.31471e-07
-1.32564e-06
3.01584e-07
-1.43617e-06
-1.54518e-06
7.87466e-07
1.29365e-06
7.87369e-07
1.18849e-06
7.86364e-07
1.08219e-06
7.84328e-07
9.74702e-07
7.81146e-07
8.65986e-07
7.76713e-07
7.56056e-07
7.70938e-07
6.44963e-07
7.63745e-07
5.32794e-07
7.55071e-07
4.1966e-07
7.44872e-07
3.05696e-07
7.33112e-07
1.9105e-07
7.19773e-07
7.58774e-08
7.04848e-07
-3.96636e-08
6.88338e-07
-1.55417e-07
6.70256e-07
-2.71231e-07
6.50623e-07
-3.86963e-07
6.29467e-07
-5.02479e-07
6.06821e-07
-6.17654e-07
5.82724e-07
-7.32371e-07
5.5722e-07
-8.46516e-07
5.30354e-07
-9.59976e-07
5.02177e-07
-1.07263e-06
4.72744e-07
-1.18436e-06
4.4211e-07
-1.295e-06
4.10339e-07
-1.4044e-06
-1.51234e-06
9.02035e-07
1.29195e-06
9.02901e-07
1.18762e-06
9.028e-07
1.08229e-06
9.01605e-07
9.75898e-07
8.99193e-07
8.68398e-07
8.95452e-07
7.59797e-07
8.90283e-07
6.50132e-07
8.83603e-07
5.39474e-07
8.75342e-07
4.27921e-07
8.65446e-07
3.15592e-07
8.53877e-07
2.0262e-07
8.40608e-07
8.91464e-08
8.25626e-07
-2.46822e-08
8.08932e-07
-1.38722e-07
7.90532e-07
-2.52831e-07
7.70444e-07
-3.66875e-07
7.48693e-07
-4.80728e-07
7.25309e-07
-5.9427e-07
7.00329e-07
-7.0739e-07
6.7379e-07
-8.19977e-07
6.45736e-07
-9.31922e-07
6.16213e-07
-1.04311e-06
5.85269e-07
-1.15341e-06
5.52956e-07
-1.26269e-06
5.19328e-07
-1.37077e-06
-1.47746e-06
1.01624e-06
1.28925e-06
1.01805e-06
1.18582e-06
1.01883e-06
1.08151e-06
1.01846e-06
9.76272e-07
1.0168e-06
8.70056e-07
1.01374e-06
7.62856e-07
1.00918e-06
6.54698e-07
1.00301e-06
5.45638e-07
9.95174e-07
4.3576e-07
9.856e-07
3.25166e-07
9.74244e-07
2.13976e-07
9.61075e-07
1.02315e-07
9.46074e-07
-9.68113e-09
9.29235e-07
-1.21883e-07
9.10561e-07
-2.34157e-07
8.90066e-07
-3.46379e-07
8.67769e-07
-4.58431e-07
8.43696e-07
-5.70198e-07
8.17879e-07
-6.81573e-07
7.90353e-07
-7.92451e-07
7.61155e-07
-9.02724e-07
7.30326e-07
-1.01228e-06
6.97907e-07
-1.121e-06
6.63943e-07
-1.22873e-06
6.28483e-07
-1.33531e-06
-1.44055e-06
1.13007e-06
1.28555e-06
1.13281e-06
1.18308e-06
1.13446e-06
1.07986e-06
1.13489e-06
9.75841e-07
1.13397e-06
8.70974e-07
1.13158e-06
7.65244e-07
1.12761e-06
6.58667e-07
1.12197e-06
5.51286e-07
1.11456e-06
4.4317e-07
1.10532e-06
3.34405e-07
1.0942e-06
2.25097e-07
1.08115e-06
1.15357e-07
1.06617e-06
5.30666e-09
1.04922e-06
-1.04937e-07
1.03031e-06
-2.15251e-07
1.00945e-06
-3.2552e-07
9.86657e-07
-4.35633e-07
9.61942e-07
-5.45483e-07
9.35335e-07
-6.54966e-07
9.06865e-07
-7.63981e-07
8.76563e-07
-8.72423e-07
8.44464e-07
-9.80182e-07
8.10603e-07
-1.08713e-06
7.75017e-07
-1.19314e-06
7.37747e-07
-1.29804e-06
-1.40164e-06
1.24351e-06
1.28086e-06
1.24717e-06
1.17942e-06
1.24968e-06
1.07735e-06
1.25091e-06
9.74617e-07
1.25072e-06
8.71163e-07
1.24899e-06
7.66971e-07
1.24561e-06
6.62045e-07
1.24048e-06
5.56419e-07
1.2335e-06
4.50145e-07
1.22461e-06
3.43299e-07
1.21374e-06
2.35967e-07
1.20085e-06
1.2825e-07
1.1859e-06
2.02526e-08
1.16888e-06
-8.79168e-08
1.14978e-06
-1.96149e-07
1.1286e-06
-3.04336e-07
1.10534e-06
-4.12376e-07
1.08002e-06
-5.20167e-07
1.05267e-06
-6.2761e-07
1.02329e-06
-7.34606e-07
9.91924e-07
-8.41055e-07
9.58589e-07
-9.46846e-07
9.23313e-07
-1.05186e-06
8.86128e-07
-1.15596e-06
8.47064e-07
-1.25898e-06
-1.36074e-06
1.35652e-06
1.27514e-06
1.36113e-06
1.17481e-06
1.3645e-06
1.07398e-06
1.36652e-06
9.72597e-07
1.36706e-06
8.70625e-07
1.36599e-06
7.68039e-07
1.3632e-06
6.64835e-07
1.35858e-06
5.61036e-07
1.35205e-06
4.56683e-07
1.34351e-06
3.51838e-07
1.3329e-06
2.46573e-07
1.32018e-06
1.40974e-07
1.3053e-06
3.51341e-08
1.28823e-06
-7.08507e-08
1.26896e-06
-1.76882e-07
1.24749e-06
-2.82862e-07
1.22381e-06
-3.88695e-07
1.19793e-06
-4.94285e-07
1.16986e-06
-5.99539e-07
1.13961e-06
-7.0436e-07
1.10721e-06
-8.0865e-07
1.07266e-06
-9.123e-07
1.03599e-06
-1.01519e-06
9.97223e-07
-1.11719e-06
9.56378e-07
-1.21813e-06
-1.31784e-06
1.46906e-06
1.26834e-06
1.47465e-06
1.16922e-06
1.47891e-06
1.06971e-06
1.48174e-06
9.69766e-07
1.48302e-06
8.69352e-07
1.48261e-06
7.68443e-07
1.48041e-06
6.67033e-07
1.47632e-06
5.65134e-07
1.47022e-06
4.62778e-07
1.46204e-06
3.60014e-07
1.45172e-06
2.56902e-07
1.43917e-06
1.53515e-07
1.42438e-06
4.99325e-08
1.40729e-06
-5.37599e-08
1.38788e-06
-1.57475e-07
1.36614e-06
-2.61124e-07
1.34206e-06
-3.64617e-07
1.31564e-06
-4.67866e-07
1.28688e-06
-5.7078e-07
1.25579e-06
-6.73268e-07
1.22237e-06
-7.75231e-07
1.18663e-06
-8.76563e-07
1.14859e-06
-9.77146e-07
1.10825e-06
-1.07685e-06
1.06563e-06
-1.17551e-06
1.02074e-06
-1.27296e-06
9.73623e-07
-1.36899e-06
9.24306e-07
-1.46339e-06
-1.55589e-06
1.58103e-06
1.26038e-06
1.58766e-06
1.16259e-06
1.59287e-06
1.0645e-06
1.59654e-06
9.6609e-07
1.59858e-06
8.67319e-07
1.59885e-06
7.68167e-07
1.59726e-06
6.68626e-07
1.59369e-06
5.68703e-07
1.58805e-06
4.68421e-07
1.58025e-06
3.67819e-07
1.5702e-06
2.66945e-07
1.55786e-06
1.6586e-07
1.54316e-06
6.46339e-08
1.52606e-06
-3.66604e-08
1.50653e-06
-1.37945e-07
1.48454e-06
-2.3914e-07
1.46009e-06
-3.40162e-07
1.43315e-06
-4.40928e-07
1.40372e-06
-5.41352e-07
1.3718e-06
-6.41345e-07
1.33738e-06
-7.4081e-07
1.30046e-06
-8.39644e-07
1.26104e-06
-9.3773e-07
1.21913e-06
-1.03493e-06
1.17473e-06
-1.13111e-06
1.12785e-06
-1.22608e-06
1.07852e-06
-1.31966e-06
1.02675e-06
-1.41162e-06
-1.50175e-06
1.69229e-06
1.25113e-06
1.70006e-06
1.15483e-06
1.70627e-06
1.05829e-06
1.71085e-06
9.61511e-07
1.71369e-06
8.6448e-07
1.71468e-06
7.67175e-07
1.71372e-06
6.69587e-07
1.7107e-06
5.71723e-07
1.70553e-06
4.73597e-07
1.69811e-06
3.75239e-07
1.68836e-06
2.7669e-07
1.67622e-06
1.78e-07
1.66163e-06
7.92272e-08
1.64453e-06
-1.95624e-08
1.62489e-06
-1.18305e-07
1.60267e-06
-2.16922e-07
1.57785e-06
-3.1534e-07
1.5504e-06
-4.13481e-07
1.52031e-06
-5.11262e-07
1.48757e-06
-6.08598e-07
1.45215e-06
-7.05393e-07
1.41405e-06
-8.01546e-07
1.37326e-06
-8.96942e-07
1.32978e-06
-9.9145e-07
1.28359e-06
-1.08492e-06
1.23471e-06
-1.1772e-06
1.18315e-06
-1.26809e-06
1.12892e-06
-1.3574e-06
-1.4449e-06
1.80259e-06
1.24047e-06
1.81162e-06
1.1458e-06
1.81895e-06
1.05095e-06
1.82452e-06
9.55943e-07
1.82824e-06
8.60766e-07
1.83e-06
7.65412e-07
1.82971e-06
6.69875e-07
1.82727e-06
5.7416e-07
1.82259e-06
4.78278e-07
1.81558e-06
3.82255e-07
1.80614e-06
2.86121e-07
1.79422e-06
1.89921e-07
1.77975e-06
9.37016e-08
1.76266e-06
-2.47246e-09
1.74291e-06
-9.85591e-08
1.72047e-06
-1.94474e-07
1.69528e-06
-2.90154e-07
1.66733e-06
-3.85526e-07
1.63658e-06
-4.80512e-07
1.603e-06
-5.75025e-07
1.56659e-06
-6.68977e-07
1.5273e-06
-7.62264e-07
1.48514e-06
-8.54775e-07
1.44007e-06
-9.46383e-07
1.39209e-06
-1.03695e-06
1.3412e-06
-1.1263e-06
1.28739e-06
-1.21428e-06
1.23069e-06
-1.3007e-06
-1.38535e-06
1.91161e-06
1.22821e-06
1.92205e-06
1.13535e-06
1.93064e-06
1.04236e-06
1.93732e-06
9.4927e-07
1.942e-06
8.56082e-07
1.94461e-06
7.628e-07
1.94506e-06
6.69425e-07
1.94326e-06
5.75964e-07
1.93911e-06
4.82427e-07
1.93253e-06
3.88836e-07
1.92343e-06
2.95217e-07
1.91174e-06
2.01608e-07
1.89739e-06
1.0805e-07
1.88033e-06
1.45945e-08
1.86048e-06
-7.87094e-08
1.8378e-06
-1.71797e-07
1.81225e-06
-2.64604e-07
1.78378e-06
-3.57061e-07
1.75237e-06
-4.49094e-07
1.71796e-06
-5.40621e-07
1.68054e-06
-6.31551e-07
1.64006e-06
-7.21787e-07
1.5965e-06
-8.11218e-07
1.54984e-06
-8.99721e-07
1.50006e-06
-9.8716e-07
1.44713e-06
-1.07338e-06
1.39108e-06
-1.15823e-06
1.3319e-06
-1.24152e-06
-1.32308e-06
2.0189e-06
1.21413e-06
2.03096e-06
1.1233e-06
2.04097e-06
1.03236e-06
2.04889e-06
9.41349e-07
2.05467e-06
8.50304e-07
2.05823e-06
7.59235e-07
2.0595e-06
6.68152e-07
2.0584e-06
5.77065e-07
2.05484e-06
4.85988e-07
2.04874e-06
3.94939e-07
2.04001e-06
3.03946e-07
2.02858e-06
2.13037e-07
2.01438e-06
1.22253e-07
1.99733e-06
3.16372e-08
1.97739e-06
-5.87625e-08
1.95448e-06
-1.4889e-07
1.92856e-06
-2.38684e-07
1.89958e-06
-3.28078e-07
1.86748e-06
-4.17e-07
1.83224e-06
-5.05372e-07
1.79379e-06
-5.93105e-07
1.75211e-06
-6.80103e-07
1.70715e-06
-7.66259e-07
1.65888e-06
-8.51454e-07
1.60728e-06
-9.35559e-07
1.55233e-06
-1.01843e-06
1.49402e-06
-1.09992e-06
1.43237e-06
-1.17987e-06
-1.25812e-06
2.12393e-06
1.198e-06
2.13781e-06
1.10943e-06
2.14943e-06
1.02073e-06
2.15877e-06
9.32007e-07
2.16579e-06
8.43282e-07
2.17044e-06
7.54588e-07
2.17265e-06
6.65946e-07
2.17234e-06
5.77372e-07
2.16944e-06
4.88885e-07
2.16388e-06
4.00506e-07
2.15556e-06
3.1226e-07
2.14442e-06
2.24175e-07
2.13039e-06
1.36288e-07
2.11339e-06
4.8639e-08
2.09335e-06
-3.87257e-08
2.07022e-06
-1.25756e-07
2.04393e-06
-2.12392e-07
2.01442e-06
-2.98571e-07
1.98164e-06
-3.84223e-07
1.94554e-06
-4.6927e-07
1.90606e-06
-5.53628e-07
1.86316e-06
-6.37203e-07
1.81679e-06
-7.19891e-07
1.76692e-06
-8.01579e-07
1.7135e-06
-8.82144e-07
1.65653e-06
-9.61454e-07
1.59598e-06
-1.03937e-06
1.53188e-06
-1.11576e-06
-1.1905e-06
2.22604e-06
1.17957e-06
2.24197e-06
1.09349e-06
2.25542e-06
1.00728e-06
2.26638e-06
9.21049e-07
2.27482e-06
8.34842e-07
2.2807e-06
7.48706e-07
2.28397e-06
6.62674e-07
2.28457e-06
5.76773e-07
2.28243e-06
4.91027e-07
2.27748e-06
4.05459e-07
2.26964e-06
3.20098e-07
2.25884e-06
2.34973e-07
2.24501e-06
1.50118e-07
2.22808e-06
6.55733e-08
2.20797e-06
-1.86152e-08
2.18462e-06
-1.02406e-07
2.15796e-06
-1.85734e-07
2.12793e-06
-2.68541e-07
2.09446e-06
-3.50759e-07
2.0575e-06
-4.32312e-07
2.01699e-06
-5.13118e-07
1.97288e-06
-5.93086e-07
1.9251e-06
-6.72116e-07
1.87363e-06
-7.50102e-07
1.81841e-06
-8.26929e-07
1.75943e-06
-9.02476e-07
1.69668e-06
-9.76623e-07
1.63018e-06
-1.04925e-06
-1.12026e-06
2.32444e-06
1.15857e-06
2.34268e-06
1.07525e-06
2.35819e-06
9.91774e-07
2.37098e-06
9.08262e-07
2.38103e-06
8.2479e-07
2.38832e-06
7.41415e-07
2.39281e-06
6.58185e-07
2.39445e-06
5.75134e-07
2.39318e-06
4.92296e-07
2.38894e-06
4.09702e-07
2.38166e-06
3.27381e-07
2.37126e-06
2.45366e-07
2.35769e-06
1.63692e-07
2.34086e-06
8.23985e-08
2.32071e-06
1.54048e-09
2.29717e-06
-7.88618e-08
2.27016e-06
-1.58725e-07
2.23962e-06
-2.38e-07
2.20548e-06
-3.16619e-07
2.16767e-06
-3.94508e-07
2.12614e-06
-4.71587e-07
2.08082e-06
-5.47768e-07
2.03167e-06
-6.22958e-07
1.97862e-06
-6.97054e-07
1.92164e-06
-7.69954e-07
1.86071e-06
-8.41549e-07
1.79583e-06
-9.11736e-07
1.72699e-06
-9.80421e-07
-1.04753e-06
2.41831e-06
1.13476e-06
2.4391e-06
1.05446e-06
2.45691e-06
9.73966e-07
2.47175e-06
8.93423e-07
2.48362e-06
8.12919e-07
2.49251e-06
7.32527e-07
2.49839e-06
6.52306e-07
2.50122e-06
5.72304e-07
2.50095e-06
4.92562e-07
2.49753e-06
4.13119e-07
2.4909e-06
3.34009e-07
2.481e-06
2.55271e-07
2.46775e-06
1.76941e-07
2.45109e-06
9.9062e-08
2.43095e-06
2.1681e-08
2.40724e-06
-5.51603e-08
2.37992e-06
-1.314e-07
2.3489e-06
-2.0698e-07
2.31411e-06
-2.81833e-07
2.27549e-06
-3.55889e-07
2.23298e-06
-4.2907e-07
2.1865e-06
-5.0129e-07
2.136e-06
-5.72463e-07
2.08144e-06
-6.42494e-07
2.02278e-06
-7.11291e-07
1.95999e-06
-7.78761e-07
1.89308e-06
-8.44819e-07
1.82205e-06
-9.09396e-07
-9.72448e-07
2.50672e-06
1.10788e-06
2.53031e-06
1.03087e-06
2.55064e-06
9.53628e-07
2.56776e-06
8.7631e-07
2.58166e-06
7.9902e-07
2.59234e-06
7.21845e-07
2.59979e-06
6.44858e-07
2.60397e-06
5.68118e-07
2.60486e-06
4.91676e-07
2.6024e-06
4.15578e-07
2.59654e-06
3.39867e-07
2.58723e-06
2.64585e-07
2.57439e-06
1.89774e-07
2.55798e-06
1.15479e-07
2.53791e-06
4.17486e-08
2.51412e-06
-3.13684e-08
2.48654e-06
-1.03818e-07
2.45509e-06
-1.75536e-07
2.41972e-06
-2.46458e-07
2.38034e-06
-3.16515e-07
2.3369e-06
-3.8563e-07
2.28934e-06
-4.53725e-07
2.23759e-06
-5.20717e-07
2.18162e-06
-5.86523e-07
2.12139e-06
-6.5106e-07
2.05688e-06
-7.14252e-07
1.9881e-06
-7.76037e-07
1.91507e-06
-8.3637e-07
-8.9524e-07
2.58873e-06
1.07772e-06
2.61533e-06
1.00427e-06
2.63842e-06
9.30543e-07
2.65802e-06
8.56709e-07
2.67415e-06
7.82885e-07
2.68683e-06
7.09173e-07
2.69603e-06
6.35655e-07
2.70174e-06
5.62403e-07
2.70394e-06
4.89477e-07
2.70259e-06
4.16933e-07
2.69764e-06
3.4482e-07
2.68904e-06
2.73186e-07
2.67673e-06
2.0208e-07
2.66066e-06
1.3155e-07
2.64076e-06
6.16458e-08
2.61697e-06
-7.5743e-09
2.58922e-06
-7.60665e-08
2.55744e-06
-1.43756e-07
2.52156e-06
-2.10585e-07
2.48153e-06
-2.76482e-07
2.43728e-06
-3.41376e-07
2.38874e-06
-4.05192e-07
2.33588e-06
-4.67856e-07
2.27865e-06
-5.29295e-07
2.21703e-06
-5.89438e-07
2.15101e-06
-6.4823e-07
2.0806e-06
-7.05627e-07
2.00585e-06
-7.61616e-07
-8.16218e-07
2.66344e-06
1.04412e-06
2.69323e-06
9.74475e-07
2.71926e-06
9.04521e-07
2.74154e-06
8.34428e-07
2.7601e-06
7.64325e-07
2.77495e-06
6.94323e-07
2.78609e-06
6.24516e-07
2.7935e-06
5.54984e-07
2.79718e-06
4.858e-07
2.79709e-06
4.17025e-07
2.79319e-06
3.48719e-07
2.78544e-06
2.80935e-07
2.77379e-06
2.13726e-07
2.7582e-06
1.47147e-07
2.73859e-06
8.12509e-08
2.71492e-06
1.60961e-08
2.68712e-06
-4.82656e-08
2.65513e-06
-1.11767e-07
2.61889e-06
-1.74345e-07
2.57834e-06
-2.35933e-07
2.53343e-06
-2.96464e-07
2.48411e-06
-3.55868e-07
2.43033e-06
-4.14079e-07
2.37207e-06
-4.71036e-07
2.30932e-06
-5.26684e-07
2.24207e-06
-5.80986e-07
2.17037e-06
-6.33923e-07
2.09426e-06
-6.85508e-07
-7.358e-07
2.72998e-06
1.00695e-06
2.7631e-06
9.41348e-07
2.79221e-06
8.75412e-07
2.81733e-06
8.09308e-07
2.83848e-06
7.43173e-07
2.85568e-06
6.77126e-07
2.86893e-06
6.1127e-07
2.87822e-06
5.45695e-07
2.88354e-06
4.80479e-07
2.88487e-06
4.15694e-07
2.88218e-06
3.51406e-07
2.87544e-06
2.87675e-07
2.86461e-06
2.24559e-07
2.84964e-06
1.62118e-07
2.83048e-06
1.00408e-07
2.80709e-06
3.94882e-08
2.77941e-06
-2.05812e-08
2.74738e-06
-7.97424e-08
2.71096e-06
-1.37927e-07
2.6701e-06
-1.95075e-07
2.62476e-06
-2.51121e-07
2.5749e-06
-3.06004e-07
2.52049e-06
-3.59669e-07
2.46152e-06
-4.12065e-07
2.39799e-06
-4.63156e-07
2.32993e-06
-5.12923e-07
2.25737e-06
-5.61373e-07
2.18041e-06
-6.08548e-07
-6.5454e-07
2.78759e-06
9.66132e-07
2.82414e-06
9.04802e-07
2.85644e-06
8.4311e-07
2.88452e-06
7.81228e-07
2.9084e-06
7.19296e-07
2.92809e-06
6.57439e-07
2.94359e-06
5.95767e-07
2.95491e-06
5.34377e-07
2.96203e-06
4.73353e-07
2.96495e-06
4.12774e-07
2.96365e-06
3.52712e-07
2.95809e-06
2.93233e-07
2.94825e-06
2.34401e-07
2.93409e-06
1.76278e-07
2.91557e-06
1.18923e-07
2.89266e-06
6.23985e-08
2.86531e-06
6.76743e-09
2.83349e-06
-4.79192e-08
2.79715e-06
-1.01591e-07
2.75627e-06
-1.54191e-07
2.71081e-06
-2.05663e-07
2.66076e-06
-2.55954e-07
2.60611e-06
-3.05018e-07
2.54687e-06
-3.5282e-07
2.48305e-06
-3.99341e-07
2.41471e-06
-4.44582e-07
2.34191e-06
-4.88575e-07
2.26476e-06
-5.31391e-07
-5.73154e-07
2.8357e-06
9.21676e-07
2.8757e-06
8.64804e-07
2.91125e-06
8.07559e-07
2.94236e-06
7.5011e-07
2.96906e-06
6.92597e-07
2.99135e-06
6.35149e-07
3.00924e-06
5.77879e-07
3.02273e-06
5.20887e-07
3.03182e-06
4.64266e-07
3.0365e-06
4.08097e-07
3.03675e-06
3.52456e-07
3.03257e-06
2.97416e-07
3.02393e-06
2.43042e-07
3.01081e-06
1.894e-07
2.99318e-06
1.36553e-07
2.97102e-06
8.45605e-08
2.9443e-06
3.34844e-08
2.913e-06
-1.66184e-08
2.8771e-06
-6.56912e-08
2.83658e-06
-1.13678e-07
2.79145e-06
-1.60529e-07
2.7417e-06
-2.06203e-07
2.68734e-06
-2.50665e-07
2.62842e-06
-2.93895e-07
2.56497e-06
-3.35892e-07
2.49707e-06
-3.76678e-07
2.4248e-06
-4.16309e-07
2.34829e-06
-4.5488e-07
-4.92546e-07
2.8739e-06
8.7363e-07
2.91733e-06
8.21377e-07
2.95614e-06
7.68752e-07
2.99033e-06
7.15917e-07
3.01992e-06
6.63013e-07
3.0449e-06
6.10166e-07
3.06529e-06
5.5749e-07
3.08109e-06
5.05089e-07
3.0923e-06
4.53056e-07
3.09892e-06
4.01476e-07
3.10094e-06
3.50428e-07
3.09837e-06
2.99986e-07
3.0912e-06
2.5022e-07
3.0794e-06
2.01193e-07
3.06299e-06
1.5297e-07
3.04193e-06
1.05611e-07
3.01625e-06
5.91733e-08
2.98591e-06
1.37127e-08
2.95094e-06
-3.07208e-08
2.91135e-06
-7.40783e-08
2.86713e-06
-1.16319e-07
2.81834e-06
-1.5741e-07
2.76501e-06
-1.97332e-07
2.70719e-06
-2.36079e-07
2.64497e-06
-2.73667e-07
2.57843e-06
-3.10137e-07
2.50768e-06
-3.45566e-07
2.43288e-06
-3.80072e-07
-4.13832e-07
2.90213e-06
8.22086e-07
2.94893e-06
7.74576e-07
2.99097e-06
7.26708e-07
3.02825e-06
6.78636e-07
3.06077e-06
6.30493e-07
3.08854e-06
5.82404e-07
3.11155e-06
5.34479e-07
3.12981e-06
4.86823e-07
3.14334e-06
4.39527e-07
3.15214e-06
3.92678e-07
3.15621e-06
3.46355e-07
3.15557e-06
3.00631e-07
3.15021e-06
2.55575e-07
3.14015e-06
2.11252e-07
3.1254e-06
1.67722e-07
3.10597e-06
1.25044e-07
3.08187e-06
8.32711e-08
3.05313e-06
4.24532e-08
3.01977e-06
2.63591e-09
2.98184e-06
-3.61434e-08
2.93937e-06
-7.385e-08
2.89242e-06
-1.10465e-07
2.84107e-06
-1.45979e-07
2.78539e-06
-1.80402e-07
2.72549e-06
-2.13764e-07
2.66148e-06
-2.46124e-07
2.59349e-06
-2.77575e-07
2.52167e-06
-3.08252e-07
-3.3835e-07
2.92081e-06
7.67139e-07
2.97093e-06
7.24454e-07
3.0162e-06
6.81436e-07
3.05661e-06
6.38226e-07
3.09215e-06
5.94951e-07
3.12283e-06
5.51726e-07
3.14865e-06
5.08661e-07
3.16962e-06
4.65851e-07
3.18576e-06
4.23389e-07
3.19708e-06
3.81357e-07
3.2036e-06
3.39833e-07
3.20535e-06
2.98886e-07
3.20234e-06
2.58583e-07
3.1946e-06
2.18987e-07
3.18217e-06
1.80153e-07
3.16508e-06
1.42135e-07
3.14337e-06
1.04982e-07
3.11709e-06
6.87373e-08
3.08628e-06
3.34382e-08
3.05103e-06
-8.87952e-10
3.01139e-06
-3.42122e-08
2.96745e-06
-6.6527e-08
2.91931e-06
-9.78369e-08
2.86707e-06
-1.28162e-07
2.81085e-06
-1.57546e-07
2.75078e-06
-1.86057e-07
2.68701e-06
-2.13803e-07
2.61969e-06
-2.4093e-07
-2.67641e-07
2.93148e-06
7.08807e-07
2.98496e-06
6.70976e-07
3.03355e-06
6.32845e-07
3.07724e-06
5.94539e-07
3.11602e-06
5.56174e-07
3.14988e-06
5.17858e-07
3.17885e-06
4.7969e-07
3.20294e-06
4.41762e-07
3.22217e-06
4.04158e-07
3.23658e-06
3.66956e-07
3.24618e-06
3.30229e-07
3.25102e-06
2.94043e-07
3.25115e-06
2.58459e-07
3.2466e-06
2.23534e-07
3.23743e-06
1.89319e-07
3.22371e-06
1.55862e-07
3.20548e-06
1.23206e-07
3.18283e-06
9.13852e-08
3.15584e-06
6.04315e-08
3.12459e-06
3.03671e-08
3.08918e-06
1.19691e-09
3.0497e-06
-2.70547e-08
3.00629e-06
-5.44216e-08
2.95905e-06
-8.09253e-08
2.90813e-06
-1.06618e-07
2.85365e-06
-1.31578e-07
2.79576e-06
-1.55916e-07
2.73461e-06
-1.79784e-07
-2.03386e-07
2.93816e-06
6.46909e-07
2.99524e-06
6.13896e-07
3.04747e-06
5.80616e-07
3.09482e-06
5.47182e-07
3.13731e-06
5.13694e-07
3.17491e-06
4.80249e-07
3.20767e-06
4.46936e-07
3.23559e-06
4.13839e-07
3.25872e-06
3.81033e-07
3.27708e-06
3.4859e-07
3.29074e-06
3.16575e-07
3.29973e-06
2.85047e-07
3.30413e-06
2.54063e-07
3.30399e-06
2.23673e-07
3.29939e-06
1.93921e-07
3.2904e-06
1.6485e-07
3.27711e-06
1.36494e-07
3.25961e-06
1.08884e-07
3.238e-06
8.20426e-08
3.21239e-06
5.59855e-08
3.18286e-06
3.07183e-08
3.14957e-06
6.23595e-09
3.11262e-06
-1.74728e-08
3.07215e-06
-4.04508e-08
3.02828e-06
-6.27499e-08
2.98115e-06
-8.44513e-08
2.93091e-06
-1.05667e-07
2.87767e-06
-1.26545e-07
-1.47284e-07
2.95013e-06
5.80907e-07
3.01143e-06
5.52597e-07
3.06799e-06
5.24056e-07
3.1198e-06
4.95377e-07
3.16684e-06
4.66648e-07
3.20914e-06
4.37951e-07
3.24671e-06
4.09366e-07
3.27959e-06
3.80964e-07
3.30781e-06
3.52812e-07
3.33142e-06
3.24974e-07
3.35049e-06
2.97506e-07
3.36508e-06
2.70461e-07
3.37525e-06
2.43888e-07
3.3811e-06
2.1783e-07
3.38269e-06
1.92328e-07
3.38012e-06
1.67415e-07
3.3735e-06
1.43121e-07
3.36291e-06
1.19471e-07
3.34847e-06
9.64828e-08
3.33029e-06
7.41664e-08
3.30848e-06
5.25241e-08
3.28317e-06
3.15476e-08
3.25448e-06
1.12149e-08
3.22254e-06
-8.51022e-09
3.18747e-06
-2.76779e-08
3.14939e-06
-4.63691e-08
3.10842e-06
-6.46942e-08
3.06466e-06
-8.27909e-08
-1.00846e-07
2.98696e-06
5.09828e-07
3.05352e-06
4.86036e-07
3.11553e-06
4.62044e-07
3.17298e-06
4.37931e-07
3.22586e-06
4.13769e-07
3.27418e-06
3.89628e-07
3.31797e-06
3.65573e-07
3.35727e-06
3.41666e-07
3.39212e-06
3.17965e-07
3.42257e-06
2.94523e-07
3.44868e-06
2.71389e-07
3.47054e-06
2.48609e-07
3.4882e-06
2.26225e-07
3.50175e-06
2.04274e-07
3.51129e-06
1.82789e-07
3.51691e-06
1.61801e-07
3.5187e-06
1.41333e-07
3.51676e-06
1.21406e-07
3.51121e-06
1.02033e-07
3.50215e-06
8.32228e-08
3.4897e-06
6.4974e-08
3.47397e-06
4.72774e-08
3.45508e-06
3.01118e-08
3.43313e-06
1.34424e-08
3.40824e-06
-2.79532e-09
3.38051e-06
-1.86366e-08
3.35003e-06
-3.42166e-08
3.31689e-06
-4.96503e-08
-6.51072e-08
3.08534e-06
4.32461e-07
3.15842e-06
4.12953e-07
3.22719e-06
3.9328e-07
3.29161e-06
3.73504e-07
3.3517e-06
3.53683e-07
3.40746e-06
3.33872e-07
3.4589e-06
3.14126e-07
3.50607e-06
2.94496e-07
3.54901e-06
2.75029e-07
3.58776e-06
2.5577e-07
3.62239e-06
2.3676e-07
3.65296e-06
2.18039e-07
3.67955e-06
1.9964e-07
3.70223e-06
1.81597e-07
3.72108e-06
1.63936e-07
3.7362e-06
1.46683e-07
3.74767e-06
1.29858e-07
3.7556e-06
1.13479e-07
3.76008e-06
9.75549e-08
3.76121e-06
8.20924e-08
3.75909e-06
6.70896e-08
3.75383e-06
5.25371e-08
3.74553e-06
3.84156e-08
3.73428e-06
2.46936e-08
3.72016e-06
1.13224e-08
3.70328e-06
-1.76299e-09
3.6837e-06
-1.46337e-08
3.66148e-06
-2.74254e-08
-4.02736e-08
3.30597e-06
3.48069e-07
3.3863e-06
3.3262e-07
3.46254e-06
3.17046e-07
3.53465e-06
3.01391e-07
3.60263e-06
2.85701e-07
3.66649e-06
2.70019e-07
3.72623e-06
2.54388e-07
3.78187e-06
2.38849e-07
3.83346e-06
2.2344e-07
3.88103e-06
2.08198e-07
3.92464e-06
1.93155e-07
3.96433e-06
1.78344e-07
4.00018e-06
1.63792e-07
4.03225e-06
1.49527e-07
4.06062e-06
1.35571e-07
4.08535e-06
1.21944e-07
4.10655e-06
1.08663e-07
4.12429e-06
9.5742e-08
4.13865e-06
8.31883e-08
4.14974e-06
7.10064e-08
4.15763e-06
5.91938e-08
4.16243e-06
4.7742e-08
4.16421e-06
3.66338e-08
4.16306e-06
2.58443e-08
4.15905e-06
1.53299e-08
4.15225e-06
5.03641e-09
4.14273e-06
-5.11009e-09
4.13051e-06
-1.52066e-08
-2.53718e-08
3.73538e-06
2.57751e-07
3.82181e-06
2.46187e-07
3.90432e-06
2.34539e-07
3.98287e-06
2.22843e-07
4.05744e-06
2.1113e-07
4.12803e-06
1.99431e-07
4.19464e-06
1.8778e-07
4.25728e-06
1.76206e-07
4.31598e-06
1.64739e-07
4.37077e-06
1.53408e-07
4.42169e-06
1.42236e-07
4.46878e-06
1.3125e-07
4.5121e-06
1.2047e-07
4.55171e-06
1.09916e-07
4.58768e-06
9.96072e-08
4.62006e-06
8.95574e-08
4.64895e-06
7.97796e-08
4.67441e-06
7.02831e-08
4.69652e-06
6.10734e-08
4.71538e-06
5.21532e-08
4.73105e-06
4.35193e-08
4.74363e-06
3.51643e-08
4.75319e-06
2.70738e-08
4.75981e-06
1.92269e-08
4.76354e-06
1.15904e-08
4.76446e-06
4.12556e-09
4.76261e-06
-3.26474e-09
4.75802e-06
-1.06191e-08
-1.80362e-08
4.47568e-06
1.66171e-07
4.56351e-06
1.58353e-07
4.64755e-06
1.50496e-07
4.72777e-06
1.42622e-07
4.80415e-06
1.34753e-07
4.87667e-06
1.26911e-07
4.94533e-06
1.19116e-07
5.01015e-06
1.1139e-07
5.07114e-06
1.03753e-07
5.12832e-06
9.62249e-08
5.18173e-06
8.8822e-08
5.23142e-06
8.1561e-08
5.27743e-06
7.44569e-08
5.31983e-06
6.7523e-08
5.35866e-06
6.07709e-08
5.39401e-06
5.42106e-08
5.42594e-06
4.785e-08
5.45453e-06
4.16947e-08
5.47986e-06
3.57463e-08
5.50201e-06
3.00036e-08
5.52106e-06
2.44627e-08
5.53711e-06
1.91213e-08
5.55021e-06
1.39731e-08
5.56044e-06
8.99437e-09
5.56789e-06
4.13754e-09
5.57255e-06
-5.2976e-10
5.57456e-06
-5.2802e-09
5.57388e-06
-9.93985e-09
-1.46718e-08
5.61524e-06
8.29373e-08
5.69496e-06
7.86346e-08
5.77113e-06
7.43243e-08
5.84373e-06
7.0022e-08
5.91275e-06
6.57397e-08
5.97817e-06
6.14887e-08
6.04e-06
5.72811e-08
6.09827e-06
5.31287e-08
6.15298e-06
4.90428e-08
6.20417e-06
4.50336e-08
6.25188e-06
4.11106e-08
6.29616e-06
3.72824e-08
6.33706e-06
3.35568e-08
6.37464e-06
2.99405e-08
6.40897e-06
2.64392e-08
6.44012e-06
2.30573e-08
6.46818e-06
1.97991e-08
6.4932e-06
1.6667e-08
6.51529e-06
1.36628e-08
6.53451e-06
1.07786e-08
6.55098e-06
7.99361e-09
6.56477e-06
5.32808e-09
6.57596e-06
2.78875e-09
6.58456e-06
3.97538e-10
6.59072e-06
-2.02278e-09
6.59452e-06
-4.33632e-09
6.59589e-06
-6.65081e-09
6.59492e-06
-8.96292e-09
-1.13263e-08
7.17743e-06
2.23953e-08
7.23508e-06
2.09837e-08
7.28983e-06
1.9576e-08
7.34167e-06
1.81815e-08
7.3906e-06
1.68048e-08
7.43664e-06
1.5449e-08
7.47981e-06
1.41178e-08
7.52012e-06
1.28152e-08
7.55762e-06
1.15449e-08
7.59234e-06
1.031e-08
7.62434e-06
9.11331e-09
7.65366e-06
7.95731e-09
7.68038e-06
6.84405e-09
7.70454e-06
5.77512e-09
7.72623e-06
4.75181e-09
7.74551e-06
3.77457e-09
7.76247e-06
2.84436e-09
7.77717e-06
1.96065e-09
7.78971e-06
1.12981e-09
7.80012e-06
3.65757e-10
7.80854e-06
-4.25812e-10
7.81503e-06
-1.16526e-09
7.81964e-06
-1.82104e-09
7.82249e-06
-2.45185e-09
7.82356e-06
-3.09315e-09
7.82294e-06
-3.71249e-09
7.82062e-06
-4.33173e-09