/*--------------------------------*- C++ -*----------------------------------*\
  =========                 |
  \\      /  F ield         | OpenFOAM: The Open Source CFD Toolbox
   \\    /   O peration     | Website:  https://openfoam.org
    \\  /    A nd           | Version:  9
     \\/     M anipulation  |
\*---------------------------------------------------------------------------*/
FoamFile
{
    format      ascii;
    class       volVectorField;
    location    "1.5";
    object      U;
}
// * * * * * * * * * * * * * * * * * * * * * * * * * * * * * * * * * * * * * //

dimensions      [0 1 -1 0 0 0 0];

internalField   nonuniform List<vector> 
1260
(
(-0.024322 0.125652 0)
(-0.0252472 0.114628 0)
(-0.0261963 0.103412 0)
(-0.0271716 0.0920004 0)
(-0.028175 0.0803974 0)
(-0.0292078 0.0686115 0)
(-0.0302721 0.0566588 0)
(-0.0313689 0.0445585 0)
(-0.0324986 0.032331 0)
(-0.0336614 0.0199987 0)
(-0.0348576 0.00758475 0)
(-0.0360869 -0.00488697 0)
(-0.0373489 -0.0173931 0)
(-0.0386427 -0.0299108 0)
(-0.0399669 -0.0424186 0)
(-0.0413196 -0.0548957 0)
(-0.0426986 -0.067323 0)
(-0.0441009 -0.079682 0)
(-0.0455226 -0.0919553 0)
(-0.0469594 -0.104126 0)
(-0.0484056 -0.116176 0)
(-0.0498551 -0.128087 0)
(-0.0513005 -0.139841 0)
(-0.0527335 -0.151416 0)
(-0.0541454 -0.162789 0)
(-0.0555266 -0.173934 0)
(-0.0129881 0.126513 0)
(-0.0138085 0.115516 0)
(-0.0146605 0.104329 0)
(-0.0155474 0.0929491 0)
(-0.0164724 0.0813802 0)
(-0.0174385 0.0696311 0)
(-0.0184483 0.0577167 0)
(-0.0195034 0.0456556 0)
(-0.0206048 0.033468 0)
(-0.0217534 0.0211759 0)
(-0.0229494 0.00880237 0)
(-0.0241929 -0.00362927 0)
(-0.0254834 -0.016096 0)
(-0.0268201 -0.0285755 0)
(-0.0282016 -0.0410466 0)
(-0.0296258 -0.0534893 0)
(-0.0310904 -0.0658848 0)
(-0.0325923 -0.0782155 0)
(-0.0341277 -0.0904645 0)
(-0.0356919 -0.102616 0)
(-0.0372797 -0.114652 0)
(-0.0388846 -0.126557 0)
(-0.0404995 -0.138313 0)
(-0.0421161 -0.149898 0)
(-0.0437257 -0.161289 0)
(-0.0453186 -0.172463 0)
(-0.00158637 0.127265 0)
(-0.00229959 0.116301 0)
(-0.0030519 0.105151 0)
(-0.0038481 0.0938131 0)
(-0.00469257 0.0822894 0)
(-0.00558948 0.0705888 0)
(-0.00654219 0.0587253 0)
(-0.00755309 0.0467166 0)
(-0.00862385 0.0345826 0)
(-0.00975568 0.022345 0)
(-0.0109493 0.0100261 0)
(-0.0122048 -0.00235101 0)
(-0.0135218 -0.0147639 0)
(-0.0148994 -0.0271908 0)
(-0.0163362 -0.039611 0)
(-0.01783 -0.052005 0)
(-0.0193783 -0.0643547 0)
(-0.020978 -0.076643 0)
(-0.022625 -0.088854 0)
(-0.0243149 -0.100972 0)
(-0.0260423 -0.112981 0)
(-0.0278009 -0.124866 0)
(-0.0295836 -0.136608 0)
(-0.0313823 -0.148188 0)
(-0.0331885 -0.159585 0)
(-0.0349925 -0.170773 0)
(0.00986338 0.127907 0)
(0.0092587 0.116982 0)
(0.00860757 0.105878 0)
(0.0079038 0.0945908 0)
(0.00714176 0.083123 0)
(0.00631621 0.0714823 0)
(0.00542292 0.0596821 0)
(0.00445868 0.0477391 0)
(0.0034211 0.0356725 0)
(0.00230854 0.0235034 0)
(0.00111998 0.0112535 0)
(-0.000144889 -0.00105469 0)
(-0.00148575 -0.0133993 0)
(-0.00290166 -0.0257592 0)
(-0.0043911 -0.0381141 0)
(-0.00595194 -0.0504453 0)
(-0.00758149 -0.062735 0)
(-0.00927644 -0.074967 0)
(-0.0110328 -0.0871258 0)
(-0.0128461 -0.0991966 0)
(-0.0147108 -0.111165 0)
(-0.0166209 -0.123014 0)
(-0.0185694 -0.134729 0)
(-0.0205485 -0.146291 0)
(-0.0225497 -0.157678 0)
(-0.0245636 -0.168866 0)
(0.0213438 0.128436 0)
(0.0208482 0.117558 0)
(0.0202991 0.106507 0)
(0.0196888 0.0952802 0)
(0.0190106 0.0838785 0)
(0.0182581 0.0723093 0)
(0.0174263 0.0605847 0)
(0.0165109 0.0487204 0)
(0.015509 0.0367348 0)
(0.0144184 0.0246481 0)
(0.0132378 0.0124816 0)
(0.0119665 0.000256742 0)
(0.0106048 -0.0120052 0)
(0.00915365 -0.0242835 0)
(0.00761454 -0.0365588 0)
(0.00598968 -0.0488128 0)
(0.00428188 -0.0610284 0)
(0.00249451 -0.0731899 0)
(0.000631563 -0.0852826 0)
(-0.00130228 -0.0972922 0)
(-0.00330171 -0.109205 0)
(-0.00536078 -0.121005 0)
(-0.0074727 -0.132679 0)
(-0.00963014 -0.144206 0)
(-0.0118245 -0.155568 0)
(-0.0140467 -0.166741 0)
(0.0328392 0.128853 0)
(0.0324525 0.118028 0)
(0.0320053 0.107038 0)
(0.0314889 0.0958803 0)
(0.0308954 0.0845549 0)
(0.0302173 0.0730682 0)
(0.0294485 0.061431 0)
(0.0285842 0.0496581 0)
(0.0276204 0.0377669 0)
(0.0265545 0.0257765 0)
(0.0253847 0.0137074 0)
(0.0241101 0.00158021 0)
(0.022731 -0.0105846 0)
(0.0212479 -0.022767 0)
(0.0196626 -0.0349483 0)
(0.0179772 -0.0471108 0)
(0.0161945 -0.059238 0)
(0.0143181 -0.071315 0)
(0.0123519 -0.0833273 0)
(0.0103006 -0.0952616 0)
(0.00816947 -0.107104 0)
(0.00596435 -0.118842 0)
(0.00369175 -0.130458 0)
(0.00135853 -0.141937 0)
(-0.00102668 -0.153259 0)
(-0.00345525 -0.164401 0)
(0.0443357 0.129159 0)
(0.0440568 0.118392 0)
(0.043711 0.107471 0)
(0.0432883 0.096391 0)
(0.0427796 0.0851514 0)
(0.0421767 0.0737576 0)
(0.0414723 0.0622194 0)
(0.0406606 0.0505502 0)
(0.0397372 0.0387663 0)
(0.0386987 0.0268857 0)
(0.0375427 0.0149278 0)
(0.0362683 0.00291234 0)
(0.0348752 -0.00914104 0)
(0.033364 -0.0212133 0)
(0.0317362 -0.0332862 0)
(0.0299941 -0.0453429 0)
(0.0281405 -0.0573676 0)
(0.0261788 -0.0693456 0)
(0.0241131 -0.0812634 0)
(0.021948 -0.0931081 0)
(0.0196886 -0.104867 0)
(0.0173407 -0.116526 0)
(0.0149105 -0.128071 0)
(0.0124047 -0.139487 0)
(0.0098312 -0.150752 0)
(0.00719802 -0.161847 0)
(0.0558217 0.129355 0)
(0.0556489 0.118653 0)
(0.055403 0.107807 0)
(0.0550731 0.0968125 0)
(0.0546491 0.0856676 0)
(0.0541215 0.0743768 0)
(0.0534824 0.0629485 0)
(0.0527249 0.0513948 0)
(0.0518439 0.0397306 0)
(0.0508352 0.0279728 0)
(0.0496962 0.0161396 0)
(0.0484252 0.00424962 0)
(0.0470218 -0.00767838 0)
(0.0454864 -0.0196263 0)
(0.0438203 -0.0315766 0)
(0.0420257 -0.0435133 0)
(0.0401054 -0.055421 0)
(0.0380627 -0.0672859 0)
(0.0359017 -0.0790949 0)
(0.0336269 -0.0908355 0)
(0.0312432 -0.102495 0)
(0.0287562 -0.114062 0)
(0.0261718 -0.125521 0)
(0.0234965 -0.136857 0)
(0.0207374 -0.148051 0)
(0.0179021 -0.159081 0)
(0.0672878 0.129443 0)
(0.0672189 0.118812 0)
(0.0670712 0.108048 0)
(0.0668327 0.0971457 0)
(0.0664923 0.086104 0)
(0.0660399 0.0749255 0)
(0.0654663 0.0636174 0)
(0.0647641 0.0521902 0)
(0.0639271 0.0406576 0)
(0.0629507 0.0290351 0)
(0.0618314 0.0173395 0)
(0.0605673 0.00558847 0)
(0.0591574 -0.00620047 0)
(0.0576019 -0.0180101 0)
(0.0559019 -0.0298238 0)
(0.0540593 -0.0416263 0)
(0.0520769 -0.0534029 0)
(0.0499578 -0.0651403 0)
(0.0477061 -0.0768259 0)
(0.0453259 -0.0884479 0)
(0.0428222 -0.0999943 0)
(0.0402001 -0.111453 0)
(0.0374652 -0.12281 0)
(0.0346237 -0.13405 0)
(0.031682 -0.145156 0)
(0.0286471 -0.156106 0)
(0.078727 0.129427 0)
(0.0787596 0.11887 0)
(0.0787078 0.108194 0)
(0.0785587 0.097392 0)
(0.0783007 0.0864614 0)
(0.0779227 0.0754039 0)
(0.0774147 0.0642255 0)
(0.0767684 0.0529353 0)
(0.0759769 0.0415455 0)
(0.0750347 0.0300701 0)
(0.0739379 0.0185246 0)
(0.0726838 0.00692532 0)
(0.0712711 -0.00471128 0)
(0.0696996 -0.016369 0)
(0.0679701 -0.0280324 0)
(0.0660843 -0.0396866 0)
(0.0640445 -0.0513179 0)
(0.061854 -0.0629135 0)
(0.0595163 -0.0744613 0)
(0.0570355 -0.08595 0)
(0.0544162 -0.0973679 0)
(0.0516633 -0.108703 0)
(0.0487818 -0.119943 0)
(0.0457775 -0.131071 0)
(0.0426561 -0.142072 0)
(0.0394242 -0.152924 0)
(0.0901344 0.129307 0)
(0.0902661 0.118832 0)
(0.0903077 0.108249 0)
(0.0902461 0.0975532 0)
(0.0900688 0.0867409 0)
(0.089764 0.0758126 0)
(0.0893211 0.0647728 0)
(0.088731 0.0536293 0)
(0.0879859 0.0423927 0)
(0.0870797 0.0310755 0)
(0.0860077 0.0196919 0)
(0.0847668 0.00825676 0)
(0.0833549 -0.00321473 0)
(0.0817715 -0.0147075 0)
(0.080017 -0.0262069 0)
(0.0780925 -0.0376991 0)
(0.0760004 -0.049171 0)
(0.0737433 -0.0606104 0)
(0.0713246 -0.0720059 0)
(0.068748 -0.0833463 0)
(0.0660178 -0.0946204 0)
(0.0631382 -0.105817 0)
(0.0601141 -0.116922 0)
(0.0569504 -0.127923 0)
(0.0536524 -0.138801 0)
(0.0502258 -0.149537 0)
(0.101507 0.129087 0)
(0.101735 0.118698 0)
(0.101868 0.108215 0)
(0.101892 0.0976314 0)
(0.101794 0.0869442 0)
(0.101561 0.0761525 0)
(0.101182 0.0652595 0)
(0.100648 0.0542717 0)
(0.0999504 0.0431981 0)
(0.0990815 0.0320496 0)
(0.0980365 0.020839 0)
(0.0968114 0.00957959 0)
(0.0954037 -0.00171456 0)
(0.0938122 -0.0130296 0)
(0.0920369 -0.0243519 0)
(0.0900785 -0.0356685 0)
(0.0879387 -0.0469671 0)
(0.08562 -0.0582361 0)
(0.0831252 -0.0694645 0)
(0.0804576 -0.0806416 0)
(0.0776209 -0.0917564 0)
(0.0746189 -0.102798 0)
(0.0714559 -0.113753 0)
(0.0681362 -0.124608 0)
(0.0646643 -0.135346 0)
(0.0610453 -0.145947 0)
(0.112842 0.128767 0)
(0.113166 0.11847 0)
(0.113389 0.108093 0)
(0.113497 0.0976283 0)
(0.113475 0.0870727 0)
(0.113313 0.0764247 0)
(0.112998 0.0656863 0)
(0.11252 0.0548625 0)
(0.111869 0.0439608 0)
(0.111039 0.0329907 0)
(0.110023 0.0219634 0)
(0.108816 0.0108909 0)
(0.107415 -0.00021421 0)
(0.105819 -0.0113392 0)
(0.104027 -0.0224717 0)
(0.102039 -0.0335994 0)
(0.099856 -0.044711 0)
(0.0974803 -0.0557953 0)
(0.094914 -0.0668419 0)
(0.0921598 -0.0778404 0)
(0.0892209 -0.0887801 0)
(0.0861006 -0.0996501 0)
(0.0828022 -0.110438 0)
(0.0793294 -0.121129 0)
(0.0756861 -0.131708 0)
(0.0718764 -0.142155 0)
(0.124137 0.128348 0)
(0.124558 0.118151 0)
(0.12487 0.107885 0)
(0.12506 0.0975456 0)
(0.125115 0.087128 0)
(0.125023 0.0766304 0)
(0.12477 0.0660537 0)
(0.124348 0.0554016 0)
(0.123745 0.0446803 0)
(0.122953 0.0338977 0)
(0.121967 0.0230635 0)
(0.12078 0.0121883 0)
(0.119389 0.00128332 0)
(0.117792 -0.00963999 0)
(0.115986 -0.0205702 0)
(0.113972 -0.0314961 0)
(0.111751 -0.042407 0)
(0.109322 -0.0532925 0)
(0.106688 -0.0641425 0)
(0.103852 -0.0749469 0)
(0.100815 -0.0856955 0)
(0.0975792 -0.0963772 0)
(0.0941485 -0.10698 0)
(0.0905252 -0.11749 0)
(0.0867125 -0.127891 0)
(0.0827136 -0.138164 0)
(0.135389 0.127829 0)
(0.135908 0.117738 0)
(0.136311 0.107591 0)
(0.136584 0.0973836 0)
(0.136715 0.0871108 0)
(0.136692 0.0767702 0)
(0.136502 0.0663622 0)
(0.136134 0.0558892 0)
(0.135579 0.0453562 0)
(0.134827 0.0347697 0)
(0.133872 0.0241378 0)
(0.132707 0.0134697 0)
(0.131328 0.00277542 0)
(0.129732 -0.00793489 0)
(0.127916 -0.0186509 0)
(0.12588 -0.0293623 0)
(0.123622 -0.0400591 0)
(0.121144 -0.0507316 0)
(0.118447 -0.0613701 0)
(0.115531 -0.0719649 0)
(0.112399 -0.0825058 0)
(0.109051 -0.0929822 0)
(0.105491 -0.103382 0)
(0.101719 -0.113691 0)
(0.0977382 -0.123894 0)
(0.093551 -0.133973 0)
(0.146592 0.127204 0)
(0.147214 0.11723 0)
(0.147709 0.10721 0)
(0.148067 0.0971419 0)
(0.148276 0.0870208 0)
(0.148322 0.0768443 0)
(0.148195 0.0666119 0)
(0.147883 0.0563253 0)
(0.147376 0.0459881 0)
(0.146665 0.0356058 0)
(0.145742 0.0251849 0)
(0.1446 0.0147335 0)
(0.143234 0.00426001 0)
(0.141641 -0.00622639 0)
(0.139817 -0.0167165 0)
(0.137761 -0.0272009 0)
(0.135471 -0.0376703 0)
(0.132946 -0.0481157 0)
(0.130188 -0.0585277 0)
(0.127196 -0.0688971 0)
(0.12397 -0.0792138 0)
(0.120513 -0.0894672 0)
(0.116824 -0.0996455 0)
(0.112905 -0.109735 0)
(0.108757 -0.11972 0)
(0.104382 -0.129584 0)
(0.0997816 -0.139304 0)
(0.0949594 -0.148859 0)
(0.0899194 -0.158223 0)
(0.157734 0.12647 0)
(0.158466 0.116621 0)
(0.15906 0.106738 0)
(0.159507 0.096818 0)
(0.159796 0.0868566 0)
(0.159914 0.0768515 0)
(0.159852 0.0668021 0)
(0.159596 0.0567092 0)
(0.159138 0.0465755 0)
(0.158468 0.0364053 0)
(0.157578 0.026204 0)
(0.156461 0.0159783 0)
(0.15511 0.00573551 0)
(0.153521 -0.00451631 0)
(0.151691 -0.014769 0)
(0.149617 -0.0250141 0)
(0.147295 -0.035243 0)
(0.144727 -0.0454472 0)
(0.141909 -0.0556177 0)
(0.138842 -0.0657456 0)
(0.135525 -0.0758212 0)
(0.131959 -0.0858338 0)
(0.128143 -0.0957719 0)
(0.124077 -0.105622 0)
(0.119762 -0.115369 0)
(0.115198 -0.124995 0)
(0.110388 -0.134481 0)
(0.105332 -0.143805 0)
(0.100036 -0.152942 0)
(0.168799 0.125613 0)
(0.169651 0.115905 0)
(0.170353 0.10617 0)
(0.170895 0.0964074 0)
(0.171269 0.0866147 0)
(0.171464 0.0767895 0)
(0.171468 0.066931 0)
(0.171272 0.0570395 0)
(0.170865 0.0471172 0)
(0.170237 0.0371672 0)
(0.169381 0.0271939 0)
(0.168289 0.017203 0)
(0.166955 0.00720074 0)
(0.165372 -0.002806 0)
(0.163536 -0.01281 0)
(0.161444 -0.0228035 0)
(0.159093 -0.0327787 0)
(0.156481 -0.0427274 0)
(0.153605 -0.0526413 0)
(0.150464 -0.0625116 0)
(0.147057 -0.0723289 0)
(0.143382 -0.0820826 0)
(0.139439 -0.0917613 0)
(0.135226 -0.101352 0)
(0.130743 -0.110839 0)
(0.12599 -0.120207 0)
(0.120968 -0.129436 0)
(0.115678 -0.138505 0)
(0.110124 -0.147392 0)
(0.179763 0.124622 0)
(0.180748 0.115069 0)
(0.181568 0.105496 0)
(0.182216 0.095903 0)
(0.182682 0.0862896 0)
(0.182959 0.0766538 0)
(0.183035 0.0669951 0)
(0.182902 0.0573138 0)
(0.182549 0.0476112 0)
(0.181966 0.0378899 0)
(0.181146 0.0281535 0)
(0.180081 0.0184067 0)
(0.178763 0.00865469 0)
(0.177187 -0.00109655 0)
(0.175347 -0.0108403 0)
(0.173238 -0.0205698 0)
(0.170858 -0.0302779 0)
(0.168202 -0.039957 0)
(0.165268 -0.049599 0)
(0.162053 -0.0591954 0)
(0.158555 -0.0687369 0)
(0.154771 -0.0782133 0)
(0.1507 -0.0876133 0)
(0.146339 -0.0969239 0)
(0.141688 -0.106131 0)
(0.136745 -0.115218 0)
(0.13151 -0.124167 0)
(0.125985 -0.132958 0)
(0.120172 -0.141571 0)
(0.190589 0.123482 0)
(0.191725 0.1141 0)
(0.192679 0.104704 0)
(0.193443 0.0952948 0)
(0.194013 0.085873 0)
(0.194381 0.0764379 0)
(0.194536 0.0669894 0)
(0.194471 0.0575278 0)
(0.194176 0.0480543 0)
(0.193642 0.0385711 0)
(0.192861 0.029081 0)
(0.191824 0.019588 0)
(0.190524 0.0100966 0)
(0.188955 0.000611878 0)
(0.187111 -0.00886004 0)
(0.184987 -0.0183131 0)
(0.182577 -0.0277408 0)
(0.179878 -0.0371357 0)
(0.176885 -0.0464903 0)
(0.173595 -0.0557963 0)
(0.170005 -0.0650445 0)
(0.166111 -0.0742251 0)
(0.161911 -0.0833268 0)
(0.157401 -0.0923372 0)
(0.15258 -0.101242 0)
(0.147446 -0.110027 0)
(0.141997 -0.118673 0)
(0.136236 -0.127164 0)
(0.130163 -0.13548 0)
(0.201233 0.122171 0)
(0.20254 0.112981 0)
(0.203644 0.103779 0)
(0.204542 0.0945698 0)
(0.205229 0.085354 0)
(0.205698 0.0761327 0)
(0.205942 0.0669063 0)
(0.205953 0.0576757 0)
(0.205723 0.048442 0)
(0.205242 0.0392071 0)
(0.204503 0.0299737 0)
(0.203497 0.0207451 0)
(0.202218 0.0115251 0)
(0.200658 0.00231859 0)
(0.19881 -0.0068695 0)
(0.196669 -0.0160334 0)
(0.19423 -0.0251668 0)
(0.191487 -0.0342629 0)
(0.188434 -0.0433144 0)
(0.185069 -0.0523133 0)
(0.181386 -0.0612507 0)
(0.177381 -0.0701167 0)
(0.173051 -0.0789007 0)
(0.168391 -0.0875903 0)
(0.163399 -0.0961724 0)
(0.158072 -0.104632 0)
(0.15241 -0.112954 0)
(0.146412 -0.121121 0)
(0.140081 -0.129117 0)
(0.211639 0.120668 0)
(0.213139 0.111691 0)
(0.214415 0.102704 0)
(0.215464 0.0937121 0)
(0.216284 0.0847189 0)
(0.216869 0.0757264 0)
(0.217214 0.0667361 0)
(0.217311 0.0577493 0)
(0.217153 0.0487677 0)
(0.216732 0.039793 0)
(0.21604 0.0308278 0)
(0.21507 0.021875 0)
(0.213814 0.0129384 0)
(0.212264 0.00402197 0)
(0.210414 -0.00486946 0)
(0.208258 -0.0137307 0)
(0.205789 -0.0225556 0)
(0.203001 -0.0313379 0)
(0.199888 -0.0400704 0)
(0.196446 -0.0487454 0)
(0.192669 -0.0573541 0)
(0.188552 -0.0658871 0)
(0.184091 -0.0743338 0)
(0.17928 -0.0826826 0)
(0.174117 -0.0909208 0)
(0.168599 -0.0990348 0)
(0.162723 -0.10701 0)
(0.156491 -0.114832 0)
(0.149904 -0.122486 0)
(0.22174 0.118947 0)
(0.223458 0.110208 0)
(0.224928 0.101457 0)
(0.226149 0.0927032 0)
(0.22712 0.0839513 0)
(0.227837 0.0752049 0)
(0.228297 0.0664666 0)
(0.228492 0.0577386 0)
(0.228417 0.049023 0)
(0.228065 0.0403219 0)
(0.227428 0.0316379 0)
(0.226498 0.0229739 0)
(0.225269 0.0143333 0)
(0.223733 0.00572021 0)
(0.221883 -0.002861 0)
(0.219712 -0.0114054 0)
(0.217214 -0.0199073 0)
(0.214382 -0.0283603 0)
(0.211209 -0.0367577 0)
(0.20769 -0.0450917 0)
(0.203819 -0.053354 0)
(0.199589 -0.0615355 0)
(0.194997 -0.0696258 0)
(0.190036 -0.0776139 0)
(0.184703 -0.0854881 0)
(0.178995 -0.0932356 0)
(0.172909 -0.100843 0)
(0.166446 -0.108299 0)
(0.159608 -0.115591 0)
(0.231459 0.116983 0)
(0.23342 0.108507 0)
(0.235108 0.100016 0)
(0.236523 0.0915225 0)
(0.237666 0.0830327 0)
(0.238534 0.0745518 0)
(0.239125 0.0660835 0)
(0.239433 0.0576312 0)
(0.239453 0.0491975 0)
(0.23918 0.0407851 0)
(0.238606 0.032397 0)
(0.237724 0.024036 0)
(0.236528 0.0157058 0)
(0.23501 0.00741011 0)
(0.233163 -0.000846719 0)
(0.230981 -0.00905937 0)
(0.228455 -0.0172227 0)
(0.22558 -0.0253306 0)
(0.222348 -0.0333764 0)
(0.218753 -0.0413525 0)
(0.214789 -0.0492509 0)
(0.210449 -0.0570625 0)
(0.205727 -0.0647777 0)
(0.200618 -0.0723861 0)
(0.195119 -0.0798767 0)
(0.189225 -0.0872381 0)
(0.182935 -0.094459 0)
(0.176249 -0.101529 0)
(0.16917 -0.108439 0)
(0.240711 0.11475 0)
(0.24294 0.106562 0)
(0.244871 0.0983571 0)
(0.246503 0.0901478 0)
(0.247839 0.0819428 0)
(0.248878 0.0737486 0)
(0.249617 0.0655705 0)
(0.250054 0.0574126 0)
(0.250184 0.0492787 0)
(0.250002 0.0411721 0)
(0.249502 0.033096 0)
(0.248677 0.025054 0)
(0.247522 0.0170497 0)
(0.246028 0.00908695 0)
(0.24419 0.00117022 0)
(0.242 -0.0066952 0)
(0.239451 -0.0145043 0)
(0.236537 -0.0222509 0)
(0.233249 -0.0299285 0)
(0.229581 -0.0375298 0)
(0.225526 -0.0450468 0)
(0.221079 -0.0524709 0)
(0.216232 -0.059793 0)
(0.210981 -0.0670034 0)
(0.205321 -0.0740921 0)
(0.19925 -0.0810492 0)
(0.192765 -0.0878651 0)
(0.185868 -0.0945318 0)
(0.178561 -0.101043 0)
(0.249405 0.112222 0)
(0.251927 0.10435 0)
(0.254124 0.0964564 0)
(0.255996 0.0885567 0)
(0.257547 0.0806605 0)
(0.258777 0.072776 0)
(0.259684 0.0649097 0)
(0.260267 0.0570669 0)
(0.260522 0.0492524 0)
(0.260445 0.0414702 0)
(0.260031 0.0337243 0)
(0.259275 0.0260185 0)
(0.25817 0.018357 0)
(0.256709 0.0107439 0)
(0.254887 0.00318395 0)
(0.252697 -0.00431806 0)
(0.25013 -0.0117565 0)
(0.247181 -0.0191255 0)
(0.243843 -0.0264182 0)
(0.240107 -0.0336278 0)
(0.235969 -0.0407465 0)
(0.231421 -0.047766 0)
(0.226457 -0.054678 0)
(0.221073 -0.0614734 0)
(0.215265 -0.0681436 0)
(0.209028 -0.07468 0)
(0.202364 -0.0810752 0)
(0.195273 -0.0873235 0)
(0.18776 -0.0934221 0)
(0.257449 0.109376 0)
(0.260286 0.101846 0)
(0.26277 0.0942911 0)
(0.264904 0.0867269 0)
(0.266691 0.0791646 0)
(0.268132 0.0716139 0)
(0.269226 0.0640825 0)
(0.269973 0.056577 0)
(0.27037 0.0491029 0)
(0.270414 0.0416654 0)
(0.2701 0.034269 0)
(0.269425 0.0269182 0)
(0.268381 0.0196176 0)
(0.266964 0.0123717 0)
(0.265168 0.00518547 0)
(0.262986 -0.00193602 0)
(0.260411 -0.00898694 0)
(0.257437 -0.0159613 0)
(0.254056 -0.0228528 0)
(0.250263 -0.0296542 0)
(0.246051 -0.0363583 0)
(0.241413 -0.0429574 0)
(0.236345 -0.0494435 0)
(0.230843 -0.0558088 0)
(0.224901 -0.0620457 0)
(0.21852 -0.0681474 0)
(0.211698 -0.0741088 0)
(0.204439 -0.0799268 0)
(0.196748 -0.085602 0)
(0.264753 0.106193 0)
(0.267922 0.0990311 0)
(0.270713 0.0918407 0)
(0.273128 0.0846378 0)
(0.27517 0.077435 0)
(0.276841 0.0702429 0)
(0.278141 0.0630704 0)
(0.27907 0.0559252 0)
(0.279626 0.0488139 0)
(0.279806 0.0417423 0)
(0.279608 0.0347159 0)
(0.279027 0.0277399 0)
(0.278059 0.0208192 0)
(0.276699 0.0139589 0)
(0.274941 0.00716435 0)
(0.272779 0.000440829 0)
(0.270208 -0.00620561 0)
(0.26722 -0.0127691 0)
(0.263811 -0.0192431 0)
(0.259974 -0.0256209 0)
(0.255703 -0.0318954 0)
(0.250992 -0.0380594 0)
(0.245839 -0.0441059 0)
(0.240238 -0.0500281 0)
(0.234188 -0.0558198 0)
(0.227689 -0.0614761 0)
(0.220741 -0.0669941 0)
(0.213349 -0.0723737 0)
(0.205521 -0.0776189 0)
(0.271234 0.102656 0)
(0.274748 0.0958882 0)
(0.27786 0.0890877 0)
(0.280572 0.0822717 0)
(0.282885 0.0754535 0)
(0.284803 0.0686448 0)
(0.286326 0.0618555 0)
(0.287453 0.0550942 0)
(0.288185 0.0483684 0)
(0.288518 0.0416848 0)
(0.288452 0.0350496 0)
(0.287982 0.0284686 0)
(0.287105 0.0219474 0)
(0.285816 0.0154916 0)
(0.284112 0.0091068 0)
(0.281986 0.00279869 0)
(0.279434 -0.00342678 0)
(0.276451 -0.00956347 0)
(0.27303 -0.015605 0)
(0.269168 -0.0215448 0)
(0.26486 -0.0273764 0)
(0.260101 -0.0330932 0)
(0.254889 -0.0386889 0)
(0.24922 -0.0441581 0)
(0.243096 -0.0494961 0)
(0.236516 -0.0547002 0)
(0.229484 -0.0597696 0)
(0.222007 -0.0647073 0)
(0.214093 -0.0695207 0)
(0.276819 0.0987575 0)
(0.280686 0.092406 0)
(0.284129 0.0860191 0)
(0.287148 0.0796141 0)
(0.289746 0.0732049 0)
(0.291925 0.0668039 0)
(0.293685 0.0604216 0)
(0.295026 0.0540676 0)
(0.295949 0.04775 0)
(0.296453 0.0414763 0)
(0.296534 0.0352535 0)
(0.296192 0.0290879 0)
(0.295424 0.0229858 0)
(0.294225 0.016953 0)
(0.292593 0.0109955 0)
(0.290523 0.00511935 0)
(0.288012 -0.000669561 0)
(0.285055 -0.00636485 0)
(0.281648 -0.0119605 0)
(0.277789 -0.0174502 0)
(0.273473 -0.0228281 0)
(0.268698 -0.0280883 0)
(0.263464 -0.0332256 0)
(0.257769 -0.038236 0)
(0.251616 -0.0431164 0)
(0.245007 -0.0478661 0)
(0.237949 -0.052487 0)
(0.230449 -0.0569848 0)
(0.222518 -0.0613703 0)
(0.281451 0.094493 0)
(0.285673 0.0885784 0)
(0.289452 0.0826268 0)
(0.292786 0.0766552 0)
(0.295677 0.0706777 0)
(0.298126 0.0647072 0)
(0.300136 0.0587547 0)
(0.301705 0.0528303 0)
(0.302835 0.0469428 0)
(0.303524 0.0411003 0)
(0.303772 0.0353103 0)
(0.303576 0.0295797 0)
(0.302936 0.0239151 0)
(0.301849 0.0183228 0)
(0.300313 0.012809 0)
(0.298324 0.00737981 0)
(0.295881 0.00204129 0)
(0.292982 -0.00320043 0)
(0.289623 -0.00833949 0)
(0.285803 -0.0133702 0)
(0.281521 -0.0182873 0)
(0.276777 -0.0230857 0)
(0.271572 -0.0277617 0)
(0.265907 -0.0323124 0)
(0.259788 -0.0367367 0)
(0.253219 -0.0410358 0)
(0.246208 -0.0452143 0)
(0.238766 -0.0492804 0)
(0.230907 -0.0532481 0)
(0.285096 0.0898652 0)
(0.289669 0.0844053 0)
(0.293783 0.0789078 0)
(0.297433 0.0733894 0)
(0.300622 0.0678641 0)
(0.303351 0.0623448 0)
(0.30562 0.0568428 0)
(0.30743 0.0513686 0)
(0.308781 0.0459313 0)
(0.309673 0.0405395 0)
(0.310106 0.035201 0)
(0.31008 0.029923 0)
(0.309593 0.0247124 0)
(0.308645 0.0195758 0)
(0.307236 0.0145195 0)
(0.305363 0.00954955 0)
(0.303027 0.00467201 0)
(0.300226 -0.000107523 0)
(0.296961 -0.00478345 0)
(0.293233 -0.00935073 0)
(0.289043 -0.0138048 0)
(0.284392 -0.0181418 0)
(0.279285 -0.0223591 0)
(0.273727 -0.0264555 0)
(0.267723 -0.0304315 0)
(0.261282 -0.0342906 0)
(0.254415 -0.0380393 0)
(0.247134 -0.0416884 0)
(0.239454 -0.0452547 0)
(0.287746 0.0848818 0)
(0.292663 0.079891 0)
(0.297108 0.0748634 0)
(0.301074 0.0698148 0)
(0.304565 0.064759 0)
(0.307579 0.0597086 0)
(0.310119 0.054675 0)
(0.312183 0.0496685 0)
(0.313773 0.0446986 0)
(0.31489 0.0397739 0)
(0.315534 0.0349023 0)
(0.315706 0.0300913 0)
(0.315406 0.0253478 0)
(0.314636 0.0206784 0)
(0.313395 0.0160894 0)
(0.311686 0.0115865 0)
(0.30951 0.00717565 0)
(0.306868 0.00286191 0)
(0.303763 -0.00134977 0)
(0.300198 -0.00545503 0)
(0.296177 -0.00945023 0)
(0.291705 -0.0133326 0)
(0.286788 -0.0171009 0)
(0.281435 -0.0207552 0)
(0.275654 -0.024298 0)
(0.269455 -0.0277342 0)
(0.262852 -0.0310725 0)
(0.255857 -0.0343258 0)
(0.248488 -0.0375127 0)
(0.289446 0.0795536 0)
(0.294699 0.0750423 0)
(0.299472 0.0704962 0)
(0.303756 0.0659302 0)
(0.307554 0.0613571 0)
(0.310866 0.0567892 0)
(0.313691 0.0522375 0)
(0.316031 0.0477121 0)
(0.317887 0.0432222 0)
(0.31926 0.0387764 0)
(0.320152 0.0343825 0)
(0.320565 0.0300479 0)
(0.320502 0.0257793 0)
(0.319965 0.021583 0)
(0.318956 0.0174651 0)
(0.317479 0.0134312 0)
(0.315539 0.00948628 0)
(0.313138 0.00563517 0)
(0.310283 0.00188197 0)
(0.306979 -0.00176976 0)
(0.303233 -0.00531754 0)
(0.299052 -0.00875954 0)
(0.294446 -0.0120956 0)
(0.289424 -0.0153274 0)
(0.283999 -0.0184586 0)
(0.278181 -0.0214958 0)
(0.271986 -0.024449 0)
(0.265427 -0.0273325 0)
(0.258521 -0.0301665 0)
(0.290344 0.0738885 0)
(0.295935 0.0698626 0)
(0.301041 0.0658049 0)
(0.305656 0.0617287 0)
(0.30978 0.0576462 0)
(0.313412 0.0535687 0)
(0.316555 0.0495066 0)
(0.319208 0.0454694 0)
(0.321374 0.041466 0)
(0.323055 0.0375045 0)
(0.324255 0.0335924 0)
(0.324977 0.0297366 0)
(0.325225 0.0259436 0)
(0.325003 0.0222192 0)
(0.324317 0.018569 0)
(0.323171 0.0149981 0)
(0.321572 0.0115108 0)
(0.319527 0.00811143 0)
(0.317044 0.00480319 0)
(0.314129 0.0015888 0)
(0.310794 -0.00153003 0)
(0.307048 -0.00455306 0)
(0.302901 -0.00748072 0)
(0.298365 -0.0103156 0)
(0.293454 -0.0130626 0)
(0.28818 -0.0157293 0)
(0.282558 -0.0183266 0)
(0.276602 -0.0208696 0)
(0.270329 -0.023379 0)
(0.290832 0.0678819 0)
(0.296781 0.0643413 0)
(0.30225 0.0607723 0)
(0.30723 0.0571868 0)
(0.311722 0.0535956 0)
(0.315727 0.0500091 0)
(0.319246 0.0464367 0)
(0.322279 0.0428873 0)
(0.324832 0.0393688 0)
(0.326906 0.0358889 0)
(0.328506 0.0324543 0)
(0.329638 0.0290716 0)
(0.330306 0.0257465 0)
(0.330518 0.0224843 0)
(0.33028 0.0192901 0)
(0.329599 0.0161681 0)
(0.328483 0.0131224 0)
(0.326942 0.0101561 0)
(0.324984 0.00727203 0)
(0.322621 0.00447196 0)
(0.319861 0.00175701 0)
(0.316718 -0.000873372 0)
(0.313203 -0.00342077 0)
(0.309329 -0.00588832 0)
(0.305108 -0.00828137 0)
(0.300555 -0.0106079 0)
(0.295683 -0.0128793 0)
(0.290505 -0.0151108 0)
(0.285035 -0.0173226 0)
(0.291822 0.0615014 0)
(0.298187 0.0584387 0)
(0.304083 0.0553512 0)
(0.309502 0.0522489 0)
(0.314445 0.0491416 0)
(0.318912 0.0460381 0)
(0.322906 0.0429469 0)
(0.326428 0.0398757 0)
(0.329482 0.0368318 0)
(0.332073 0.0338219 0)
(0.334206 0.0308521 0)
(0.335888 0.027928 0)
(0.337125 0.0250549 0)
(0.337924 0.0222375 0)
(0.338294 0.0194801 0)
(0.338244 0.0167863 0)
(0.337782 0.0141595 0)
(0.33692 0.0116023 0)
(0.335666 0.00911674 0)
(0.334032 0.00670414 0)
(0.33203 0.00436481 0)
(0.329672 0.00209832 0)
(0.326969 -9.77225e-05 0)
(0.323934 -0.00222699 0)
(0.320581 -0.00429523 0)
(0.31692 -0.00630996 0)
(0.312964 -0.00828232 0)
(0.308724 -0.0102269 0)
(0.304213 -0.0121633 0)
(0.295246 0.0546719 0)
(0.302128 0.0520718 0)
(0.30856 0.0494501 0)
(0.314533 0.0468156 0)
(0.32005 0.044176 0)
(0.32511 0.0415392 0)
(0.329716 0.0389123 0)
(0.33387 0.0363019 0)
(0.337576 0.0337144 0)
(0.34084 0.0311555 0)
(0.343668 0.0286306 0)
(0.346065 0.0261446 0)
(0.348039 0.023702 0)
(0.349599 0.0213068 0)
(0.350752 0.0189627 0)
(0.351507 0.0166728 0)
(0.351875 0.01444 0)
(0.351866 0.0122663 0)
(0.351489 0.0101533 0)
(0.350757 0.00810194 0)
(0.349679 0.00611218 0)
(0.348267 0.00418315 0)
(0.346533 0.00231278 0)
(0.344488 0.00049733 0)
(0.342143 -0.00126872 0)
(0.33951 -0.00299343 0)
(0.336597 -0.00468648 0)
(0.333413 -0.00636122 0)
(0.329968 -0.00803572 0)
(0.304764 0.0472748 0)
(0.312286 0.0451154 0)
(0.319382 0.0429378 0)
(0.326042 0.040749 0)
(0.332268 0.0385553 0)
(0.33806 0.0363631 0)
(0.34342 0.0341784 0)
(0.348351 0.0320067 0)
(0.352856 0.0298533 0)
(0.35694 0.0277232 0)
(0.360608 0.0256208 0)
(0.363867 0.0235503 0)
(0.366723 0.0215156 0)
(0.369185 0.0195202 0)
(0.37126 0.017567 0)
(0.372956 0.0156588 0)
(0.374284 0.0137979 0)
(0.375252 0.0119861 0)
(0.37587 0.0102245 0)
(0.376148 0.00851389 0)
(0.376097 0.00685406 0)
(0.375726 0.00524404 0)
(0.375045 0.00368181 0)
(0.374065 0.00216408 0)
(0.372794 0.000686002 0)
(0.371242 -0.000759831 0)
(0.369417 -0.00218288 0)
(0.367324 -0.00359452 0)
(0.364971 -0.00501066 0)
(0.32647 0.0391884 0)
(0.334706 0.0374457 0)
(0.342538 0.0356884 0)
(0.349956 0.0339218 0)
(0.356961 0.0321511 0)
(0.363554 0.0303811 0)
(0.369733 0.0286166 0)
(0.375502 0.0268624 0)
(0.380864 0.0251225 0)
(0.385821 0.0234011 0)
(0.39038 0.021702 0)
(0.394544 0.0200286 0)
(0.39832 0.018384 0)
(0.401714 0.0167713 0)
(0.404735 0.015193 0)
(0.407388 0.0136512 0)
(0.409683 0.0121479 0)
(0.411628 0.0106846 0)
(0.413231 0.00926215 0)
(0.414502 0.00788113 0)
(0.415449 0.00654135 0)
(0.416082 0.00524191 0)
(0.416408 0.00398094 0)
(0.416438 0.00275557 0)
(0.416178 0.00156122 0)
(0.415636 0.000392609 0)
(0.414818 -0.000759698 0)
(0.413728 -0.00190529 0)
(0.412372 -0.00305756 0)
(0.36911 0.0303947 0)
(0.377947 0.0290481 0)
(0.386398 0.027691 0)
(0.394452 0.0263274 0)
(0.402109 0.0249611 0)
(0.409367 0.0235957 0)
(0.416227 0.022235 0)
(0.42269 0.0208826 0)
(0.428757 0.0195418 0)
(0.434432 0.0182159 0)
(0.439717 0.0169078 0)
(0.444617 0.0156202 0)
(0.449137 0.0143558 0)
(0.453282 0.0131169 0)
(0.45706 0.0119054 0)
(0.460476 0.0107232 0)
(0.463538 0.00957176 0)
(0.466253 0.00845217 0)
(0.46863 0.00736516 0)
(0.470677 0.006311 0)
(0.472401 0.00528947 0)
(0.473812 0.00429992 0)
(0.474917 0.00334081 0)
(0.475724 0.00240974 0)
(0.47624 0.00150232 0)
(0.47647 0.000614664 0)
(0.476422 -0.000261468 0)
(0.476098 -0.0011334 0)
(0.475502 -0.00201249 0)
(0.443074 0.0211361 0)
(0.452043 0.0201718 0)
(0.460641 0.0192016 0)
(0.468856 0.0182282 0)
(0.476686 0.0172542 0)
(0.484132 0.0162821 0)
(0.491191 0.0153148 0)
(0.497866 0.0143547 0)
(0.504156 0.0134044 0)
(0.510064 0.0124662 0)
(0.515594 0.0115421 0)
(0.520748 0.0106343 0)
(0.525533 0.00974464 0)
(0.529952 0.00887472 0)
(0.534012 0.00802604 0)
(0.53772 0.00719988 0)
(0.541083 0.00639727 0)
(0.544107 0.00561898 0)
(0.546801 0.00486541 0)
(0.549173 0.00413656 0)
(0.551231 0.00343176 0)
(0.552984 0.0027506 0)
(0.55444 0.00209228 0)
(0.555604 0.00145508 0)
(0.556487 0.000834369 0)
(0.55709 0.000225986 0)
(0.557422 -0.000371566 0)
(0.557486 -0.000966249 0)
(0.557284 -0.00156814 0)
(0.557443 0.0120472 0)
(0.565589 0.0114547 0)
(0.573386 0.0108602 0)
(0.580826 0.0102655 0)
(0.587908 0.00967224 0)
(0.59463 0.00908205 0)
(0.600993 0.00849652 0)
(0.606998 0.0079173 0)
(0.612647 0.00734591 0)
(0.617942 0.00678379 0)
(0.622886 0.00623226 0)
(0.627485 0.00569256 0)
(0.631743 0.0051658 0)
(0.635666 0.00465296 0)
(0.639261 0.00415489 0)
(0.642533 0.0036723 0)
(0.645492 0.00320575 0)
(0.648144 0.00275563 0)
(0.650498 0.00232214 0)
(0.652562 0.00190526 0)
(0.654344 0.00150373 0)
(0.655855 0.00111663 0)
(0.657102 0.000743798 0)
(0.658089 0.000382964 0)
(0.658826 3.4709e-05 0)
(0.65932 -0.000305531 0)
(0.659578 -0.000639497 0)
(0.659596 -0.000973101 0)
(0.65938 -0.00131317 0)
(0.714781 0.00441114 0)
(0.720688 0.00415404 0)
(0.726311 0.00389721 0)
(0.731641 0.00364185 0)
(0.73668 0.00338882 0)
(0.741429 0.00313879 0)
(0.745889 0.00289243 0)
(0.750063 0.00265048 0)
(0.753953 0.0024136 0)
(0.757564 0.00218239 0)
(0.760899 0.00195741 0)
(0.763964 0.00173914 0)
(0.766765 0.00152799 0)
(0.769308 0.00132431 0)
(0.771599 0.00112837 0)
(0.773646 0.000940329 0)
(0.775457 0.00076032 0)
(0.777038 0.000588228 0)
(0.778398 0.000424279 0)
(0.779544 0.000268214 0)
(0.780484 0.000121702 0)
(0.781227 -1.68946e-05 0)
(0.781781 -0.000150556 0)
(0.782151 -0.000281078 0)
(0.782346 -0.000406423 0)
(0.782366 -0.00052737 0)
(0.782218 -0.000648637 0)
(0.781901 -0.000771873 0)
(0.781416 -0.00089989 0)
(0.904253 0.000582577 0)
(0.906421 0.000530087 0)
(0.90845 0.00047807 0)
(0.910338 0.000426935 0)
(0.912087 0.000376943 0)
(0.9137 0.00032824 0)
(0.915178 0.000280964 0)
(0.916524 0.000235261 0)
(0.917742 0.000191271 0)