/*--------------------------------*- C++ -*----------------------------------*\
  =========                 |
  \\      /  F ield         | OpenFOAM: The Open Source CFD Toolbox
   \\    /   O peration     | Website:  https://openfoam.org
    \\  /    A nd           | Version:  9
     \\/     M anipulation  |
\*---------------------------------------------------------------------------*/
FoamFile
{
    format      ascii;
    class       volVectorField;
    location    "2.25";
    object      U;
}
// * * * * * * * * * * * * * * * * * * * * * * * * * * * * * * * * * * * * * //

dimensions      [0 1 -1 0 0 0 0];

internalField   nonuniform List<vector> 
1260
(
(-0.0417942 -0.187059 0)
(-0.0436213 -0.19793 0)
(-0.0454384 -0.208728 0)
(-0.0472399 -0.219438 0)
(-0.0490231 -0.230052 0)
(-0.0507902 -0.240571 0)
(-0.0525508 -0.251019 0)
(-0.0543249 -0.261452 0)
(-0.0561466 -0.271975 0)
(-0.0580677 -0.282763 0)
(-0.0601597 -0.294079 0)
(-0.0625135 -0.306294 0)
(-0.0652335 -0.319892 0)
(-0.0684237 -0.335448 0)
(-0.0721628 -0.35358 0)
(-0.0764664 -0.374829 0)
(-0.0812382 -0.399482 0)
(-0.0862157 -0.427317 0)
(-0.0909231 -0.457302 0)
(-0.094651 -0.487284 0)
(-0.0964886 -0.513777 0)
(-0.0954338 -0.531976 0)
(-0.0905968 -0.536179 0)
(-0.0814852 -0.520765 0)
(-0.0683086 -0.481724 0)
(-0.0521756 -0.418369 0)
(-0.0350096 -0.334426 0)
(-0.019119 -0.237595 0)
(-0.00685734 -0.137416 0)
(-0.000964483 -0.0424034 0)
(-0.0327876 -0.185151 0)
(-0.0347798 -0.196023 0)
(-0.0367715 -0.206829 0)
(-0.0387565 -0.217553 0)
(-0.0407306 -0.228182 0)
(-0.0426933 -0.238712 0)
(-0.0446505 -0.249158 0)
(-0.0466173 -0.259565 0)
(-0.0486213 -0.270024 0)
(-0.0507066 -0.280689 0)
(-0.0529367 -0.291806 0)
(-0.0553953 -0.303727 0)
(-0.0581828 -0.316924 0)
(-0.061405 -0.331986 0)
(-0.0651522 -0.349564 0)
(-0.0694641 -0.370281 0)
(-0.0742823 -0.394556 0)
(-0.0793949 -0.422352 0)
(-0.0843831 -0.45286 0)
(-0.0885896 -0.484156 0)
(-0.0911343 -0.512919 0)
(-0.0910062 -0.534365 0)
(-0.0872531 -0.542573 0)
(-0.0792658 -0.531392 0)
(-0.0671044 -0.496003 0)
(-0.051741 -0.434812 0)
(-0.0350273 -0.350846 0)
(-0.0192904 -0.251601 0)
(-0.00698194 -0.14693 0)
(-0.000997957 -0.0459233 0)
(-0.023718 -0.183081 0)
(-0.0258776 -0.193945 0)
(-0.0280473 -0.20475 0)
(-0.0302204 -0.215478 0)
(-0.0323914 -0.226114 0)
(-0.0345581 -0.236651 0)
(-0.0367233 -0.247095 0)
(-0.0388977 -0.257482 0)
(-0.0411031 -0.267888 0)
(-0.0433766 -0.278451 0)
(-0.0457734 -0.289396 0)
(-0.0483694 -0.301055 0)
(-0.0512594 -0.31389 0)
(-0.0545484 -0.328487 0)
(-0.058334 -0.345528 0)
(-0.0626749 -0.365702 0)
(-0.0675455 -0.389545 0)
(-0.0727804 -0.417196 0)
(-0.0780158 -0.448067 0)
(-0.0826484 -0.480469 0)
(-0.0858349 -0.51128 0)
(-0.0865658 -0.535781 0)
(-0.0838386 -0.547882 0)
(-0.0769379 -0.540954 0)
(-0.0657793 -0.509384 0)
(-0.0511961 -0.450633 0)
(-0.0349608 -0.366953 0)
(-0.0194108 -0.265541 0)
(-0.00708654 -0.156509 0)
(-0.00102831 -0.0495074 0)
(-0.0145853 -0.180848 0)
(-0.0169144 -0.191693 0)
(-0.0192651 -0.202486 0)
(-0.0216301 -0.213208 0)
(-0.0240036 -0.223843 0)
(-0.0263816 -0.23438 0)
(-0.0287647 -0.244819 0)
(-0.0311597 -0.255187 0)
(-0.0335835 -0.265547 0)
(-0.0360664 -0.276023 0)
(-0.0386558 -0.286818 0)
(-0.0414196 -0.298247 0)
(-0.0444454 -0.310753 0)
(-0.0478355 -0.32492 0)
(-0.051691 -0.341445 0)
(-0.0560851 -0.361075 0)
(-0.0610202 -0.384448 0)
(-0.0663725 -0.411867 0)
(-0.0718309 -0.442958 0)
(-0.0768465 -0.476278 0)
(-0.080618 -0.508923 0)
(-0.0821463 -0.536282 0)
(-0.0803897 -0.552153 0)
(-0.0745371 -0.549476 0)
(-0.0643648 -0.521869 0)
(-0.0505655 -0.465817 0)
(-0.0348262 -0.382719 0)
(-0.0194879 -0.279387 0)
(-0.00717326 -0.166133 0)
(-0.00105565 -0.0531458 0)
(-0.00538825 -0.17845 0)
(-0.00788907 -0.189264 0)
(-0.0104234 -0.200033 0)
(-0.0129842 -0.210739 0)
(-0.0155651 -0.221362 0)
(-0.0181612 -0.231889 0)
(-0.0207708 -0.242317 0)
(-0.0233981 -0.252664 0)
(-0.0260552 -0.262983 0)
(-0.0287664 -0.273382 0)
(-0.0315719 -0.284047 0)
(-0.0345312 -0.295272 0)
(-0.0377245 -0.307482 0)
(-0.0412487 -0.32125 0)
(-0.0452061 -0.337287 0)
(-0.04968 -0.356379 0)
(-0.0546959 -0.379258 0)
(-0.0601672 -0.406374 0)
(-0.0658324 -0.437563 0)
(-0.0711968 -0.471629 0)
(-0.0755047 -0.505905 0)
(-0.077775 -0.535927 0)
(-0.0769377 -0.555434 0)
(-0.0720952 -0.556988 0)
(-0.0628902 -0.533465 0)
(-0.0498733 -0.480356 0)
(-0.0346402 -0.398126 0)
(-0.0195304 -0.293118 0)
(-0.00724465 -0.175781 0)
(-0.00108016 -0.0568301 0)
(0.00387468 -0.175886 0)
(0.00120012 -0.186656 0)
(-0.00152065 -0.197389 0)
(-0.00428065 -0.208065 0)
(-0.00707375 -0.218665 0)
(-0.00989385 -0.229173 0)
(-0.0127379 -0.239582 0)
(-0.0156078 -0.249903 0)
(-0.0185117 -0.26018 0)
(-0.0214685 -0.270509 0)
(-0.0245113 -0.281058 0)
(-0.0276917 -0.2921 0)
(-0.0310816 -0.304043 0)
(-0.0347717 -0.317446 0)
(-0.0388626 -0.333022 0)
(-0.0434443 -0.351591 0)
(-0.0485607 -0.373963 0)
(-0.054158 -0.400722 0)
(-0.0600206 -0.431904 0)
(-0.0657073 -0.466559 0)
(-0.0705105 -0.502274 0)
(-0.0734741 -0.534767 0)
(-0.0735087 -0.557768 0)
(-0.0696402 -0.563519 0)
(-0.0613825 -0.544185 0)
(-0.0491427 -0.494246 0)
(-0.0344196 -0.413164 0)
(-0.0195477 -0.306718 0)
(-0.00730371 -0.18544 0)
(-0.00110213 -0.0605531 0)
(0.013206 -0.173153 0)
(0.0103557 -0.183867 0)
(0.00744588 -0.194551 0)
(0.00448303 -0.205184 0)
(0.00147322 -0.215748 0)
(-0.00157667 -0.226224 0)
(-0.00466252 -0.236603 0)
(-0.0077846 -0.246891 0)
(-0.0109475 -0.257124 0)
(-0.0141652 -0.267385 0)
(-0.0174647 -0.277828 0)
(-0.0208895 -0.288707 0)
(-0.0245033 -0.300408 0)
(-0.0283895 -0.313477 0)
(-0.0326449 -0.328622 0)
(-0.0373629 -0.346688 0)
(-0.0426018 -0.368547 0)
(-0.0483361 -0.394909 0)
(-0.0543926 -0.425994 0)
(-0.0603818 -0.461097 0)
(-0.0656464 -0.498073 0)
(-0.0692604 -0.532848 0)
(-0.0701244 -0.559197 0)
(-0.0671961 -0.569097 0)
(-0.0598659 -0.554042 0)
(-0.0483956 -0.507489 0)
(-0.0341815 -0.427828 0)
(-0.0195494 -0.32018 0)
(-0.00735378 -0.1951 0)
(-0.00112192 -0.0643092 0)
(0.0226089 -0.17025 0)
(0.0195808 -0.180895 0)
(0.016479 -0.191515 0)
(0.0133097 -0.202092 0)
(0.0100793 -0.212605 0)
(0.00679406 -0.223036 0)
(0.00345887 -0.233373 0)
(7.58397e-05 -0.243618 0)
(-0.00335723 -0.2538 0)
(-0.00685013 -0.263993 0)
(-0.0104238 -0.274337 0)
(-0.0141146 -0.285066 0)
(-0.0179776 -0.296549 0)
(-0.0220882 -0.309312 0)
(-0.0265378 -0.324057 0)
(-0.0314207 -0.341642 0)
(-0.0368057 -0.362994 0)
(-0.0426913 -0.388928 0)
(-0.0489428 -0.419842 0)
(-0.0552206 -0.455269 0)
(-0.0609186 -0.493335 0)
(-0.0651464 -0.53021 0)
(-0.0668018 -0.559758 0)
(-0.0647831 -0.573748 0)
(-0.0583619 -0.56305 0)
(-0.0476527 -0.520091 0)
(-0.0339425 -0.44212 0)
(-0.0195461 -0.333503 0)
(-0.00739858 -0.204757 0)
(-0.00114 -0.0680945 0)
(0.0320873 -0.167175 0)
(0.0288791 -0.177736 0)
(0.0255825 -0.188278 0)
(0.0222033 -0.198783 0)
(0.0187476 -0.209231 0)
(0.0152214 -0.219602 0)
(0.0116304 -0.229884 0)
(0.00797787 -0.240074 0)
(0.00426405 -0.250198 0)
(0.000482835 -0.26032 0)
(-0.00338136 -0.270566 0)
(-0.00735777 -0.281157 0)
(-0.0114933 -0.292441 0)
(-0.0158548 -0.304924 0)
(-0.0205273 -0.319298 0)
(-0.0256031 -0.336428 0)
(-0.0311585 -0.357282 0)
(-0.0372118 -0.382771 0)
(-0.0436634 -0.413451 0)
(-0.0502209 -0.44909 0)
(-0.0563301 -0.488092 0)
(-0.0611401 -0.52689 0)
(-0.0635536 -0.559484 0)
(-0.0624174 -0.577498 0)
(-0.0568888 -0.571223 0)
(-0.0469328 -0.532059 0)
(-0.033719 -0.456045 0)
(-0.0195481 -0.34669 0)
(-0.00744213 -0.214413 0)
(-0.00115691 -0.0719072 0)
(0.0416457 -0.163926 0)
(0.038255 -0.174388 0)
(0.0347607 -0.184838 0)
(0.0311678 -0.195255 0)
(0.0274821 -0.205622 0)
(0.0237095 -0.215917 0)
(0.0198558 -0.226128 0)
(0.0159257 -0.236251 0)
(0.0119211 -0.246306 0)
(0.00783936 -0.256349 0)
(0.00366967 -0.266498 0)
(-0.000610611 -0.276958 0)
(-0.00504029 -0.288058 0)
(-0.00967757 -0.300285 0)
(-0.0145998 -0.314317 0)
(-0.0198958 -0.331018 0)
(-0.0256461 -0.351391 0)
(-0.0318854 -0.376424 0)
(-0.0385448 -0.406823 0)
(-0.0453773 -0.442575 0)
(-0.0518802 -0.482367 0)
(-0.0572459 -0.522916 0)
(-0.0603887 -0.558404 0)
(-0.0601117 -0.580367 0)
(-0.0554623 -0.578571 0)
(-0.0462529 -0.543399 0)
(-0.0335268 -0.469612 0)
(-0.0195664 -0.359755 0)
(-0.00748873 -0.224072 0)
(-0.00117327 -0.0757476 0)
(0.0512891 -0.1605 0)
(0.0477134 -0.170849 0)
(0.0440181 -0.181189 0)
(0.0402076 -0.191503 0)
(0.0362871 -0.201771 0)
(0.0322624 -0.211975 0)
(0.0281394 -0.222099 0)
(0.0239236 -0.232139 0)
(0.0196187 -0.242112 0)
(0.0152248 -0.252069 0)
(0.0107356 -0.262118 0)
(0.00613467 -0.272451 0)
(0.00139087 -0.283379 0)
(-0.00354516 -0.295371 0)
(-0.00874245 -0.309087 0)
(-0.0142848 -0.325389 0)
(-0.0202543 -0.345298 0)
(-0.0266985 -0.369874 0)
(-0.033576 -0.399952 0)
(-0.040682 -0.435732 0)
(-0.0475653 -0.47618 0)
(-0.0534645 -0.518315 0)
(-0.0573121 -0.556543 0)
(-0.0578748 -0.582373 0)
(-0.0540947 -0.585105 0)
(-0.0456279 -0.554118 0)
(-0.033381 -0.482835 0)
(-0.0196119 -0.372712 0)
(-0.00754301 -0.233747 0)
(-0.00118979 -0.0796182 0)
(0.0610229 -0.156896 0)
(0.0572595 -0.167116 0)
(0.0533597 -0.17733 0)
(0.0493274 -0.187523 0)
(0.0451672 -0.197675 0)
(0.0408845 -0.207768 0)
(0.0364854 -0.217788 0)
(0.031976 -0.227729 0)
(0.0273614 -0.237607 0)
(0.0226444 -0.247467 0)
(0.0178226 -0.25741 0)
(0.0128854 -0.267617 0)
(0.00780907 -0.278383 0)
(0.00255304 -0.290158 0)
(-0.00294299 -0.303584 0)
(-0.00875644 -0.319514 0)
(-0.0149689 -0.338983 0)
(-0.0216373 -0.363105 0)
(-0.0287445 -0.392834 0)
(-0.0361252 -0.428567 0)
(-0.0433791 -0.469545 0)
(-0.0497935 -0.513108 0)
(-0.0543251 -0.553921 0)
(-0.0557121 -0.583529 0)
(-0.0527953 -0.59083 0)
(-0.0450709 -0.564223 0)
(-0.033296 -0.495726 0)
(-0.019696 -0.385582 0)
(-0.00760985 -0.243454 0)
(-0.00120726 -0.083524 0)
(0.0708526 -0.153111 0)
(0.0668985 -0.163184 0)
(0.0627905 -0.173255 0)
(0.0585319 -0.183309 0)
(0.0541268 -0.193327 0)
(0.0495802 -0.203291 0)
(0.0448981 -0.213189 0)
(0.0400872 -0.223014 0)
(0.0351538 -0.23278 0)
(0.0301032 -0.242531 0)
(0.0249366 -0.252361 0)
(0.0196487 -0.26244 0)
(0.0142229 -0.27305 0)
(0.00862727 -0.284624 0)
(0.00281064 -0.297784 0)
(-0.00329706 -0.31337 0)
(-0.00977502 -0.332424 0)
(-0.0166871 -0.356101 0)
(-0.0240366 -0.385461 0)
(-0.0316952 -0.421082 0)
(-0.0393125 -0.462477 0)
(-0.0462271 -0.507313 0)
(-0.0514256 -0.550554 0)
(-0.0536252 -0.583844 0)
(-0.0515702 -0.595748 0)
(-0.0445924 -0.573714 0)
(-0.0332852 -0.5083 0)
(-0.01983 -0.398392 0)
(-0.00769448 -0.253217 0)
(-0.00122658 -0.0874727 0)
(0.0807837 -0.149142 0)
(0.0766355 -0.159051 0)
(0.0723155 -0.168961 0)
(0.067826 -0.178857 0)
(0.0631705 -0.188721 0)
(0.0583538 -0.198538 0)
(0.0533817 -0.208293 0)
(0.0482615 -0.217984 0)
(0.0430006 -0.227622 0)
(0.0376063 -0.23725 0)
(0.0320833 -0.246957 0)
(0.0264314 -0.256906 0)
(0.0206408 -0.267365 0)
(0.0146878 -0.27875 0)
(0.00853041 -0.291665 0)
(0.00210696 -0.306935 0)
(-0.00465772 -0.325599 0)
(-0.0118321 -0.348847 0)
(-0.0194371 -0.377824 0)
(-0.0273782 -0.413277 0)
(-0.035354 -0.454983 0)
(-0.0427565 -0.500945 0)
(-0.0486079 -0.546457 0)
(-0.0516119 -0.583325 0)
(-0.0504218 -0.599857 0)
(-0.0442005 -0.582591 0)
(-0.0333608 -0.520568 0)
(-0.0200254 -0.411171 0)
(-0.00780244 -0.263062 0)
(-0.00124871 -0.0914747 0)
(0.090821 -0.144986 0)
(0.0864754 -0.154714 0)
(0.081939 -0.164444 0)
(0.0772137 -0.174162 0)
(0.0723024 -0.183852 0)
(0.0672092 -0.1935 0)
(0.0619403 -0.203095 0)
(0.056503 -0.212632 0)
(0.050906 -0.222124 0)
(0.0451585 -0.231614 0)
(0.0392686 -0.241187 0)
(0.0332406 -0.251 0)
(0.0270711 -0.26131 0)
(0.0207448 -0.272518 0)
(0.0142287 -0.285209 0)
(0.0074699 -0.300188 0)
(0.000398647 -0.31849 0)
(-0.00705586 -0.341325 0)
(-0.0149293 -0.369913 0)
(-0.0231585 -0.405154 0)
(-0.0314896 -0.447072 0)
(-0.0393697 -0.494014 0)
(-0.0458626 -0.541637 0)
(-0.0496665 -0.581972 0)
(-0.0493489 -0.603148 0)
(-0.0439002 -0.590845 0)
(-0.033534 -0.532543 0)
(-0.0202937 -0.423951 0)
(-0.00793967 -0.273024 0)
(-0.00127476 -0.0955435 0)
(0.0866989 -0.169218 0)
(0.0815259 -0.178714 0)
(0.0761501 -0.188173 0)
(0.0705774 -0.197585 0)
(0.0648155 -0.206948 0)
(0.0588744 -0.216277 0)
(0.052765 -0.225613 0)
(0.0464983 -0.23504 0)
(0.0400833 -0.24471 0)
(0.0335228 -0.254873 0)
(0.026809 -0.265912 0)
(0.0199184 -0.278396 0)
(0.0128068 -0.29311 0)
(0.00541093 -0.311079 0)
(-0.00234027 -0.333522 0)
(-0.0104947 -0.36172 0)
(-0.0190179 -0.396708 0)
(-0.0277023 -0.438749 0)
(-0.0360516 -0.486531 0)
(-0.0431765 -0.536103 0)
(-0.0477787 -0.579783 0)
(-0.0483465 -0.605607 0)
(-0.0436935 -0.598464 0)
(-0.033814 -0.544229 0)
(-0.0206467 -0.436766 0)
(-0.00811253 -0.283142 0)
(-0.00130593 -0.0996958 0)
(0.096284 -0.16402 0)
(0.0908438 -0.173301 0)
(0.0851791 -0.18255 0)
(0.079296 -0.191758 0)
(0.0732026 -0.200927 0)
(0.0669098 -0.210073 0)
(0.0604305 -0.219238 0)
(0.0537786 -0.228506 0)
(0.0469672 -0.238026 0)
(0.040005 -0.248039 0)
(0.032892 -0.258918 0)
(0.0256132 -0.271212 0)
(0.0181337 -0.285686 0)
(0.0103974 -0.303348 0)
(0.00233451 -0.325423 0)
(-0.00611267 -0.353235 0)
(-0.0149359 -0.387938 0)
(-0.023972 -0.430019 0)
(-0.0327831 -0.478503 0)
(-0.0405326 -0.529858 0)
(-0.045934 -0.576749 0)
(-0.0474047 -0.607215 0)
(-0.0435786 -0.605425 0)
(-0.0342082 -0.555629 0)
(-0.0210961 -0.449652 0)
(-0.00832785 -0.293461 0)
(-0.00134358 -0.103952 0)
(0.10597 -0.158563 0)
(0.100257 -0.167607 0)
(0.0942981 -0.176623 0)
(0.0880984 -0.185607 0)
(0.0816672 -0.19456 0)
(0.0750162 -0.203504 0)
(0.0681602 -0.212481 0)
(0.0611159 -0.221577 0)
(0.0539006 -0.230939 0)
(0.0465284 -0.2408 0)
(0.0390065 -0.251524 0)
(0.0313286 -0.263643 0)
(0.0234688 -0.2779 0)
(0.0153786 -0.295284 0)
(0.00699082 -0.317016 0)
(-0.00175977 -0.34445 0)
(-0.0108885 -0.378842 0)
(-0.0202754 -0.420884 0)
(-0.0295418 -0.469937 0)
(-0.0379092 -0.522905 0)
(-0.0441133 -0.572861 0)
(-0.0465089 -0.607944 0)
(-0.0435494 -0.611699 0)
(-0.0347217 -0.566735 0)
(-0.0216531 -0.462643 0)
(-0.00859302 -0.304032 0)
(-0.00138922 -0.108335 0)
(0.115758 -0.152841 0)
(0.109767 -0.161626 0)
(0.103508 -0.170388 0)
(0.0969862 -0.179125 0)
(0.0902118 -0.187843 0)
(0.0831974 -0.196564 0)
(0.0759595 -0.205337 0)
(0.0685177 -0.214247 0)
(0.0608929 -0.22344 0)
(0.0531049 -0.233148 0)
(0.0451673 -0.243722 0)
(0.0370822 -0.255678 0)
(0.0288326 -0.269741 0)
(0.0203778 -0.286875 0)
(0.0116542 -0.308288 0)
(0.00259098 -0.335356 0)
(-0.0068482 -0.369417 0)
(-0.0165849 -0.411349 0)
(-0.0263002 -0.460839 0)
(-0.0352799 -0.515243 0)
(-0.0422917 -0.568104 0)
(-0.045639 -0.607762 0)
(-0.0435946 -0.617245 0)
(-0.0353561 -0.577532 0)
(-0.0223291 -0.475771 0)
(-0.00891605 -0.314912 0)
(-0.00144453 -0.112874 0)
(0.125643 -0.14685 0)
(0.11937 -0.155354 0)
(0.112807 -0.16384 0)
(0.10596 -0.172308 0)
(0.0988385 -0.18077 0)
(0.0914573 -0.18925 0)
(0.0838344 -0.197801 0)
(0.0759923 -0.206511 0)
(0.0679554 -0.215527 0)
(0.0597486 -0.225077 0)
(0.0513918 -0.235505 0)
(0.0428948 -0.247312 0)
(0.0342493 -0.2612 0)
(0.0254222 -0.27811 0)
(0.0163543 -0.299232 0)
(0.00697097 -0.325948 0)
(-0.00278284 -0.359661 0)
(-0.012868 -0.401417 0)
(-0.0230263 -0.451214 0)
(-0.0326127 -0.506873 0)
(-0.0404386 -0.56246 0)
(-0.0447683 -0.606627 0)
(-0.0436971 -0.622011 0)
(-0.0361094 -0.587989 0)
(-0.0231343 -0.489066 0)
(-0.00930562 -0.326161 0)
(-0.0015114 -0.117601 0)
(0.135622 -0.140586 0)
(0.129064 -0.148787 0)
(0.122194 -0.156975 0)
(0.115019 -0.165154 0)
(0.107549 -0.173338 0)
(0.0998002 -0.181559 0)
(0.0917921 -0.189872 0)
(0.0835499 -0.198369 0)
(0.0751018 -0.207198 0)
(0.0664769 -0.216587 0)
(0.0577012 -0.226872 0)
(0.0487916 -0.23854 0)
(0.0397476 -0.252273 0)
(0.030544 -0.268984 0)
(0.0211263 -0.28984 0)
(0.0114173 -0.316219 0)
(0.00134567 -0.349573 0)
(-0.00908645 -0.391092 0)
(-0.0196817 -0.441068 0)
(-0.0298694 -0.497793 0)
(-0.0385164 -0.55591 0)
(-0.0438629 -0.604494 0)
(-0.0438329 -0.625933 0)
(-0.0369745 -0.598065 0)
(-0.0240781 -0.502549 0)
(-0.0097712 -0.337847 0)
(-0.00159193 -0.122553 0)
(0.145686 -0.134046 0)
(0.138843 -0.141923 0)
(0.131666 -0.149792 0)
(0.124163 -0.157661 0)
(0.116346 -0.165549 0)
(0.108231 -0.173492 0)
(0.0998416 -0.18155 0)
(0.0912037 -0.189822 0)
(0.0823492 -0.198456 0)
(0.0733114 -0.20768 0)
(0.0641217 -0.217824 0)
(0.0548032 -0.229363 0)
(0.0453627 -0.242957 0)
(0.0357822 -0.259493 0)
(0.0260122 -0.280108 0)
(0.0159741 -0.306167 0)
(0.00558265 -0.339152 0)
(-0.00519475 -0.380377 0)
(-0.0162209 -0.430406 0)
(-0.0270044 -0.488002 0)
(-0.0364798 -0.548431 0)
(-0.0428808 -0.601306 0)
(-0.0439698 -0.628931 0)
(-0.0379384 -0.607698 0)
(-0.025168 -0.51623 0)
(-0.0103232 -0.350041 0)
(-0.00168849 -0.127773 0)
(0.155826 -0.127231 0)
(0.148698 -0.134763 0)
(0.141217 -0.142292 0)
(0.13339 -0.149832 0)
(0.125231 -0.157405 0)
(0.116758 -0.165054 0)
(0.107995 -0.172843 0)
(0.0989704 -0.180877 0)
(0.0897198 -0.189308 0)
(0.0802799 -0.198362 0)
(0.0706864 -0.208368 0)
(0.060968 -0.219786 0)
(0.0511379 -0.233256 0)
(0.0411846 -0.249638 0)
(0.0310633 -0.270035 0)
(0.020695 -0.29579 0)
(0.00998252 -0.328399 0)
(-0.00113843 -0.369275 0)
(-0.0125896 -0.419234 0)
(-0.0239633 -0.477498 0)
(-0.0342747 -0.539999 0)
(-0.0417705 -0.597004 0)
(-0.0440662 -0.630912 0)
(-0.0389807 -0.616805 0)
(-0.0264095 -0.530107 0)
(-0.0109731 -0.362818 0)
(-0.00180381 -0.133308 0)
(0.166029 -0.120143 0)
(0.158621 -0.127311 0)
(0.150842 -0.134481 0)
(0.142701 -0.141673 0)
(0.134211 -0.148915 0)
(0.125391 -0.156254 0)
(0.116268 -0.163762 0)
(0.106873 -0.171548 0)
(0.0972431 -0.179767 0)
(0.0874181 -0.188649 0)
(0.0774376 -0.198516 0)
(0.0673345 -0.209819 0)
(0.0571273 -0.223179 0)
(0.0468099 -0.239423 0)
(0.0363422 -0.259621 0)
(0.025645 -0.285087 0)
(0.0146114 -0.317314 0)
(0.00314835 -0.357792 0)
(-0.00872301 -0.407558 0)
(-0.0206817 -0.466281 0)
(-0.0318364 -0.530589 0)
(-0.0404695 -0.591519 0)
(-0.0440698 -0.631767 0)
(-0.040072 -0.625279 0)
(-0.0278043 -0.544159 0)
(-0.011734 -0.376256 0)
(-0.00194109 -0.139213 0)
(0.176281 -0.112788 0)
(0.168604 -0.119574 0)
(0.160539 -0.12637 0)
(0.152097 -0.133198 0)
(0.143293 -0.140094 0)
(0.134146 -0.14711 0)
(0.124685 -0.154326 0)
(0.114943 -0.161853 0)
(0.104958 -0.169855 0)
(0.0947729 -0.17856 0)
(0.0844296 -0.188288 0)
(0.0739641 -0.19948 0)
(0.0633988 -0.212737 0)
(0.0527318 -0.228857 0)
(0.0419264 -0.248873 0)
(0.0309043 -0.27406 0)
(0.0195501 -0.305898 0)
(0.00774542 -0.345929 0)
(-0.00454283 -0.39538 0)
(-0.0170824 -0.454348 0)
(-0.0290882 -0.520174 0)
(-0.0389028 -0.584778 0)
(-0.0439153 -0.631368 0)
(-0.0411722 -0.632985 0)
(-0.0293499 -0.558339 0)
(-0.0126213 -0.390434 0)
(-0.00210432 -0.145549 0)
(0.186568 -0.105179 0)
(0.178638 -0.111567 0)
(0.170307 -0.117973 0)
(0.161587 -0.124425 0)
(0.152493 -0.130963 0)
(0.143048 -0.137647 0)
(0.13328 -0.14456 0)
(0.123223 -0.151822 0)
(0.112917 -0.1596 0)
(0.102406 -0.168124 0)
(0.0917329 -0.177712 0)
(0.0809355 -0.188793 0)
(0.0700382 -0.201952 0)
(0.0590419 -0.217956 0)
(0.0479124 -0.237798 0)
(0.0365717 -0.262711 0)
(0.0248979 -0.294151 0)
(0.0127505 -0.333687 0)
(4.58639e-05 -0.382705 0)
(-0.0130729 -0.441696 0)
(-0.0259384 -0.508727 0)
(-0.036981 -0.576699 0)
(-0.0435226 -0.629571 0)
(-0.0422282 -0.639754 0)
(-0.0310379 -0.572568 0)
(-0.0136538 -0.405428 0)
(-0.0022989 -0.152388 0)
(0.196879 -0.097333 0)
(0.188721 -0.103312 0)
(0.180153 -0.109318 0)
(0.171187 -0.115383 0)
(0.16184 -0.121555 0)
(0.152135 -0.127897 0)
(0.142101 -0.134502 0)
(0.131773 -0.141493 0)
(0.121191 -0.149042 0)
(0.110399 -0.15738 0)
(0.0994392 -0.166823 0)
(0.0883495 -0.177791 0)
(0.0771545 -0.190849 0)
(0.0658559 -0.206737 0)
(0.0544206 -0.226407 0)
(0.0427703 -0.251046 0)
(0.0307779 -0.282073 0)
(0.018284 -0.321064 0)
(0.00515922 -0.369532 0)
(-0.00854115 -0.428321 0)
(-0.0222779 -0.496219 0)
(-0.034597 -0.567198 0)
(-0.0427945 -0.62621 0)
(-0.0431714 -0.64538 0)
(-0.0328522 -0.586726 0)
(-0.0148556 -0.421309 0)
(-0.00253274 -0.159812 0)
(0.207212 -0.0892791 0)
(0.198862 -0.0948403 0)
(0.190097 -0.100439 0)
(0.180929 -0.106112 0)
(0.171376 -0.111912 0)
(0.161463 -0.117909 0)
(0.151218 -0.1242 0)
(0.140676 -0.130916 0)
(0.129876 -0.13823 0)
(0.11886 -0.146377 0)
(0.107668 -0.155668 0)
(0.0963355 -0.166515 0)
(0.084886 -0.179465 0)
(0.0733194 -0.195228 0)
(0.0616018 -0.214716 0)
(0.0496535 -0.23907 0)
(0.0373428 -0.269661 0)
(0.0244951 -0.308055 0)
(0.0109405 -0.355854 0)
(-0.0033508 -0.414213 0)
(-0.0179753 -0.482615 0)
(-0.0316227 -0.556181 0)
(-0.0416128 -0.6211 0)
(-0.0439142 -0.649615 0)
(-0.0347666 -0.600643 0)
(-0.0162587 -0.438138 0)
(-0.00281822 -0.167921 0)
(0.217583 -0.0810563 0)
(0.209089 -0.0861963 0)
(0.20018 -0.0913851 0)
(0.190869 -0.0966645 0)
(0.181174 -0.102091 0)
(0.17112 -0.107742 0)
(0.160734 -0.113718 0)
(0.150049 -0.120155 0)
(0.139102 -0.12723 0)
(0.127931 -0.135177 0)
(0.116574 -0.144305 0)
(0.10506 -0.155017 0)
(0.0934087 -0.16784 0)
(0.0816161 -0.183459 0)
(0.069645 -0.202746 0)
(0.057413 -0.226788 0)
(0.0447838 -0.25691 0)
(0.0315699 -0.294648 0)
(0.0175673 -0.341658 0)
(0.00266576 -0.399356 0)
(-0.0128709 -0.467879 0)
(-0.0279045 -0.543547 0)
(-0.0398342 -0.614035 0)
(-0.0443457 -0.652161 0)
(-0.0367409 -0.614083 0)
(-0.0179053 -0.455953 0)
(-0.00317527 -0.176837 0)
(0.228033 -0.0727183 0)
(0.219461 -0.0774391 0)
(0.210479 -0.0822207 0)
(0.2011 -0.0871094 0)
(0.191344 -0.0921664 0)
(0.181232 -0.0974727 0)
(0.170791 -0.103134 0)
(0.160051 -0.10929 0)
(0.149044 -0.116119 0)
(0.137803 -0.123856 0)
(0.126359 -0.132804 0)
(0.114737 -0.143358 0)
(0.102947 -0.156028 0)
(0.0909778 -0.171471 0)
(0.0787878 -0.190518 0)
(0.0662889 -0.21421 0)
(0.0533394 -0.243812 0)
(0.0397412 -0.280823 0)
(0.0252616 -0.326921 0)
(0.00971817 -0.383723 0)
(-0.00676944 -0.451961 0)
(-0.023257 -0.529185 0)
(-0.0372838 -0.604783 0)
(-0.0443246 -0.652665 0)
(-0.0387158 -0.626728 0)
(-0.0198501 -0.474757 0)
(-0.00363601 -0.186718 0)
(0.238655 -0.0643364 0)
(0.230089 -0.0686453 0)
(0.221123 -0.0730279 0)
(0.211772 -0.0775337 0)
(0.202052 -0.0822279 0)
(0.191984 -0.0871948 0)
(0.181592 -0.0925436 0)
(0.170901 -0.0984151 0)
(0.159936 -0.10499 0)
(0.148725 -0.112501 0)
(0.137288 -0.121247 0)
(0.125641 -0.131613 0)
(0.113784 -0.14409 0)
(0.101697 -0.159308 0)
(0.0893282 -0.178061 0)
(0.0765816 -0.20134 0)
(0.0633085 -0.230355 0)
(0.0493004 -0.266551 0)
(0.0343018 -0.311603 0)
(0.0180701 -0.367272 0)
(0.000572662 -0.434808 0)
(-0.0174527 -0.51297 0)
(-0.0337464 -0.593082 0)
(-0.0436713 -0.650707 0)
(-0.0406045 -0.638161 0)
(-0.0221597 -0.494498 0)
(-0.00425084 -0.197771 0)
(0.249613 -0.0560022 0)
(0.241159 -0.0599126 0)
(0.232321 -0.0639093 0)
(0.223112 -0.0680445 0)
(0.213548 -0.072386 0)
(0.203645 -0.0770204 0)
(0.193423 -0.0820587 0)
(0.1829 -0.0876424 0)
(0.172096 -0.0939519 0)
(0.161026 -0.101217 0)
(0.149701 -0.10973 0)
(0.138124 -0.119864 0)
(0.126282 -0.132094 0)
(0.114143 -0.147022 0)
(0.10164 -0.165407 0)
(0.0886674 -0.188188 0)
(0.0750651 -0.21652 0)
(0.0606143 -0.251792 0)
(0.04504 -0.295648 0)
(0.0280475 -0.349942 0)
(0.0094649 -0.416351 0)
(-0.010199 -0.494749 0)
(-0.0289557 -0.578639 0)
(-0.0421569 -0.645797 0)
(-0.0422806 -0.647841 0)
(-0.0249054 -0.515032 0)
(-0.00509512 -0.210269 0)
(0.261186 -0.0478301 0)
(0.252973 -0.0513604 0)
(0.244395 -0.0549886 0)
(0.235464 -0.0587687 0)
(0.226193 -0.0627697 0)
(0.216593 -0.0670792 0)
(0.206678 -0.0718084 0)
(0.196458 -0.0770979 0)
(0.185944 -0.0831257 0)
(0.175138 -0.0901169 0)
(0.16404 -0.0983563 0)
(0.152637 -0.108205 0)
(0.1409 -0.120118 0)
(0.128779 -0.134672 0)
(0.116192 -0.152588 0)
(0.103016 -0.174761 0)
(0.0890769 -0.202286 0)
(0.0741416 -0.236493 0)
(0.0579146 -0.27898 0)
(0.0400588 -0.331642 0)
(0.0203108 -0.396479 0)
(-0.00112354 -0.474395 0)
(-0.0225812 -0.561136 0)
(-0.0394832 -0.637361 0)
(-0.0435569 -0.655074 0)
(-0.0281452 -0.536084 0)
(-0.00627473 -0.224568 0)
(0.273821 -0.0399579 0)
(0.265997 -0.0431299 0)
(0.257832 -0.0464097 0)
(0.249331 -0.0498516 0)
(0.240504 -0.0535246 0)
(0.231358 -0.0575157 0)
(0.221898 -0.0619346 0)
(0.212125 -0.0669192 0)
(0.202037 -0.0726431 0)
(0.191627 -0.079325 0)
(0.180877 -0.0872399 0)
(0.169756 -0.0967346 0)
(0.158217 -0.108245 0)
(0.146189 -0.12232 0)
(0.133569 -0.139643 0)
(0.120214 -0.161064 0)
(0.105928 -0.187623 0)
(0.0904591 -0.220587 0)
(0.0734914 -0.261499 0)
(0.0546527 -0.312243 0)
(0.0335845 -0.375042 0)
(0.0102256 -0.45172 0)
(-0.0141599 -0.540202 0)
(-0.0352486 -0.624735 0)
(-0.0441559 -0.658989 0)
(-0.0318901 -0.557182 0)
(-0.0079261 -0.241115 0)
(0.288196 -0.0325435 0)
(0.280927 -0.0353804 0)
(0.273337 -0.038332 0)
(0.26543 -0.0414517 0)
(0.257207 -0.0448072 0)
(0.24867 -0.0484832 0)
(0.239815 -0.052586 0)
(0.230633 -0.0572492 0)
(0.221111 -0.0626398 0)
(0.211225 -0.0689676 0)
(0.200941 -0.076496 0)
(0.19021 -0.0855551 0)
(0.178961 -0.0965596 0)
(0.167101 -0.110028 0)
(0.1545 -0.126609 0)
(0.140988 -0.147103 0)
(0.126342 -0.172497 0)
(0.110285 -0.203997 0)
(0.0924722 -0.243082 0)
(0.0724958 -0.291598 0)
(0.0499164 -0.351891 0)
(0.0244672 -0.426499 0)
(-0.00311481 -0.515484 0)
(-0.0289315 -0.607172 0)
(-0.0436671 -0.658511 0)
(-0.0360472 -0.577594 0)
(-0.0102008 -0.260444 0)
(0.305307 -0.0257573 0)
(0.298762 -0.0282804 0)
(0.291912 -0.0309211 0)
(0.284756 -0.0337311 0)
(0.277292 -0.0367749 0)
(0.269512 -0.0401336 0)
(0.261403 -0.0439086 0)
(0.252948 -0.0482265 0)
(0.244118 -0.0532461 0)
(0.234874 -0.0591659 0)
(0.225165 -0.0662344 0)
(0.21492 -0.0747631 0)
(0.204046 -0.0851417 0)
(0.192421 -0.0978578 0)
(0.179885 -0.113519 0)
(0.166236 -0.132879 0)
(0.151217 -0.15687 0)
(0.134512 -0.186634 0)
(0.11574 -0.223585 0)
(0.0944536 -0.269512 0)
(0.0701446 -0.326788 0)
(0.0423572 -0.398458 0)
(0.0113 -0.486566 0)
(-0.0197878 -0.583818 0)
(-0.0414792 -0.652327 0)
(-0.0403395 -0.596227 0)
(-0.0132209 -0.283129 0)
(0.326557 -0.0197668 0)
(0.320886 -0.0219921 0)
(0.314921 -0.0243336 0)
(0.308656 -0.0268397 0)
(0.30208 -0.0295709 0)
(0.29518 -0.0326031 0)
(0.287934 -0.0360307 0)
(0.280311 -0.0399721 0)
(0.272273 -0.0445748 0)
(0.263765 -0.0500236 0)
(0.254715 -0.0565494 0)
(0.245033 -0.0644412 0)
(0.2346 -0.0740607 0)
(0.223263 -0.0858598 0)
(0.21083 -0.100403 0)
(0.197059 -0.118393 0)
(0.18165 -0.1407 0)
(0.164238 -0.168405 0)
(0.144394 -0.202853 0)
(0.121613 -0.245764 0)
(0.0953197 -0.299477 0)
(0.0648972 -0.367325 0)
(0.0301 -0.453001 0)
(-0.00683573 -0.553817 0)
(-0.0367105 -0.638854 0)
(-0.0442052 -0.611488 0)
(-0.01699 -0.309636 0)
(0.353828 -0.0147135 0)
(0.349141 -0.0166488 0)
(0.344162 -0.0186942 0)
(0.338877 -0.020894 0)
(0.333273 -0.0233035 0)
(0.327328 -0.0259918 0)
(0.321012 -0.0290451 0)
(0.314286 -0.0325711 0)
(0.307096 -0.0367043 0)
(0.299373 -0.0416124 0)
(0.291031 -0.0475057 0)
(0.281954 -0.0546467 0)
(0.271999 -0.0633644 0)
(0.260982 -0.0740704 0)
(0.248674 -0.08728 0)
(0.234788 -0.103637 0)
(0.218975 -0.123949 0)
(0.20081 -0.149222 0)
(0.179794 -0.180732 0)
(0.155349 -0.220121 0)
(0.126819 -0.269657 0)
(0.0934528 -0.332753 0)
(0.0545846 -0.414312 0)
(0.0112676 -0.516241 0)
(-0.0279858 -0.616163 0)
(-0.046666 -0.621128 0)
(-0.021256 -0.34007 0)
(0.389517 -0.0106805 0)
(0.385846 -0.012324 0)
(0.381876 -0.0140675 0)
(0.377589 -0.0159501 0)
(0.372967 -0.018021 0)
(0.367982 -0.0203413 0)
(0.362596 -0.0229874 0)
(0.356761 -0.0260544 0)
(0.350413 -0.0296613 0)
(0.343472 -0.0339564 0)
(0.335831 -0.0391252 0)
(0.327356 -0.0453998 0)
(0.317879 -0.0530712 0)
(0.307186 -0.0625042 0)
(0.295008 -0.0741575 0)
(0.281013 -0.0886082 0)
(0.264793 -0.106586 0)
(0.245852 -0.129018 0)
(0.223609 -0.157093 0)
(0.197381 -0.192374 0)
(0.166411 -0.237035 0)
(0.129801 -0.294425 0)
(0.0865165 -0.370143 0)
(0.0364763 -0.470179 0)
(-0.0132641 -0.582184 0)
(-0.0462141 -0.622235 0)
(-0.0253275 -0.37401 0)
(0.436453 -0.00765731 0)
(0.433724 -0.00899972 0)
(0.430683 -0.0104286 0)
(0.427311 -0.0119774 0)
(0.423586 -0.013688 0)
(0.419474 -0.0156128 0)
(0.414933 -0.0178168 0)
(0.409907 -0.020381 0)
(0.404324 -0.0234064 0)
(0.398091 -0.0270193 0)
(0.391088 -0.0313772 0)
(0.383165 -0.0366772 0)
(0.374129 -0.0431666 0)
(0.363737 -0.0511563 0)
(0.351687 -0.0610394 0)
(0.337597 -0.0733136 0)
(0.321001 -0.0886182 0)
(0.301321 -0.107777 0)
(0.27788 -0.131879 0)
(0.249861 -0.162384 0)
(0.216371 -0.201374 0)
(0.176318 -0.252048 0)
(0.128397 -0.32019 0)
(0.0715066 -0.414854 0)
(0.0104349 -0.534945 0)
(-0.0405256 -0.611419 0)
(-0.0277987 -0.410592 0)
(0.49764 -0.00551051 0)
(0.495655 -0.00654031 0)
(0.493349 -0.00764094 0)
(0.490703 -0.00883957 0)
(0.487689 -0.0101703 0)
(0.484274 -0.0116753 0)
(0.48041 -0.0134074 0)
(0.476036 -0.0154319 0)
(0.471073 -0.0178304 0)
(0.46542 -0.0207041 0)
(0.458947 -0.02418 0)
(0.451488 -0.0284161 0)
(0.442836 -0.0336112 0)
(0.432723 -0.0400148 0)
(0.420817 -0.0479449 0)
(0.406694 -0.0578058 0)
(0.389834 -0.0701267 0)
(0.369575 -0.0855996 0)
(0.345139 -0.105177 0)
(0.315535 -0.130174 0)
(0.279703 -0.162558 0)
(0.236256 -0.205362 0)
(0.183753 -0.264193 0)
(0.120082 -0.349761 0)
(0.0474209 -0.4725 0)
(-0.0260915 -0.584984 0)
(-0.026025 -0.447699 0)
(0.575765 -0.00397578 0)
(0.574225 -0.00468913 0)
(0.572372 -0.0054566 0)
(0.570184 -0.00629856 0)
(0.567633 -0.00724056 0)
(0.564681 -0.00831431 0)
(0.561282 -0.00955914 0)
(0.557368 -0.0110238 0)
(0.552859 -0.0127688 0)
(0.547648 -0.0148694 0)
(0.541598 -0.0174192 0)
(0.534537 -0.0205347 0)
(0.526247 -0.0243626 0)
(0.516447 -0.0290856 0)
(0.50479 -0.0349391 0)
(0.49082 -0.0422205 0)
(0.473991 -0.0513294 0)
(0.45356 -0.0627896 0)
(0.428674 -0.0773633 0)
(0.398127 -0.0961269 0)
(0.360682 -0.120842 0)
(0.314435 -0.15429 0)
(0.257855 -0.201802 0)
(0.187672 -0.274285 0)
(0.103774 -0.392279 0)
(0.00300847 -0.536817 0)
(-0.0141539 -0.477426 0)
(0.672521 -0.00270546 0)
(0.671127 -0.00311846 0)
(0.669452 -0.0035684 0)
(0.667476 -0.00406862 0)
(0.665169 -0.00463584 0)
(0.662495 -0.00529076 0)
(0.659404 -0.00605902 0)
(0.655831 -0.00697223 0)
(0.651694 -0.00806959 0)
(0.646885 -0.00939937 0)
(0.641271 -0.0110219 0)
(0.634678 -0.013011 0)
(0.626892 -0.0154606 0)
(0.617633 -0.0184854 0)
(0.606565 -0.0222356 0)
(0.593225 -0.0268963 0)
(0.577088 -0.0327264 0)
(0.557366 -0.0400541 0)
(0.533226 -0.0493994 0)
(0.503243 -0.061479 0)
(0.466113 -0.0776436 0)
(0.41908 -0.100066 0)
(0.360451 -0.13357 0)
(0.284577 -0.187832 0)
(0.190363 -0.289776 0)
(0.0592595 -0.452297 0)
(0.0208355 -0.47698 0)
(0.788159 -0.00145808 0)
(0.786804 -0.00162349 0)
(0.785239 -0.00180914 0)