/*--------------------------------*- C++ -*----------------------------------*\
  =========                 |
  \\      /  F ield         | OpenFOAM: The Open Source CFD Toolbox
   \\    /   O peration     | Website:  https://openfoam.org
    \\  /    A nd           | Version:  9
     \\/     M anipulation  |
\*---------------------------------------------------------------------------*/
FoamFile
{
    format      ascii;
    class       volScalarField;
    location    "2";
    object      p;
}
// * * * * * * * * * * * * * * * * * * * * * * * * * * * * * * * * * * * * * //

dimensions      [0 2 -2 0 0 0 0];

internalField   nonuniform List<scalar> 
1250
(
-0.00273418
-0.00289945
-0.00306237
-0.00322098
-0.00337314
-0.00351653
-0.00364865
-0.00376686
-0.00386844
-0.00395062
-0.00401069
-0.00404602
-0.00405418
-0.00403301
-0.00398074
-0.00389606
-0.00377821
-0.00362711
-0.00344336
-0.00322841
-0.00298451
-0.00271478
-0.0024231
-0.00211448
-0.00179444
-0.00146925
-0.00114573
-0.000831118
-0.000532852
-0.00025837
-1.48832e-05
0.000190879
0.000352881
-0.00261551
-0.00277372
-0.00293
-0.00308255
-0.00322939
-0.00336836
-0.00349712
-0.00361321
-0.00371407
-0.00379709
-0.00385967
-0.00389931
-0.00391367
-0.00390065
-0.00385851
-0.00378593
-0.00368211
-0.00354688
-0.00338073
-0.00318494
-0.00296158
-0.00271363
-0.00244468
-0.00215909
-0.00186234
-0.00156036
-0.00125961
-0.00096695
-0.000689453
-0.000434208
-0.000208092
-1.75062e-05
0.000131813
-0.00252128
-0.00267595
-0.00282932
-0.00297971
-0.00312523
-0.00326383
-0.00339328
-0.00351119
-0.00361505
-0.00370231
-0.00377038
-0.00381676
-0.00383908
-0.00383519
-0.00380327
-0.00374189
-0.00365015
-0.00352772
-0.00337495
-0.00319293
-0.0029836
-0.00274974
-0.00249434
-0.00222242
-0.00193886
-0.00164944
-0.00136049
-0.00107874
-0.000811179
-0.000564795
-0.000346403
-0.000162327
-1.8241e-05
-0.00243882
-0.00259278
-0.00274635
-0.0028979
-0.00304566
-0.00318762
-0.00332159
-0.00344519
-0.0035559
-0.00365111
-0.0037282
-0.00378453
-0.00381763
-0.00382521
-0.00380527
-0.00375621
-0.00367695
-0.00356697
-0.00342643
-0.00325627
-0.00305824
-0.0028349
-0.00258935
-0.0023263
-0.00205063
-0.00176805
-0.00148487
-0.00120785
-0.000943982
-0.000700335
-0.000483796
-0.000300754
-0.000156967
-0.00236847
-0.00252489
-0.00268213
-0.00283863
-0.00299265
-0.00314219
-0.00328505
-0.00341878
-0.00354078
-0.00364832
-0.00373861
-0.00380884
-0.00385633
-0.00387857
-0.00387334
-0.00383882
-0.00377367
-0.00367719
-0.00354933
-0.00339087
-0.00320331
-0.00298884
-0.00275153
-0.00249499
-0.00222431
-0.00194525
-0.00166417
-0.0013879
-0.00112353
-0.000878276
-0.000659188
-0.000472791
-0.000325023
-0.00231946
-0.00248253
-0.00264798
-0.00281426
-0.00297961
-0.00314199
-0.00329908
-0.00344832
-0.00358691
-0.00371193
-0.00382032
-0.00390904
-0.00397511
-0.00401575
-0.00402847
-0.00401117
-0.00396227
-0.00388083
-0.00376661
-0.00362019
-0.00344297
-0.0032371
-0.00300618
-0.00275417
-0.00248608
-0.00220768
-0.00192538
-0.00164611
-0.00137713
-0.00112583
-0.000899467
-0.000704763
-0.000547944
-0.00230195
-0.00247697
-0.00265625
-0.00283823
-0.00302104
-0.00320253
-0.00338018
-0.0035512
-0.00371254
-0.00386097
-0.00399311
-0.0041056
-0.00419513
-0.00425859
-0.00429316
-0.00429646
-0.00426664
-0.00420252
-0.00410364
-0.0039704
-0.00380405
-0.0036067
-0.00338168
-0.00313304
-0.00286576
-0.00258561
-0.0022991
-0.00201326
-0.0017355
-0.00147342
-0.00123449
-0.00102569
-0.000853752
-0.00232721
-0.00252057
-0.00272044
-0.0029251
-0.00313255
-0.0033404
-0.00354588
-0.00374586
-0.00393695
-0.00411554
-0.00427789
-0.00442024
-0.0045389
-0.00463039
-0.00469158
-0.00471976
-0.0047128
-0.00466924
-0.0045884
-0.00447047
-0.00431652
-0.00412857
-0.00390977
-0.0036641
-0.00339649
-0.00311273
-0.00281936
-0.0025235
-0.00223267
-0.00195462
-0.00169708
-0.00146764
-0.0012736
-0.00240804
-0.00262729
-0.00285557
-0.00309098
-0.00333127
-0.00357372
-0.00381522
-0.00405224
-0.00428096
-0.00449735
-0.00469722
-0.00487638
-0.00503076
-0.00515648
-0.00525004
-0.00530839
-0.00532911
-0.00531043
-0.00525142
-0.00515199
-0.00501299
-0.00483634
-0.00462492
-0.00438258
-0.00411416
-0.00382541
-0.00352286
-0.00321357
-0.00290502
-0.00260537
-0.00232301
-0.00255857
-0.00281235
-0.00307794
-0.0033532
-0.0036355
-0.00392176
-0.00420839
-0.00449142
-0.00476655
-0.00502925
-0.00527488
-0.00549879
-0.00569646
-0.00586361
-0.00599634
-0.00609125
-0.00614554
-0.00615716
-0.00612483
-0.00604816
-0.00592771
-0.00576518
-0.00556317
-0.00532531
-0.00505626
-0.00476167
-0.00444794
-0.00412184
-0.00379117
-0.00279389
-0.00309189
-0.00340473
-0.00372988
-0.00406432
-0.00440446
-0.00474622
-0.0050851
-0.00541629
-0.00573472
-0.00603525
-0.00631275
-0.00656223
-0.00677898
-0.00695866
-0.00709749
-0.00719227
-0.00724056
-0.00724073
-0.00719202
-0.00709462
-0.00694993
-0.00676019
-0.00652873
-0.00625996
-0.0059593
-0.00563294
-0.00528739
-0.0049307
-0.0031298
-0.00348266
-0.00385356
-0.00423953
-0.00463703
-0.00504193
-0.00544959
-0.00585493
-0.00625257
-0.0066369
-0.00700223
-0.00734292
-0.00765349
-0.00792874
-0.00816389
-0.00835471
-0.00849757
-0.00858962
-0.0086288
-0.00861393
-0.00854482
-0.00842238
-0.00824851
-0.00802614
-0.00775933
-0.00745319
-0.00711355
-0.00674671
-0.00636078
-0.00358233
-0.00400151
-0.00444204
-0.00490044
-0.00537258
-0.00585373
-0.00633863
-0.00682159
-0.00729659
-0.00775746
-0.00819792
-0.00861179
-0.00899305
-0.00933602
-0.00963544
-0.00988658
-0.0100854
-0.0102285
-0.0103135
-0.0103387
-0.0103034
-0.0102081
-0.0100543
-0.00984435
-0.00958197
-0.00927182
-0.00891932
-0.00853044
-0.00811321
-0.00416732
-0.00466486
-0.00518712
-0.00573001
-0.00628877
-0.00685798
-0.00743171
-0.00800358
-0.00856695
-0.00911499
-0.00964083
-0.0101377
-0.010599
-0.0110187
-0.0113908
-0.0117102
-0.0119724
-0.0121737
-0.0123109
-0.0123822
-0.0123864
-0.0123232
-0.0121938
-0.0120002
-0.0117455
-0.0114338
-0.01107
-0.0106598
-0.0102108
-0.00489981
-0.00548807
-0.00610437
-0.00674395
-0.00740129
-0.00807025
-0.00874414
-0.00941587
-0.0100781
-0.0107233
-0.011344
-0.0119328
-0.0124827
-0.0129868
-0.013439
-0.0138337
-0.0141658
-0.0144311
-0.0146264
-0.0147491
-0.0147975
-0.0147711
-0.0146708
-0.0144977
-0.0142544
-0.0139445
-0.0135723
-0.0131429
-0.0126636
-0.00579336
-0.00648466
-0.00720713
-0.00795522
-0.00872261
-0.00950232
-0.0102869
-0.0110684
-0.0118387
-0.0125897
-0.0133133
-0.0140014
-0.0146464
-0.0152412
-0.0157791
-0.016254
-0.0166607
-0.0169946
-0.017252
-0.0174302
-0.0175271
-0.0175418
-0.0174743
-0.0173256
-0.0170977
-0.0167937
-0.0164171
-0.0159725
-0.0154665
-0.00685935
-0.0076655
-0.00850556
-0.0093731
-0.0102609
-0.011161
-0.0120651
-0.0129645
-0.0138503
-0.0147137
-0.0155458
-0.0163381
-0.0170826
-0.0177717
-0.0183983
-0.0189563
-0.0194401
-0.0198448
-0.0201667
-0.0204026
-0.0205505
-0.020609
-0.0205776
-0.0204569
-0.0202486
-0.0199548
-0.0195787
-0.0191241
-0.0185967
-0.00810623
-0.00903801
-0.0100058
-0.0110022
-0.012019
-0.0130472
-0.0140775
-0.0151005
-0.0161065
-0.0170858
-0.0180293
-0.0189278
-0.019773
-0.0205571
-0.0212728
-0.0219137
-0.0224743
-0.0229498
-0.0233361
-0.0236301
-0.0238296
-0.0239332
-0.0239398
-0.0238501
-0.0236648
-0.0233858
-0.0230155
-0.022557
-0.0220153
-0.0095388
-0.0106054
-0.0117092
-0.0128418
-0.0139936
-0.0151549
-0.0163154
-0.0174646
-0.0185922
-0.019688
-0.0207422
-0.0217456
-0.0226896
-0.0235661
-0.024368
-0.0250889
-0.0257234
-0.0262668
-0.0267151
-0.0270654
-0.0273154
-0.0274636
-0.0275089
-0.0274516
-0.0272922
-0.0270319
-0.0266726
-0.0262168
-0.0256684
-0.0111576
-0.0123661
-0.0136118
-0.0148851
-0.0161753
-0.0174716
-0.0187626
-0.0200373
-0.0212845
-0.0224938
-0.0236549
-0.0247585
-0.0257958
-0.0267592
-0.0276415
-0.0284367
-0.0291395
-0.0297456
-0.0302514
-0.030654
-0.0309514
-0.0311421
-0.0312252
-0.0312006
-0.0310686
-0.0308301
-0.0304865
-0.0300397
-0.0294924
-0.0116507
-0.0129588
-0.0143135
-0.0157041
-0.0171195
-0.0185481
-0.0199778
-0.0213965
-0.0227924
-0.0241539
-0.0254701
-0.0267309
-0.0279269
-0.0290496
-0.0300914
-0.0310458
-0.0319072
-0.0326706
-0.0333323
-0.033889
-0.0343383
-0.0346785
-0.0349082
-0.0350266
-0.0350336
-0.0349295
-0.0347148
-0.0343904
-0.0339578
-0.0334189
-0.0134762
-0.0149335
-0.0164359
-0.0179712
-0.0195271
-0.0210906
-0.0226488
-0.0241888
-0.0256983
-0.0271655
-0.0285794
-0.0299299
-0.0312079
-0.0324054
-0.0335154
-0.0345317
-0.0354494
-0.0362643
-0.0369731
-0.037573
-0.0380622
-0.0384392
-0.0387032
-0.0388534
-0.0388899
-0.0388128
-0.0386225
-0.0383198
-0.0379055
-0.0373809
-0.0154619
-0.0170687
-0.0187171
-0.0203937
-0.0220849
-0.0237766
-0.0254552
-0.0271072
-0.02872
-0.0302817
-0.0317816
-0.0332098
-0.0345578
-0.0358182
-0.0369845
-0.0380516
-0.0390151
-0.0398715
-0.0406181
-0.0412529
-0.0417745
-0.042182
-0.0424748
-0.0426525
-0.0427153
-0.0426634
-0.0424971
-0.0422169
-0.0418235
-0.0413176
-0.0175938
-0.019347
-0.0211367
-0.0229481
-0.0247665
-0.026577
-0.0283652
-0.0301174
-0.031821
-0.0334643
-0.0350369
-0.0365296
-0.0379346
-0.0392452
-0.0404559
-0.0415623
-0.0425608
-0.0434487
-0.0442241
-0.0448855
-0.0454322
-0.0458636
-0.0461796
-0.0463802
-0.0464656
-0.0464362
-0.0462923
-0.0460344
-0.045663
-0.0451784
-0.0198542
-0.0217481
-0.0236714
-0.0256085
-0.0275434
-0.0294607
-0.0313457
-0.0331848
-0.0349653
-0.0366762
-0.0383077
-0.0398515
-0.0413004
-0.0426489
-0.0438923
-0.045027
-0.0460504
-0.0469606
-0.0477562
-0.0484367
-0.0490015
-0.0494507
-0.0497846
-0.0500035
-0.0501076
-0.0500977
-0.049974
-0.0497371
-0.0493874
-0.0489249
-0.0222232
-0.024249
-0.026296
-0.0283472
-0.0303861
-0.0323968
-0.0343647
-0.0362762
-0.0381193
-0.0398838
-0.0415606
-0.0431423
-0.0446229
-0.0459978
-0.0472631
-0.0484164
-0.0494558
-0.0503801
-0.0511887
-0.0518814
-0.0524585
-0.0529201
-0.0532671
-0.0535
-0.0536192
-0.0536255
-0.0535194
-0.0533015
-0.0529722
-0.0525314
-0.0246786
-0.0268259
-0.0289845
-0.0311368
-0.0332658
-0.0353556
-0.0373918
-0.0393613
-0.0412531
-0.0430576
-0.0447669
-0.0463747
-0.047876
-0.0492671
-0.0505453
-0.0517089
-0.0527569
-0.0536886
-0.0545042
-0.0552039
-0.0557882
-0.056258
-0.056614
-0.0568571
-0.0569881
-0.0570077
-0.0569165
-0.0567152
-0.0564043
-0.0559836
-0.0271976
-0.0294541
-0.0317111
-0.0339506
-0.0361553
-0.0383098
-0.0404
-0.0424138
-0.0443411
-0.0461734
-0.0479038
-0.0495273
-0.0510399
-0.052439
-0.0537227
-0.0548901
-0.0559408
-0.056875
-0.057693
-0.0583956
-0.0589837
-0.0594583
-0.0598203
-0.0600707
-0.0602106
-0.0602407
-0.0601618
-0.0599745
-0.0596795
-0.0592768
-0.0297575
-0.0321099
-0.0344514
-0.0367637
-0.03903
-0.0412351
-0.043366
-0.0454115
-0.0473626
-0.0492119
-0.050954
-0.0525847
-0.0541012
-0.0555017
-0.0567853
-0.0579517
-0.0590012
-0.0599342
-0.0607517
-0.0614545
-0.0620439
-0.0625209
-0.0628866
-0.0631423
-0.0632889
-0.0633272
-0.0632581
-0.0630824
-0.0628008
-0.0624134
-0.0323364
-0.0347709
-0.0371829
-0.0395542
-0.0418684
-0.0441112
-0.0462707
-0.0483368
-0.0503016
-0.0521593
-0.0539052
-0.0555365
-0.0570513
-0.0584487
-0.0597283
-0.0608907
-0.0619363
-0.0628661
-0.0636812
-0.0643827
-0.064972
-0.06545
-0.0658182
-0.0660776
-0.0662292
-0.0349135
-0.0374165
-0.0398855
-0.0423026
-0.0446523
-0.0469214
-0.0490989
-0.0511762
-0.0531468
-0.0550057
-0.0567497
-0.0583769
-0.0598862
-0.0612774
-0.0625509
-0.0637074
-0.0647479
-0.0656736
-0.0664857
-0.0671854
-0.0677739
-0.0682525
-0.0686223
-0.0688846
-0.0690402
-0.0374701
-0.0400287
-0.0425419
-0.0449929
-0.0473671
-0.0496525
-0.0518393
-0.0539204
-0.0558903
-0.0577453
-0.0594834
-0.0611033
-0.0626049
-0.0639885
-0.0652548
-0.0664051
-0.0674403
-0.0683619
-0.0691711
-0.0698691
-0.0704571
-0.0709362
-0.0713076
-0.0715723
-0.0717313
-0.0399898
-0.0425916
-0.0451377
-0.0476121
-0.0500013
-0.0522947
-0.0544839
-0.0565629
-0.0585276
-0.0603753
-0.0621049
-0.063716
-0.0652088
-0.0665844
-0.0678437
-0.068988
-0.0700187
-0.0709369
-0.071744
-0.072441
-0.0730291
-0.0735092
-0.0738823
-0.0741496
-0.0743117
-0.0424582
-0.0450923
-0.0476611
-0.0501498
-0.0525463
-0.0548411
-0.0570274
-0.0591002
-0.0610566
-0.062895
-0.0646148
-0.0662165
-0.0677008
-0.0690688
-0.0703219
-0.0714614
-0.0724885
-0.0734046
-0.0742107
-0.0749078
-0.0754969
-0.0759788
-0.0763542
-0.0766242
-0.0767894
-0.0448632
-0.0475198
-0.0501028
-0.0525984
-0.0549959
-0.0572872
-0.0594666
-0.0615305
-0.0634769
-0.065305
-0.067015
-0.0686076
-0.0700841
-0.0714458
-0.072694
-0.0738301
-0.0748553
-0.0757707
-0.0765772
-0.0772756
-0.0778668
-0.0783512
-0.0787297
-0.0790029
-0.0791713
-0.0471948
-0.0498657
-0.0524556
-0.0549522
-0.0573459
-0.0596301
-0.0618002
-0.0638536
-0.0657893
-0.0676071
-0.0693078
-0.0708924
-0.0723625
-0.0737193
-0.0749642
-0.0760986
-0.0771235
-0.0780397
-0.0788481
-0.0795492
-0.0801435
-0.0806315
-0.0810137
-0.0812905
-0.049445
-0.0521232
-0.0547143
-0.0572072
-0.0595937
-0.0618684
-0.0640278
-0.0660702
-0.0679952
-0.0698034
-0.0714958
-0.0730739
-0.0745391
-0.0758928
-0.0771363
-0.0782707
-0.0792968
-0.0802154
-0.081027
-0.081732
-0.0823306
-0.082823
-0.0832096
-0.0834906
-0.0516073
-0.0542872
-0.056875
-0.0593608
-0.0617378
-0.0640016
-0.0661497
-0.0681812
-0.0700963
-0.071896
-0.0735816
-0.0751547
-0.0766167
-0.0779691
-0.0792128
-0.0803489
-0.0813779
-0.0823003
-0.0831164
-0.0838263
-0.0844301
-0.0536767
-0.0563538
-0.0589349
-0.0614114
-0.0637775
-0.0660298
-0.0681666
-0.0701879
-0.0720941
-0.0738867
-0.0755672
-0.077137
-0.0785976
-0.0799503
-0.0811959
-0.0823352
-0.0833684
-0.0842959
-0.0851175
-0.0858333
-0.086443
-0.0556492
-0.0583202
-0.0608923
-0.0633579
-0.0657124
-0.0679533
-0.0700795
-0.0720915
-0.0739902
-0.0757772
-0.077454
-0.0790222
-0.080483
-0.0818376
-0.0830865
-0.0842303
-0.0852689
-0.0862024
-0.0870304
-0.0877528
-0.0883691
-0.0575219
-0.0601843
-0.0627457
-0.0651998
-0.0675426
-0.0697725
-0.071889
-0.0738929
-0.0757855
-0.0775683
-0.0792431
-0.0808112
-0.0822737
-0.0836315
-0.0848849
-0.0860342
-0.0870792
-0.0880195
-0.0888546
-0.089584
-0.0902072
-0.0592923
-0.0619445
-0.0644944
-0.0669366
-0.0692681
-0.0714877
-0.0735956
-0.0755927
-0.0774805
-0.0792608
-0.0809349
-0.0825042
-0.0839696
-0.0853317
-0.0865906
-0.0877463
-0.0887983
-0.0897459
-0.0905885
-0.0913254
-0.0919557
-0.0609586
-0.0635995
-0.0661375
-0.0685681
-0.0708889
-0.0730992
-0.0751995
-0.0771911
-0.0790756
-0.0808544
-0.0825292
-0.0841008
-0.0855702
-0.0869374
-0.0882026
-0.0893652
-0.0904246
-0.0913799
-0.0922303
-0.0929747
-0.0936123
-0.0625192
-0.0651482
-0.0676744
-0.0700939
-0.0724047
-0.0746068
-0.0767008
-0.0786881
-0.0805703
-0.082349
-0.0840253
-0.0856003
-0.0870743
-0.0884474
-0.0897192
-0.0908892
-0.0919563
-0.0929195
-0.0937776
-0.0945296
-0.0951744
-0.0780989
-0.080083
-0.0819641
-0.0837435
-0.0854223
-0.0870012
-0.0884804
-0.0898598
-0.0911387
-0.0923161
-0.093391
-0.0943621
-0.0952279
-0.0959873
-0.0966391
-0.0936437
-0.0947263
-0.0957051
-0.0965785
-0.0973451
-0.0980036
)
;

boundaryField
{
    movingWall
    {
        type            zeroGradient;
    }
    fixedWalls
    {
        type            zeroGradient;
    }
    frontAndBack
    {
        type            empty;
    }
    procBoundary1to0
    {
        type            processor;
        value           nonuniform List<scalar> 
45
(
-0.00256824
-0.00245693
-0.00236677
-0.00228584
-0.00221418
-0.00216002
-0.00213247
-0.00214167
-0.00219931
-0.00231834
-0.00251279
-0.00279744
-0.00318748
-0.00369808
-0.00434384
-0.00513826
-0.00609303
-0.00721741
-0.00851752
-0.00999581
-0.00999581
-0.0103987
-0.0120746
-0.0139092
-0.0158911
-0.0180057
-0.0202355
-0.0225608
-0.0249608
-0.0274139
-0.0298991
-0.032396
-0.0348856
-0.0373509
-0.0397766
-0.0421496
-0.0444584
-0.0466939
-0.0488482
-0.0509152
-0.0528897
-0.0547678
-0.0565462
-0.0582223
-0.0597938
)
;
    }
    procBoundary1to3
    {
        type            processor;
        value           nonuniform List<scalar> 
23
(
-0.0639726
-0.0665897
-0.0691044
-0.0715133
-0.0738152
-0.0760101
-0.0760101
-0.079393
-0.081375
-0.0832558
-0.0850367
-0.0867187
-0.088302
-0.0897869
-0.0911727
-0.0924588
-0.0924588
-0.0948696
-0.0959597
-0.0969459
-0.0978266
-0.0986001
-0.099265
)
;
    }
    procBoundary1to6
    {
        type            processor;
        value           nonuniform List<scalar> 
26
(
-0.0662739
-0.0662127
-0.0660463
-0.0657756
-0.0654009
-0.0662739
-0.06909
-0.0717853
-0.0743693
-0.0768504
-0.0792355
-0.0814625
-0.0814625
-0.0849277
-0.0853192
-0.0836663
-0.0856048
-0.0849277
-0.0869464
-0.0888787
-0.0907235
-0.0924787
-0.094142
-0.0957107
-0.0971819
-0.0985526
)
;
    }
    procBoundary1to7
    {
        type            processor;
        value           nonuniform List<scalar> 
33
(
0.000465926
0.000234892
8.08744e-05
-5.75789e-05
-0.0002213
-0.000434808
-0.000724927
-0.00206585
-0.00112142
-0.00184138
-0.00346472
-0.00206585
-0.00315084
-0.00346472
-0.00457204
-0.00596511
-0.00767693
-0.0097321
-0.012143
-0.0149068
-0.0180035
-0.0213959
-0.0250318
-0.0288481
-0.032776
-0.0367474
-0.0406998
-0.0445806
-0.0483494
-0.0519788
-0.0554529
-0.058766
-0.0619201
)
;
    }
}


// ************************************************************************* //
