/*--------------------------------*- C++ -*----------------------------------*\
  =========                 |
  \\      /  F ield         | OpenFOAM: The Open Source CFD Toolbox
   \\    /   O peration     | Website:  https://openfoam.org
    \\  /    A nd           | Version:  9
     \\/     M anipulation  |
\*---------------------------------------------------------------------------*/
FoamFile
{
    format      ascii;
    class       surfaceScalarField;
    location    "2";
    object      phi;
}
// * * * * * * * * * * * * * * * * * * * * * * * * * * * * * * * * * * * * * //

dimensions      [0 3 -1 0 0 0 0];

internalField   nonuniform List<scalar> 
2420
(
-3.27117e-08
4.78218e-09
-3.7847e-08
5.13532e-09
-4.33278e-08
5.48079e-09
-4.91397e-08
5.81186e-09
-5.5261e-08
6.12137e-09
-6.16627e-08
6.40172e-09
-6.83076e-08
6.64482e-09
-7.51498e-08
6.84223e-09
-8.21351e-08
6.98531e-09
-8.92005e-08
7.06542e-09
-9.62746e-08
7.07411e-09
-1.03278e-07
7.0034e-09
-1.10124e-07
6.846e-09
-1.1672e-07
6.59556e-09
-1.22967e-07
6.24695e-09
-1.28763e-07
5.79648e-09
-1.34005e-07
5.2422e-09
-1.38589e-07
4.58405e-09
-1.42413e-07
3.82415e-09
-1.4538e-07
2.96704e-09
-1.47401e-07
2.02025e-09
-1.48395e-07
9.94355e-10
-1.48288e-07
-1.07172e-10
-1.47028e-07
-1.25968e-09
-1.44577e-07
-2.45079e-09
-1.40916e-07
-3.66142e-09
-1.36045e-07
-4.87068e-09
-1.29989e-07
-6.05646e-09
-1.22793e-07
-7.19561e-09
-1.14529e-07
-8.26454e-09
-1.05289e-07
-9.24009e-09
-9.51881e-08
-1.01005e-08
-1.08257e-08
-1.14418e-07
1.90988e-08
-1.29633e-07
2.03497e-08
-1.457e-07
2.1548e-08
-1.62556e-07
2.26681e-08
-1.80118e-07
2.36831e-08
-1.98281e-07
2.45649e-08
-2.16921e-07
2.52844e-08
-2.35891e-07
2.58122e-08
-2.55024e-07
2.61189e-08
-2.74135e-07
2.61763e-08
-2.93019e-07
2.59581e-08
-3.11456e-07
2.54402e-08
-3.29212e-07
2.46024e-08
-3.46045e-07
2.34284e-08
-3.61705e-07
2.19069e-08
-3.75941e-07
2.00322e-08
-3.88504e-07
1.78051e-08
-3.99152e-07
1.52328e-08
-4.07658e-07
1.23298e-08
-4.13809e-07
9.11831e-09
-4.17418e-07
5.62901e-09
-4.18328e-07
1.90421e-09
-4.16408e-07
-2.02669e-09
-4.11558e-07
-6.10974e-09
-4.03733e-07
-1.0276e-08
-3.92926e-07
-1.44682e-08
-3.79178e-07
-1.86191e-08
-3.62576e-07
-2.2658e-08
-3.4326e-07
-2.65123e-08
-3.21415e-07
-3.01091e-08
-2.97278e-07
-3.33776e-08
-2.71127e-07
-3.62512e-08
-3.86686e-08
-2.10965e-07
4.29273e-08
-2.36089e-07
4.54732e-08
-2.62406e-07
4.7865e-08
-2.89785e-07
5.00474e-08
-3.18065e-07
5.19633e-08
-3.47054e-07
5.35539e-08
-3.7653e-07
5.476e-08
-4.06241e-07
5.55231e-08
-4.35909e-07
5.57869e-08
-4.65232e-07
5.54991e-08
-4.93886e-07
5.46128e-08
-5.21534e-07
5.3088e-08
-5.47825e-07
5.08931e-08
-5.72403e-07
4.80064e-08
-5.94913e-07
4.44169e-08
-6.15006e-07
4.01254e-08
-6.32347e-07
3.51457e-08
-6.46618e-07
2.95043e-08
-6.5753e-07
2.32416e-08
-6.64823e-07
1.64112e-08
-6.68275e-07
9.08064e-09
-6.67721e-07
1.35016e-09
-6.62998e-07
-6.74961e-09
-6.54046e-07
-1.50613e-08
-6.40838e-07
-2.34845e-08
-6.23405e-07
-3.19007e-08
-6.01841e-07
-4.01828e-08
-5.763e-07
-4.81994e-08
-5.46995e-07
-5.58169e-08
-5.14202e-07
-6.29026e-08
-4.78251e-07
-6.93281e-08
-4.3953e-07
-7.49727e-08
-7.9726e-08
-3.20929e-07
7.61921e-08
-3.55742e-07
8.02858e-08
-3.91928e-07
8.40511e-08
-4.29275e-07
8.73945e-08
-4.67533e-07
9.0221e-08
-5.06414e-07
9.2435e-08
-5.45596e-07
9.39423e-08
-5.84726e-07
9.46532e-08
-6.23423e-07
9.4484e-08
-6.61285e-07
9.33605e-08
-6.97891e-07
9.12195e-08
-7.32814e-07
8.80112e-08
-7.65623e-07
8.37015e-08
-7.95889e-07
7.82728e-08
-8.23198e-07
7.17257e-08
-8.47152e-07
6.40798e-08
-8.6738e-07
5.53739e-08
-8.83543e-07
4.56666e-08
-8.95337e-07
3.50357e-08
-9.02504e-07
2.3578e-08
-9.04831e-07
1.14082e-08
-9.02167e-07
-1.31413e-09
-8.94387e-07
-1.45294e-08
-8.8146e-07
-2.79885e-08
-8.63397e-07
-4.15477e-08
-8.40273e-07
-5.50242e-08
-8.12228e-07
-6.82277e-08
-7.79465e-07
-8.09634e-08
-7.42247e-07
-9.30346e-08
-7.00902e-07
-1.04247e-07
-6.55816e-07
-1.14414e-07
-6.07432e-07
-1.23357e-07
-1.30915e-07
-4.42768e-07
1.18724e-07
-4.86956e-07
1.24474e-07
-5.32542e-07
1.29638e-07
-5.79225e-07
1.34078e-07
-6.26662e-07
1.37658e-07
-6.7447e-07
1.40243e-07
-7.22235e-07
1.41707e-07
-7.69514e-07
1.41932e-07
-8.15841e-07
1.40811e-07
-8.60738e-07
1.38257e-07
-9.03719e-07
1.34201e-07
-9.44302e-07
1.28594e-07
-9.8201e-07
1.2141e-07
-1.01639e-06
1.12651e-07
-1.047e-06
1.02339e-07
-1.07345e-06
9.05258e-08
-1.09536e-06
7.72852e-08
-1.11241e-06
6.27169e-08
-1.12432e-06
4.69442e-08
-1.13085e-06
3.01129e-08
-1.13184e-06
1.23933e-08
-1.12712e-06
-6.02793e-09
-1.11667e-06
-2.49806e-08
-1.10045e-06
-4.42069e-08
-1.07852e-06
-6.34858e-08
-1.05096e-06
-8.25765e-08
-1.01796e-06
-1.01229e-07
-9.79739e-07
-1.19188e-07
-9.36577e-07
-1.36197e-07
-8.88823e-07
-1.52002e-07
-8.36878e-07
-1.66358e-07
-7.81204e-07
-1.79031e-07
-1.89809e-07
-5.74794e-07
1.70235e-07
-6.27932e-07
1.77612e-07
-6.8235e-07
1.84055e-07
-7.37656e-07
1.89384e-07
-7.93421e-07
1.93422e-07
-8.49178e-07
1.96e-07
-9.04434e-07
1.96964e-07
-9.58679e-07
1.96177e-07
-1.01139e-06
1.93522e-07
-1.06204e-06
1.88911e-07
-1.11012e-06
1.82279e-07
-1.15512e-06
1.73593e-07
-1.19656e-06
1.62851e-07
-1.23399e-06
1.50081e-07
-1.26699e-06
1.3534e-07
-1.29519e-06
1.18718e-07
-1.31823e-06
1.00331e-07
-1.33584e-06
8.03244e-08
-1.34776e-06
5.88676e-08
-1.3538e-06
3.61553e-08
-1.35382e-06
1.24092e-08
-1.3477e-06
-1.21476e-08
-1.33542e-06
-3.72665e-08
-1.31696e-06
-6.26591e-08
-1.2924e-06
-8.80464e-08
-1.26185e-06
-1.13134e-07
-1.22546e-06
-1.37616e-07
-1.18346e-06
-1.61184e-07
-1.13613e-06
-1.83525e-07
-1.08381e-06
-2.04328e-07
-1.02687e-06
-2.2329e-07
-9.65782e-07
-2.40123e-07
-2.54559e-07
-7.15212e-07
2.3032e-07
-7.76767e-07
2.39166e-07
-8.3936e-07
2.46649e-07
-9.0252e-07
2.52544e-07
-9.65741e-07
2.56643e-07
-1.02849e-06
2.58753e-07
-1.09023e-06
2.58702e-07
-1.1504e-06
2.56348e-07
-1.20846e-06
2.51578e-07
-1.26386e-06
2.44314e-07
-1.31609e-06
2.34512e-07
-1.36467e-06
2.22167e-07
-1.40912e-06
2.07307e-07
-1.44904e-06
1.89996e-07
-1.48403e-06
1.70334e-07
-1.51376e-06
1.48449e-07
-1.53793e-06
1.24503e-07
-1.55629e-06
9.86812e-08
-1.56862e-06
7.11984e-08
-1.57476e-06
4.22916e-08
-1.57458e-06
1.22274e-08
-1.56799e-06
-1.87373e-08
-1.55496e-06
-5.0296e-08
-1.53549e-06
-8.2126e-08
-1.50963e-06
-1.13902e-07
-1.47749e-06
-1.45283e-07
-1.43919e-06
-1.75916e-07
-1.39493e-06
-2.05441e-07
-1.34496e-06
-2.33492e-07
-1.28959e-06
-2.59704e-07
-1.22916e-06
-2.83718e-07
-1.1641e-06
-3.05186e-07
-3.23782e-07
-8.62161e-07
2.98464e-07
-9.31513e-07
3.08519e-07
-1.00157e-06
3.16704e-07
-1.07179e-06
3.22766e-07
-1.14162e-06
3.26473e-07
-1.21049e-06
3.2762e-07
-1.27782e-06
3.26036e-07
-1.34306e-06
3.21586e-07
-1.40566e-06
3.14173e-07
-1.46509e-06
3.03745e-07
-1.52086e-06
2.90289e-07
-1.57253e-06
2.73833e-07
-1.61967e-06
2.54445e-07
-1.6619e-06
2.32228e-07
-1.69889e-06
2.07321e-07
-1.73033e-06
1.79893e-07
-1.75597e-06
1.50142e-07
-1.77558e-06
1.18293e-07
-1.78898e-06
8.45945e-08
-1.79601e-06
4.93189e-08
-1.79655e-06
1.27675e-08
-1.79051e-06
-2.47724e-08
-1.77785e-06
-6.29535e-08
-1.75856e-06
-1.01423e-07
-1.73264e-06
-1.39816e-07
-1.70017e-06
-1.77753e-07
-1.66125e-06
-2.14839e-07
-1.61602e-06
-2.50669e-07
-1.56469e-06
-2.84826e-07
-1.5075e-06
-3.1689e-07
-1.44478e-06
-3.46439e-07
-1.37689e-06
-1.01376e-06
3.74072e-07
-1.09023e-06
3.84994e-07
-1.16701e-06
3.93485e-07
-1.24352e-06
3.99275e-07
-1.31917e-06
4.02123e-07
-1.39338e-06
4.01828e-07
-1.46558e-06
3.98231e-07
-1.53521e-06
3.9122e-07
-1.60176e-06
3.80727e-07
-1.66475e-06
3.66733e-07
-1.72373e-06
3.49263e-07
-1.77828e-06
3.28383e-07
-1.82803e-06
3.042e-07
-1.87266e-06
2.76855e-07
-1.91186e-06
2.46522e-07
-1.94537e-06
2.13404e-07
-1.97296e-06
1.7773e-07
-1.99442e-06
1.39755e-07
-2.00958e-06
9.97535e-08
-2.01828e-06
5.80242e-08
-2.02041e-06
1.48922e-08
-2.01585e-06
-2.93271e-08
-2.00454e-06
-7.42611e-08
-1.98644e-06
-1.1953e-07
-1.96151e-06
-1.64741e-07
-1.92979e-06
-2.09478e-07
-1.89132e-06
-2.53311e-07
-1.84619e-06
-2.95794e-07
-1.79456e-06
-3.36459e-07
-1.73662e-06
-1.16813e-06
4.56489e-07
-1.25103e-06
4.6789e-07
-1.33381e-06
4.76264e-07
-1.41587e-06
4.81339e-07
-1.49663e-06
4.82882e-07
-1.57551e-06
4.80709e-07
-1.65197e-06
4.74687e-07
-1.72549e-06
4.64736e-07
-1.79558e-06
4.50825e-07
-1.86182e-06
4.32973e-07
-1.92381e-06
4.11244e-07
-1.98117e-06
3.85743e-07
-2.03358e-06
3.56611e-07
-2.08075e-06
3.24024e-07
-2.12241e-06
2.88184e-07
-2.15832e-06
2.4932e-07
-2.18828e-06
2.07687e-07
-2.21209e-06
1.63559e-07
-2.22956e-06
1.17232e-07
-2.24056e-06
6.90204e-08
-2.24493e-06
1.92656e-08
-2.24257e-06
-3.16919e-08
-2.23336e-06
-8.34667e-08
-2.21724e-06
-1.35658e-07
-2.19413e-06
-1.87848e-07
-2.16401e-06
-2.39595e-07
-2.12689e-06
-2.90438e-07
-2.08279e-06
-3.39889e-07
-3.87446e-07
-1.32346e-06
5.45032e-07
-1.41207e-06
5.565e-07
-1.50014e-06
5.64336e-07
-1.58707e-06
5.68276e-07
-1.6723e-06
5.68109e-07
-1.75527e-06
5.63681e-07
-1.83548e-06
5.54894e-07
-1.91245e-06
5.41706e-07
-1.98575e-06
5.24126e-07
-2.05499e-06
5.02212e-07
-2.11981e-06
4.76066e-07
-2.1799e-06
4.45827e-07
-2.23495e-06
4.11667e-07
-2.28472e-06
3.73789e-07
-2.32895e-06
3.32419e-07
-2.36744e-06
2.87808e-07
-2.39998e-06
2.40227e-07
-2.42639e-06
1.89965e-07
-2.44649e-06
1.37332e-07
-2.46012e-06
8.2656e-08
-2.46714e-06
2.62851e-08
-2.46742e-06
-3.14197e-08
-2.46082e-06
-9.00671e-08
-2.44723e-06
-1.49242e-07
-2.42657e-06
-2.08511e-07
-2.39875e-06
-2.67412e-07
-2.36373e-06
-3.25459e-07
-2.32148e-06
-3.82137e-07
-4.36913e-07
-1.47793e-06
6.38994e-07
-1.57155e-06
6.5012e-07
-1.66423e-06
6.57011e-07
-1.75538e-06
6.59429e-07
-1.84447e-06
6.57195e-07
-1.93098e-06
6.50191e-07
-2.01444e-06
6.38359e-07
-2.09444e-06
6.21698e-07
-2.17057e-06
6.00257e-07
-2.24249e-06
5.74132e-07
-2.30988e-06
5.43459e-07
-2.37246e-06
5.08406e-07
-2.42997e-06
4.69174e-07
-2.48217e-06
4.25989e-07
-2.52884e-06
3.79096e-07
-2.5698e-06
3.28764e-07
-2.60485e-06
2.75277e-07
-2.63382e-06
2.18938e-07
-2.65655e-06
1.60064e-07
-2.67289e-06
9.8991e-08
-2.68268e-06
3.6073e-08
-2.68578e-06
-2.83188e-08
-2.68205e-06
-9.37899e-08
-2.67138e-06
-1.59921e-07
-2.65362e-06
-2.2627e-07
-2.62866e-06
-2.92366e-07
-2.59641e-06
-3.57708e-07
-2.55679e-06
-4.21762e-07
-4.83977e-07
-1.62981e-06
7.37654e-07
-1.72772e-06
7.48035e-07
-1.82431e-06
7.53597e-07
-1.91901e-06
7.54136e-07
-2.01133e-06
7.49512e-07
-2.10078e-06
7.39647e-07
-2.18695e-06
7.24525e-07
-2.26944e-06
7.04185e-07
-2.3479e-06
6.78717e-07
-2.42202e-06
6.4825e-07
-2.49151e-06
6.12952e-07
-2.55612e-06
5.73022e-07
-2.61563e-06
5.28683e-07
-2.66983e-06
4.80185e-07
-2.71852e-06
4.27791e-07
-2.76155e-06
3.71787e-07
-2.79874e-06
3.12469e-07
-2.82995e-06
2.50149e-07
-2.85504e-06
1.85153e-07
-2.87387e-06
1.1782e-07
-2.8863e-06
4.85045e-08
-2.8922e-06
-2.24198e-08
-2.89143e-06
-9.45591e-08
-2.88385e-06
-1.67501e-07
-2.86932e-06
-2.40803e-07
-2.84768e-06
-3.13998e-07
-2.81881e-06
-3.86582e-07
-2.78256e-06
-4.58017e-07
-5.27742e-07
-1.77731e-06
8.40257e-07
-1.87877e-06
8.49497e-07
-1.97853e-06
8.53359e-07
-2.07608e-06
8.51678e-07
-2.17092e-06
8.44354e-07
-2.26262e-06
8.31353e-07
-2.3508e-06
8.12701e-07
-2.43509e-06
7.88479e-07
-2.51519e-06
7.5881e-07
-2.5908e-06
7.23863e-07
-2.66168e-06
6.83835e-07
-2.72761e-06
6.38954e-07
-2.7884e-06
5.89472e-07
-2.84388e-06
5.3566e-07
-2.89389e-06
4.77804e-07
-2.93831e-06
4.16202e-07
-2.97701e-06
3.51167e-07
-3.00988e-06
2.83019e-07
-3.03681e-06
2.12089e-07
-3.05771e-06
1.38716e-07
-3.07246e-06
6.32522e-08
-3.08094e-06
-1.39406e-08
-3.08303e-06
-9.2465e-08
-3.0786e-06
-1.71933e-07
-3.06749e-06
-2.51914e-07
-3.04953e-06
-3.31954e-07
-3.02455e-06
-4.1156e-07
-2.99236e-06
-4.90206e-07
-5.67336e-07
-1.91868e-06
9.45998e-07
-2.02288e-06
9.53698e-07
-2.12501e-06
9.55486e-07
-2.22456e-06
9.51236e-07
-2.3211e-06
9.40893e-07
-2.41422e-06
9.24467e-07
-2.50354e-06
9.02026e-07
-2.58875e-06
8.73691e-07
-2.66957e-06
8.39627e-07
-2.74574e-06
8.00037e-07
-2.81707e-06
7.55156e-07
-2.88336e-06
7.05244e-07
-2.94447e-06
6.50582e-07
-3.00027e-06
5.91468e-07
-3.05068e-06
5.2821e-07
-3.0956e-06
4.61126e-07
-3.13498e-06
3.90541e-07
-3.16874e-06
3.16784e-07
-3.19684e-06
2.40187e-07
-3.21921e-06
1.61088e-07
-3.23579e-06
7.98319e-08
-3.24648e-06
-3.25468e-09
-3.2512e-06
-8.7741e-08
-3.24982e-06
-1.73312e-07
-3.24219e-06
-2.59544e-07
-3.22814e-06
-3.46007e-07
-3.20746e-06
-4.3224e-07
-3.17993e-06
-5.1774e-07
-6.01975e-07
-2.05212e-06
1.054e-06
-2.15816e-06
1.05974e-06
-2.26173e-06
1.05906e-06
-2.36236e-06
1.05187e-06
-2.45963e-06
1.03816e-06
-2.55314e-06
1.01798e-06
-2.64257e-06
9.91456e-07
-2.72763e-06
9.58748e-07
-2.80807e-06
9.20064e-07
-2.88368e-06
8.7565e-07
-2.9543e-06
8.25781e-07
-3.01981e-06
7.70755e-07
-3.08012e-06
7.10888e-07
-3.13516e-06
6.46508e-07
-3.1849e-06
5.77948e-07
-3.22932e-06
5.05546e-07
-3.26842e-06
4.2964e-07
-3.3022e-06
3.50564e-07
-3.33066e-06
2.68651e-07
-3.3538e-06
1.84232e-07
-3.37161e-06
9.76355e-08
-3.38403e-06
9.17065e-09
-3.39101e-06
-8.07618e-08
-3.39245e-06
-1.71872e-07
-3.38822e-06
-2.63778e-07
-3.37813e-06
-3.56089e-07
-3.36199e-06
-4.48382e-07
-3.33954e-06
-5.40196e-07
-6.31041e-07
-2.17583e-06
1.16329e-06
-2.28272e-06
1.16663e-06
-2.38671e-06
1.16305e-06
-2.48734e-06
1.1525e-06
-2.58421e-06
1.13503e-06
-2.67697e-06
1.11074e-06
-2.76532e-06
1.07981e-06
-2.84901e-06
1.04243e-06
-2.92783e-06
9.98886e-07
-3.00164e-06
9.49458e-07
-3.07033e-06
8.94469e-07
-3.13384e-06
8.34264e-07
-3.19214e-06
7.69195e-07
-3.24526e-06
6.99623e-07
-3.29322e-06
6.2591e-07
-3.33608e-06
5.48411e-07
-3.37392e-06
4.67476e-07
-3.4068e-06
3.83444e-07
-3.43479e-06
2.96644e-07
-3.45795e-06
2.07392e-07
-3.47632e-06
1.15999e-07
-3.4899e-06
2.2754e-08
-3.49867e-06
-7.19949e-08
-3.50256e-06
-1.67975e-07
-3.50148e-06
-2.6486e-07
-3.49527e-06
-3.62306e-07
-3.4837e-06
-4.59945e-07
-3.46653e-06
-5.5737e-07
-6.54146e-07
-2.28807e-06
1.27283e-06
-2.39471e-06
1.27328e-06
-2.49797e-06
1.26631e-06
-2.59743e-06
1.25195e-06
-2.69269e-06
1.2303e-06
-2.78346e-06
1.2015e-06
-2.86945e-06
1.1658e-06
-2.95049e-06
1.12347e-06
-3.02641e-06
1.07481e-06
-3.09714e-06
1.02019e-06
-3.16265e-06
9.59976e-07
-3.22295e-06
8.94559e-07
-3.27809e-06
8.24335e-07
-3.32816e-06
7.49698e-07
-3.37329e-06
6.71036e-07
-3.4136e-06
5.88722e-07
-3.44924e-06
5.03114e-07
-3.48034e-06
4.14551e-07
-3.50705e-06
3.23353e-07
-3.52948e-06
2.29821e-07
-3.54772e-06
1.3424e-07
-3.56184e-06
3.68744e-08
-3.57185e-06
-6.19834e-08
-3.57774e-06
-1.62086e-07
-3.57943e-06
-2.63169e-07
-3.5768e-06
-3.64945e-07
-3.56964e-06
-4.67105e-07
-3.5577e-06
-5.6931e-07
-6.71191e-07
-2.38717e-06
1.3815e-06
-2.4924e-06
1.37851e-06
-2.59375e-06
1.36765e-06
-2.69079e-06
1.34899e-06
-2.78319e-06
1.3227e-06
-2.87068e-06
1.289e-06
-2.95306e-06
1.24818e-06
-3.03017e-06
1.20058e-06
-3.10197e-06
1.1466e-06
-3.16843e-06
1.08665e-06
-3.2296e-06
1.02115e-06
-3.28558e-06
9.50541e-07
-3.33651e-06
8.75267e-07
-3.38256e-06
7.95751e-07
-3.42393e-06
7.12404e-07
-3.46082e-06
6.25613e-07
-3.49345e-06
5.3574e-07
-3.52202e-06
4.4312e-07
-3.54672e-06
3.4806e-07
-3.56774e-06
2.5084e-07
-3.58522e-06
1.51718e-07
-3.59927e-06
5.09242e-08
-3.60995e-06
-5.13013e-08
-3.61729e-06
-1.54743e-07
-3.62126e-06
-2.59202e-07
-3.62176e-06
-3.64448e-07
-3.61862e-06
-4.70242e-07
-3.61162e-06
-5.76314e-07
-6.82373e-07
-2.47169e-06
1.48813e-06
-2.57432e-06
1.48115e-06
-2.67252e-06
1.46585e-06
-2.76593e-06
1.4424e-06
-2.85424e-06
1.41101e-06
-2.93724e-06
1.372e-06
-3.01481e-06
1.32574e-06
-3.08686e-06
1.27264e-06
-3.15343e-06
1.21317e-06
-3.21458e-06
1.1478e-06
-3.27044e-06
1.07701e-06
-3.32121e-06
1.00131e-06
-3.3671e-06
9.21153e-07
-3.40835e-06
8.37007e-07
-3.44524e-06
7.49296e-07
-3.47805e-06
6.58417e-07
-3.50704e-06
5.64729e-07
-3.53248e-06
4.68559e-07
-3.55461e-06
3.70195e-07
-3.57367e-06
2.69894e-07
-3.58983e-06
1.67882e-07
-3.60326e-06
6.43551e-08
-3.61406e-06
-4.05008e-08
-3.6223e-06
-1.46504e-07
-3.62798e-06
-2.53519e-07
-3.63106e-06
-3.61377e-07
-3.63139e-06
-4.69904e-07
-3.6288e-06
-5.78907e-07
-6.88174e-07
-2.43698e-06
1.59427e-06
-2.54042e-06
1.59158e-06
-2.63929e-06
1.58002e-06
-2.7332e-06
1.55975e-06
-2.82181e-06
1.53101e-06
-2.90491e-06
1.49411e-06
-2.98236e-06
1.44945e-06
-3.05409e-06
1.39747e-06
-3.12013e-06
1.33869e-06
-3.18059e-06
1.27363e-06
-3.23563e-06
1.20284e-06
-3.28547e-06
1.12685e-06
-3.33038e-06
1.04621e-06
-3.37065e-06
9.6142e-07
-3.40659e-06
8.72955e-07
-3.43855e-06
7.81255e-07
-3.46685e-06
6.86716e-07
-3.49181e-06
5.89691e-07
-3.51374e-06
4.90491e-07
-3.53293e-06
3.89383e-07
-3.54963e-06
2.86595e-07
-3.56407e-06
1.82322e-07
-3.57644e-06
7.67236e-08
-3.58688e-06
-3.00649e-08
-3.59548e-06
-1.37897e-07
-3.60231e-06
-2.46697e-07
-3.60733e-06
-3.56354e-07
-3.61048e-06
-4.66756e-07
-3.6116e-06
-5.77784e-07
-6.89304e-07
-2.49337e-06
1.69815e-06
-2.59254e-06
1.69074e-06
-2.68657e-06
1.67405e-06
-2.77513e-06
1.64831e-06
-2.85795e-06
1.61384e-06
-2.9349e-06
1.57106e-06
-3.00591e-06
1.52046e-06
-3.07103e-06
1.46259e-06
-3.13036e-06
1.39803e-06
-3.18411e-06
1.32738e-06
-3.23253e-06
1.25125e-06
-3.27592e-06
1.17024e-06
-3.31462e-06
1.08491e-06
-3.34899e-06
9.95792e-07
-3.37941e-06
9.03376e-07
-3.40626e-06
8.08101e-07
-3.4299e-06
7.10358e-07
-3.45069e-06
6.10485e-07
-3.46897e-06
5.08771e-07
-3.48505e-06
4.05459e-07
-3.4992e-06
3.00746e-07
-3.51167e-06
1.94792e-07
-3.52267e-06
8.77242e-08
-3.53237e-06
-2.03697e-08
-3.54089e-06
-1.29377e-07
-3.54831e-06
-2.39276e-07
-3.55466e-06
-3.50005e-07
-3.5599e-06
-4.61511e-07
-3.56395e-06
-5.7374e-07
-6.86629e-07
-2.53369e-06
1.79736e-06
-2.6276e-06
1.78466e-06
-2.71586e-06
1.76231e-06
-2.79819e-06
1.73064e-06
-2.87443e-06
1.69007e-06
-2.94451e-06
1.64114e-06
-3.00848e-06
1.58443e-06
-3.06647e-06
1.52057e-06
-3.11869e-06
1.45025e-06
-3.16543e-06
1.37412e-06
-3.20702e-06
1.29284e-06
-3.24384e-06
1.20706e-06
-3.27629e-06
1.11736e-06
-3.30479e-06
1.02429e-06
-3.32975e-06
9.28337e-07
-3.35158e-06
8.29935e-07
-3.37068e-06
7.29456e-07
-3.38742e-06
6.2722e-07
-3.40213e-06
5.23488e-07
-3.41515e-06
4.18472e-07
-3.42674e-06
3.12341e-07
-3.43717e-06
2.05221e-07
-3.44665e-06
9.72043e-08
-3.45536e-06
-1.16607e-08
-3.46344e-06
-1.21293e-07
-3.47101e-06
-2.31715e-07
-3.4781e-06
-3.42907e-07
-3.48475e-06
-4.54866e-07
-3.4909e-06
-5.67592e-07
-6.81085e-07
-2.55774e-06
1.89103e-06
-2.64559e-06
1.87251e-06
-2.72734e-06
1.84406e-06
-2.80279e-06
1.80609e-06
-2.87188e-06
1.75916e-06
-2.93465e-06
1.70391e-06
-2.99124e-06
1.64102e-06
-3.04189e-06
1.57122e-06
-3.08689e-06
1.49525e-06
-3.12662e-06
1.41385e-06
-3.16148e-06
1.32771e-06
-3.19191e-06
1.23749e-06
-3.21837e-06
1.14382e-06
-3.24129e-06
1.04721e-06
-3.26112e-06
9.48172e-07
-3.27829e-06
8.47102e-07
-3.29319e-06
7.44355e-07
-3.30619e-06
6.4022e-07
-3.31763e-06
5.34929e-07
-3.32782e-06
4.28661e-07
-3.33703e-06
3.21553e-07
-3.34551e-06
2.13699e-07
-3.35347e-06
1.05162e-07
-3.36108e-06
-4.04673e-09
-3.36851e-06
-1.13868e-07
-3.37586e-06
-2.24364e-07
-3.38322e-06
-3.35545e-07
-3.39064e-06
-4.47447e-07
-3.39812e-06
-5.60113e-07
-6.73593e-07
-2.56574e-06
1.97845e-06
-2.64691e-06
1.95369e-06
-2.72162e-06
1.91877e-06
-2.78979e-06
1.87426e-06
-2.85144e-06
1.82082e-06
-2.90673e-06
1.7592e-06
-2.9559e-06
1.69019e-06
-2.99927e-06
1.61459e-06
-3.03724e-06
1.53322e-06
-3.07024e-06
1.44685e-06
-3.09875e-06
1.35621e-06
-3.12323e-06
1.26198e-06
-3.14418e-06
1.16476e-06
-3.16205e-06
1.06509e-06
-3.17731e-06
9.63424e-07
-3.19035e-06
8.60149e-07
-3.20158e-06
7.55584e-07
-3.21134e-06
6.49983e-07
-3.21996e-06
5.43543e-07
-3.22771e-06
4.36412e-07
-3.23485e-06
3.28693e-07
-3.2416e-06
2.20451e-07
-3.24816e-06
1.1172e-07
-3.2547e-06
2.4978e-09
-3.26136e-06
-1.07207e-07
-3.26827e-06
-2.17455e-07
-3.27553e-06
-3.28289e-07
-3.2832e-06
-4.39772e-07
-3.29134e-06
-5.51977e-07
-6.64988e-07
-2.55826e-06
2.05913e-06
-2.63235e-06
2.02778e-06
-2.69974e-06
1.98616e-06
-2.76046e-06
1.93498e-06
-2.81465e-06
1.87501e-06
-2.86255e-06
1.8071e-06
-2.90452e-06
1.73215e-06
-2.94095e-06
1.65102e-06
-2.97232e-06
1.56459e-06
-2.99912e-06
1.47364e-06
-3.02185e-06
1.37895e-06
-3.04103e-06
1.28116e-06
-3.05715e-06
1.18088e-06
-3.07068e-06
1.07862e-06
-3.08205e-06
9.74792e-07
-3.09166e-06
8.69758e-07
-3.09987e-06
7.63794e-07
-3.107e-06
6.57116e-07
-3.11334e-06
5.49884e-07
-3.11914e-06
4.42212e-07
-3.12462e-06
3.34171e-07
-3.12997e-06
2.25801e-07
-3.13536e-06
1.17111e-07
-3.14095e-06
8.0871e-09
-3.14686e-06
-1.01298e-07
-3.15321e-06
-2.11101e-07
-3.16011e-06
-3.21385e-07
-3.16766e-06
-4.32229e-07
-3.17591e-06
-5.43722e-07
-6.55972e-07
-2.53619e-06
2.13278e-06
-2.60303e-06
2.09461e-06
-2.66306e-06
2.04619e-06
-2.71641e-06
1.98833e-06
-2.76334e-06
1.92193e-06
-2.80419e-06
1.84796e-06
-2.83939e-06
1.76735e-06
-2.86944e-06
1.68107e-06
-2.89484e-06
1.58999e-06
-2.91613e-06
1.49494e-06
-2.93385e-06
1.39667e-06
-2.94851e-06
1.29582e-06
-2.96061e-06
1.19298e-06
-2.97059e-06
1.08859e-06
-2.97886e-06
9.83062e-07
-2.98578e-06
8.76686e-07
-2.99169e-06
7.69701e-07
-2.99686e-06
6.62284e-07
-3.00153e-06
5.54555e-07
-3.00591e-06
4.46594e-07
-3.01019e-06
3.38446e-07
-3.01451e-06
2.30125e-07
-3.01902e-06
1.21624e-07
-3.02385e-06
1.29149e-08
-3.02911e-06
-9.60447e-08
-3.03489e-06
-2.05314e-07
-3.04132e-06
-3.14962e-07
-3.04847e-06
-4.25072e-07
-3.05646e-06
-5.3574e-07
-6.47082e-07
-2.50069e-06
2.1993e-06
-2.56031e-06
2.15423e-06
-2.61314e-06
2.09902e-06
-2.65942e-06
2.03461e-06
-2.69951e-06
1.96202e-06
-2.73384e-06
1.88229e-06
-2.76291e-06
1.79643e-06
-2.78727e-06
1.70542e-06
-2.80747e-06
1.61019e-06
-2.82408e-06
1.51155e-06
-2.83763e-06
1.41022e-06
-2.84864e-06
1.30683e-06
-2.85756e-06
1.2019e-06
-2.86483e-06
1.09586e-06
-2.87081e-06
9.89041e-07
-2.87582e-06
8.81699e-07
-2.88015e-06
7.74024e-07
-2.88401e-06
6.66148e-07
-2.88761e-06
5.58156e-07
-2.89111e-06
4.50096e-07
-2.89465e-06
3.41985e-07
-2.89834e-06
2.33819e-07
-2.9023e-06
1.25577e-07
-2.90661e-06
1.72229e-08
-2.91136e-06
-9.12919e-08
-2.91665e-06
-2.00027e-07
-2.92256e-06
-3.09047e-07
-2.9292e-06
-4.18433e-07
-2.93666e-06
-5.28277e-07
-6.38691e-07
-2.45309e-06
2.2588e-06
-2.50572e-06
2.20686e-06
-2.55171e-06
2.14501e-06
-2.59139e-06
2.0743e-06
-2.62522e-06
1.99585e-06
-2.65369e-06
1.91076e-06
-2.67738e-06
1.82012e-06
-2.69687e-06
1.72491e-06
-2.71273e-06
1.62605e-06
-2.72553e-06
1.52435e-06
-2.7358e-06
1.42049e-06
-2.74402e-06
1.31505e-06
-2.75063e-06
1.20851e-06
-2.756e-06
1.10124e-06
-2.76047e-06
9.93505e-07
-2.76429e-06
8.85525e-07
-2.7677e-06
7.77435e-07
-2.77088e-06
6.69325e-07
-2.77397e-06
5.61245e-07
-2.77708e-06
4.53211e-07
-2.78032e-06
3.45222e-07
-2.78376e-06
2.37256e-07
-2.78746e-06
1.29283e-07
-2.79151e-06
2.12643e-08
-2.79594e-06
-8.68547e-08
-2.80085e-06
-2.8063e-06
-2.81239e-06
-2.81921e-06
-2.39484e-06
2.31155e-06
-2.44088e-06
2.2529e-06
-2.48053e-06
2.18465e-06
-2.51422e-06
2.10799e-06
-2.54248e-06
2.0241e-06
-2.56587e-06
1.93415e-06
-2.58499e-06
1.83924e-06
-2.60046e-06
1.74037e-06
-2.61285e-06
1.63844e-06
-2.62271e-06
1.53421e-06
-2.63055e-06
1.42833e-06
-2.63682e-06
1.32132e-06
-2.64191e-06
1.2136e-06
-2.64615e-06
1.10547e-06
-2.6498e-06
9.97158e-07
-2.65309e-06
8.88812e-07
-2.65618e-06
7.80528e-07
-2.65921e-06
6.72352e-07
-2.66227e-06
5.64303e-07
-2.66543e-06
4.56371e-07
-2.66874e-06
3.48537e-07
-2.67225e-06
2.40767e-07
-2.67599e-06
1.33025e-07
-2.68e-06
2.52733e-08
-8.25409e-08
-2.32745e-06
2.35796e-06
-2.3674e-06
2.29285e-06
-2.40132e-06
2.21857e-06
-2.42971e-06
2.13639e-06
-2.45316e-06
2.04755e-06
-2.47228e-06
1.95327e-06
-2.48768e-06
1.85464e-06
-2.49997e-06
1.75267e-06
-2.50973e-06
1.6482e-06
-2.51748e-06
1.54196e-06
-2.5237e-06
1.43454e-06
-2.52877e-06
1.3264e-06
-2.53305e-06
1.21788e-06
-2.5368e-06
1.10922e-06
-2.54024e-06
1.0006e-06
-2.54353e-06
8.92105e-07
-2.54679e-06
7.83791e-07
-2.55011e-06
6.75667e-07
-2.55352e-06
5.6772e-07
-2.55707e-06
4.59921e-07
-2.56077e-06
3.52234e-07
-2.56463e-06
2.4462e-07
-2.56864e-06
1.37041e-07
-2.57283e-06
2.946e-08
-7.81652e-08
-2.25237e-06
2.39854e-06
-2.28684e-06
2.32733e-06
-2.31571e-06
2.24744e-06
-2.33955e-06
2.16022e-06
-2.35897e-06
2.06697e-06
-2.37461e-06
1.96891e-06
-2.38709e-06
1.86713e-06
-2.39701e-06
1.76259e-06
-2.40493e-06
1.65611e-06
-2.41131e-06
1.54835e-06
-2.41659e-06
1.43982e-06
-2.42112e-06
1.33093e-06
-2.42518e-06
1.22193e-06
-2.42898e-06
1.11302e-06
-2.43268e-06
1.00431e-06
-2.43641e-06
8.9583e-07
-2.44022e-06
7.87603e-07
-2.44416e-06
6.79601e-07
-2.44822e-06
5.71788e-07
-2.45242e-06
4.64117e-07
-2.45673e-06
3.56542e-07
-2.46113e-06
2.4902e-07
-2.4656e-06
1.41515e-07
-2.47014e-06
3.39957e-08
-7.35692e-08
-2.171e-06
2.43387e-06
-2.20065e-06
2.35698e-06
-2.22518e-06
2.27197e-06
-2.2452e-06
2.18024e-06
-2.26135e-06
2.08312e-06
-2.27428e-06
1.98183e-06
-2.2846e-06
1.87745e-06
-2.29288e-06
1.77087e-06
-2.29962e-06
1.66286e-06
-2.30528e-06
1.55401e-06
-2.31022e-06
1.44476e-06
-2.31472e-06
1.33543e-06
-2.31903e-06
1.22623e-06
-2.32329e-06
1.11729e-06
-2.32763e-06
1.00864e-06
-2.33209e-06
9.00297e-07
-2.33672e-06
7.92227e-07
-2.3415e-06
6.84381e-07
-2.34641e-06
5.76701e-07
-2.35142e-06
4.69128e-07
-2.35649e-06
3.6161e-07
-2.36157e-06
2.54104e-07
-2.36664e-06
1.46577e-07
-2.37165e-06
3.90062e-08
-6.86276e-08
-2.08464e-06
2.46456e-06
-2.11013e-06
2.38246e-06
-2.13101e-06
2.29285e-06
-2.14792e-06
2.19715e-06
-2.16152e-06
2.09672e-06
-2.17244e-06
1.99275e-06
-2.18126e-06
1.88627e-06
-2.18852e-06
1.77813e-06
-2.19468e-06
1.66902e-06
-2.20013e-06
1.55946e-06
-2.20518e-06
1.44981e-06
-2.21007e-06
1.34032e-06
-2.21497e-06
1.23113e-06
-2.21999e-06
1.12231e-06
-2.22519e-06
1.01384e-06
-2.2306e-06
9.05704e-07
-2.2362e-06
7.97826e-07
-2.24195e-06
6.90138e-07
-2.24782e-06
5.82566e-07
-2.25374e-06
4.75045e-07
-2.25965e-06
3.67519e-07
-2.26549e-06
2.59947e-07
-2.27121e-06
1.52303e-07
-2.27678e-06
4.45727e-08
-6.32511e-08
-1.99442e-06
2.49124e-06
-2.0164e-06
2.40444e-06
-2.0343e-06
2.31075e-06
-2.04877e-06
2.21163e-06
-2.06046e-06
2.10841e-06
-2.06997e-06
2.00226e-06
-2.07786e-06
1.89416e-06
-2.08462e-06
1.78489e-06
-2.09066e-06
1.67505e-06
-2.0963e-06
1.5651e-06
-2.10181e-06
1.45532e-06
-2.10737e-06
1.34588e-06
-2.11309e-06
1.23686e-06
-2.11905e-06
1.12827e-06
-2.12526e-06
1.02005e-06
-2.13171e-06
9.12153e-07
-2.13835e-06
8.04471e-07
-2.14513e-06
6.9692e-07
-2.15199e-06
5.89417e-07
-2.15883e-06
4.81891e-07
-2.1656e-06
3.74288e-07
-2.17222e-06
2.66571e-07
-2.17864e-06
1.58721e-07
-2.1848e-06
5.07326e-08
-1.90134e-06
2.51451e-06
-1.92042e-06
2.42352e-06
-1.93595e-06
2.32627e-06
-1.94857e-06
2.22425e-06
-1.9589e-06
2.11875e-06
-1.96753e-06
2.01089e-06
-1.97496e-06
1.90159e-06
-1.98162e-06
1.79155e-06
-1.98788e-06
1.68131e-06
-1.994e-06
1.57123e-06
-2.0002e-06
1.46151e-06
-2.0066e-06
1.35228e-06
-2.01328e-06
1.24354e-06
-2.02026e-06
1.13525e-06
-2.02753e-06
1.02732e-06
-2.03504e-06
9.19663e-07
-2.04273e-06
8.1216e-07
-2.05052e-06
7.0471e-07
-2.05833e-06
5.97226e-07
-2.06607e-06
4.89636e-07
-2.07368e-06
3.81889e-07
-2.08106e-06
2.73953e-07
-2.08816e-06
1.6582e-07
5.74929e-08
-1.80623e-06
2.53493e-06
-1.82297e-06
2.44025e-06
-1.83667e-06
2.33997e-06
-1.84794e-06
2.23553e-06
-1.8574e-06
2.1282e-06
-1.86555e-06
2.01905e-06
-1.87288e-06
1.90891e-06
-1.87975e-06
1.79842e-06
-1.88647e-06
1.68803e-06
-1.89327e-06
1.57802e-06
-1.90029e-06
1.46853e-06
-1.90762e-06
1.35961e-06
-1.91529e-06
1.25121e-06
-1.9233e-06
1.14326e-06
-1.93161e-06
1.03563e-06
-1.94013e-06
9.28192e-07
-1.94881e-06
8.20834e-07
-1.95754e-06
7.13441e-07
-1.96624e-06
6.05923e-07
-1.97481e-06
4.98213e-07
-1.98318e-06
3.90259e-07
-1.99127e-06
-1.99901e-06
-1.70978e-06
2.55302e-06
-1.72467e-06
2.45515e-06
-1.737e-06
2.35229e-06
-1.74736e-06
2.24589e-06
-1.7563e-06
2.13714e-06
-1.76431e-06
2.02705e-06
-1.77179e-06
1.91639e-06
-1.77908e-06
1.80571e-06
-1.78641e-06
1.69537e-06
-1.79398e-06
1.58558e-06
-1.80187e-06
1.47643e-06
-1.81014e-06
1.36788e-06
-1.81879e-06
1.25986e-06
-1.82777e-06
1.15224e-06
-1.83704e-06
1.04489e-06
-1.84649e-06
9.37649e-07
-1.85606e-06
8.30394e-07
-1.86562e-06
7.2301e-07
-1.87511e-06
6.15406e-07
-1.88442e-06
5.07521e-07
3.99309e-07
-1.61252e-06
2.56922e-06
-1.62599e-06
2.46862e-06
-1.63734e-06
2.36364e-06
-1.64712e-06
2.25567e-06
-1.65584e-06
2.14586e-06
-1.66393e-06
2.03514e-06
-1.67174e-06
1.92421e-06
-1.67957e-06
1.81353e-06
-1.68759e-06
1.7034e-06
-1.69594e-06
1.59394e-06
-1.7047e-06
1.48518e-06
-1.71386e-06
1.37704e-06
-1.7234e-06
1.2694e-06
-1.73326e-06
1.16211e-06
-1.74338e-06
1.055e-06
-1.75364e-06
9.47915e-07
-1.76396e-06
8.40718e-07
-1.77425e-06
7.33294e-07
-1.7844e-06
6.25558e-07
-1.79433e-06
5.17454e-07
4.08945e-07
-1.51486e-06
2.58392e-06
-1.52727e-06
2.48103e-06
-1.53795e-06
2.37432e-06
-1.54741e-06
2.26513e-06
-1.55611e-06
2.15456e-06
-1.56444e-06
2.04347e-06
-1.57269e-06
1.93246e-06
-1.5811e-06
1.82194e-06
-1.58982e-06
1.71211e-06
-1.59893e-06
1.60305e-06
-1.60848e-06
1.49472e-06
-1.61843e-06
1.387e-06
-1.62876e-06
1.27973e-06
-1.63938e-06
1.17273e-06
-1.6502e-06
1.06583e-06
-1.66114e-06
9.58851e-07
-1.67209e-06
8.51666e-07
-1.68295e-06
7.4416e-07
-1.69365e-06
6.36253e-07
-1.70409e-06
5.27897e-07
4.19066e-07
-1.41713e-06
2.59746e-06
-1.42875e-06
2.49266e-06
-1.43899e-06
2.38456e-06
-1.44833e-06
2.27446e-06
-1.45715e-06
2.16339e-06
-1.4658e-06
2.05212e-06
-1.47453e-06
1.94119e-06
-1.48352e-06
1.83093e-06
-1.49289e-06
1.72148e-06
-1.50269e-06
1.61285e-06
-1.51292e-06
1.50495e-06
-1.52355e-06
1.39763e-06
-1.53453e-06
1.2907e-06
-1.54576e-06
1.18396e-06
-1.55715e-06
1.07722e-06
-1.56861e-06
9.70313e-07
-1.58005e-06
8.631e-07
-1.59136e-06
7.55476e-07
-1.60248e-06
6.47369e-07
-1.61332e-06
5.38741e-07
4.29573e-07
-1.31952e-06
2.61008e-06
-1.33058e-06
2.50372e-06
-1.34056e-06
2.39454e-06
-1.34989e-06
2.28378e-06
-1.35891e-06
2.17241e-06
-1.36791e-06
2.06112e-06
-1.3771e-06
1.95039e-06
-1.38663e-06
1.84046e-06
-1.39657e-06
1.73142e-06
-1.40695e-06
1.62323e-06
-1.41775e-06
1.51575e-06
-1.42892e-06
1.40881e-06
-1.4404e-06
1.30218e-06
-1.45209e-06
1.19565e-06
-1.46391e-06
1.08903e-06
-1.47575e-06
9.82157e-07
-1.48753e-06
8.74884e-07
-1.49917e-06
7.67116e-07
-1.51059e-06
6.58792e-07
-1.52173e-06
5.4988e-07
4.40374e-07
-1.22218e-06
2.62199e-06
-1.23284e-06
2.51438e-06
-1.24268e-06
2.40438e-06
-1.25207e-06
2.29317e-06
-1.26131e-06
2.18165e-06
-1.27066e-06
2.07046e-06
-1.28027e-06
1.96e-06
-1.29025e-06
1.85044e-06
-1.30065e-06
1.74183e-06
-1.31149e-06
1.63406e-06
-1.32272e-06
1.52699e-06
-1.33429e-06
1.42038e-06
-1.34612e-06
1.31401e-06
-1.35813e-06
1.20766e-06