/*--------------------------------*- C++ -*----------------------------------*\
  =========                 |
  \\      /  F ield         | OpenFOAM: The Open Source CFD Toolbox
   \\    /   O peration     | Website:  https://openfoam.org
    \\  /    A nd           | Version:  9
     \\/     M anipulation  |
\*---------------------------------------------------------------------------*/
FoamFile
{
    format      ascii;
    class       volVectorField;
    location    "2";
    object      U;
}
// * * * * * * * * * * * * * * * * * * * * * * * * * * * * * * * * * * * * * //

dimensions      [0 1 -1 0 0 0 0];

internalField   nonuniform List<vector> 
1250
(
(-0.00302397 0.000116568 0)
(-0.00352008 0.000127232 0)
(-0.00405126 0.000137994 0)
(-0.00461644 0.000148673 0)
(-0.00521382 0.000159074 0)
(-0.00584088 0.000168984 0)
(-0.0064943 0.000178168 0)
(-0.00716993 0.000186368 0)
(-0.00786278 0.000193307 0)
(-0.00856696 0.000198696 0)
(-0.00927575 0.000202239 0)
(-0.0099816 0.00020364 0)
(-0.0106762 0.000202609 0)
(-0.0113504 0.000198876 0)
(-0.0119948 0.000192195 0)
(-0.0125993 0.000182359 0)
(-0.0131534 0.000169205 0)
(-0.013647 0.000152631 0)
(-0.0140695 0.000132603 0)
(-0.014411 0.000109177 0)
(-0.014662 8.25353e-05 0)
(-0.0148142 5.29697e-05 0)
(-0.0148598 2.06569e-05 0)
(-0.0147923 -1.4197e-05 0)
(-0.0146071 -5.08606e-05 0)
(-0.0143015 -8.86673e-05 0)
(-0.0138745 -0.000126935 0)
(-0.0133272 -0.000164905 0)
(-0.0126632 -0.000201762 0)
(-0.0118883 -0.000236649 0)
(-0.0110107 -0.000268717 0)
(-0.010041 -0.000297165 0)
(-0.00899147 -0.000321243 0)
(-0.010704 0.00094523 0)
(-0.0121816 0.00101302 0)
(-0.0137472 0.00107903 0)
(-0.0153953 0.00114193 0)
(-0.0171186 0.00120035 0)
(-0.0189078 0.00125279 0)
(-0.0207514 0.00129771 0)
(-0.0226359 0.00133348 0)
(-0.0245455 0.00135846 0)
(-0.0264626 0.00137102 0)
(-0.0283676 0.00136958 0)
(-0.0302392 0.00135267 0)
(-0.0320546 0.00131896 0)
(-0.03379 0.00126732 0)
(-0.0354206 0.00119686 0)
(-0.0369213 0.00110697 0)
(-0.038267 0.000997403 0)
(-0.0394331 0.000868254 0)
(-0.0403958 0.00072004 0)
(-0.0411332 0.000553721 0)
(-0.041625 0.000370744 0)
(-0.0418541 0.000172967 0)
(-0.041806 -3.76983e-05 0)
(-0.0414688 -0.000257965 0)
(-0.0408354 -0.00048478 0)
(-0.0399031 -0.000714621 0)
(-0.0386736 -0.000943625 0)
(-0.0371532 -0.00116767 0)
(-0.0353533 -0.00138249 0)
(-0.0332901 -0.00158373 0)
(-0.0309849 -0.00176717 0)
(-0.0284634 -0.0019288 0)
(-0.0257557 -0.00206495 0)
(-0.0198725 0.00285904 0)
(-0.0223224 0.00304057 0)
(-0.0248975 0.00321344 0)
(-0.027586 0.00337387 0)
(-0.0303736 0.00351789 0)
(-0.0332423 0.00364139 0)
(-0.0361715 0.00374012 0)
(-0.0391376 0.00380982 0)
(-0.0421138 0.00384633 0)
(-0.0450712 0.00384565 0)
(-0.0479783 0.00380409 0)
(-0.050802 0.00371839 0)
(-0.0535076 0.00358583 0)
(-0.0560597 0.00340431 0)
(-0.0584227 0.00317251 0)
(-0.0605611 0.00288991 0)
(-0.0624406 0.00255694 0)
(-0.0640284 0.00217498 0)
(-0.065294 0.00174643 0)
(-0.0662097 0.0012747 0)
(-0.0667515 0.000764243 0)
(-0.0668997 0.000220488 0)
(-0.0666381 -0.000349945 0)
(-0.0659553 -0.000939223 0)
(-0.0648468 -0.00153953 0)
(-0.0633128 -0.00214201 0)
(-0.0613598 -0.00273714 0)
(-0.0589998 -0.00331499 0)
(-0.0562514 -0.00386545 0)
(-0.0531391 -0.00437842 0)
(-0.0496934 -0.00484411 0)
(-0.0459499 -0.00525332 0)
(-0.0419499 -0.0055976 0)
(-0.0303898 0.00572682 0)
(-0.0337977 0.00605489 0)
(-0.0373526 0.00636085 0)
(-0.0410352 0.00663745 0)
(-0.0448223 0.00687718 0)
(-0.048687 0.00707245 0)
(-0.0525987 0.00721561 0)
(-0.0565236 0.00729922 0)
(-0.0604248 0.00731622 0)
(-0.0642631 0.00726013 0)
(-0.0679971 0.00712526 0)
(-0.0715843 0.00690689 0)
(-0.0749815 0.00660146 0)
(-0.0781456 0.0062067 0)
(-0.0810342 0.00572179 0)
(-0.0836067 0.00514744 0)
(-0.0858244 0.00448597 0)
(-0.0876515 0.00374135 0)
(-0.0890559 0.00291921 0)
(-0.0900093 0.0020268 0)
(-0.0904882 0.00107288 0)
(-0.0904741 6.78868e-05 0)
(-0.0899534 -0.000975044 0)
(-0.088918 -0.0020442 0)
(-0.0873669 -0.00312523 0)
(-0.0853046 -0.00420286 0)
(-0.0827417 -0.00526118 0)
(-0.0796953 -0.00628384 0)
(-0.0761888 -0.00725431 0)
(-0.072252 -0.00815623 0)
(-0.0679205 -0.0089738 0)
(-0.0632356 -0.00969215 0)
(-0.0582444 -0.0102977 0)
(-0.0421066 0.00952306 0)
(-0.0464486 0.010015 0)
(-0.0509445 0.0104634 0)
(-0.0555662 0.0108568 0)
(-0.0602814 0.0111837 0)
(-0.0650538 0.0114325 0)
(-0.0698433 0.011592 0)
(-0.074607 0.0116517 0)
(-0.0792992 0.0116019 0)
(-0.0838725 0.0114343 0)
(-0.0882785 0.0111418 0)
(-0.0924687 0.0107193 0)
(-0.0963948 0.0101635 0)
(-0.10001 0.00947316 0)
(-0.10327 0.00864925 0)
(-0.106132 0.00769499 0)
(-0.108558 0.00661584 0)
(-0.110514 0.00541953 0)
(-0.111967 0.00411598 0)
(-0.112894 0.0027172 0)
(-0.113274 0.00123712 0)
(-0.113089 -0.000308303 0)
(-0.112331 -0.00190083 0)
(-0.110997 -0.00352231 0)
(-0.109087 -0.00515226 0)
(-0.106609 -0.00676924 0)
(-0.103576 -0.00835109 0)
(-0.100008 -0.00987522 0)
(-0.0959308 -0.0113189 0)
(-0.0913758 -0.0126596 0)
(-0.0863806 -0.0138757 0)
(-0.0809877 -0.0149467 0)
(-0.0752463 -0.0158538 0)
(-0.0548598 0.0142343 0)
(-0.0601006 0.0148937 0)
(-0.0654877 0.0154795 0)
(-0.0709844 0.0159754 0)
(-0.0765494 0.0163658 0)
(-0.0821377 0.0166355 0)
(-0.0877011 0.01677 0)
(-0.0931892 0.0167562 0)
(-0.0985503 0.016583 0)
(-0.103732 0.0162408 0)
(-0.108681 0.0157229 0)
(-0.113347 0.0150248 0)
(-0.117681 0.0141448 0)
(-0.121635 0.0130841 0)
(-0.125166 0.0118465 0)
(-0.128234 0.0104389 0)
(-0.130804 0.00887072 0)
(-0.132843 0.00715421 0)
(-0.134324 0.00530402 0)
(-0.135226 0.0033372 0)
(-0.135532 0.00127302 0)
(-0.135228 -0.000867261 0)
(-0.134308 -0.00306107 0)
(-0.132769 -0.00528338 0)
(-0.130616 -0.00750827 0)
(-0.127856 -0.00970872 0)
(-0.124504 -0.0118569 0)
(-0.120578 -0.0139243 0)
(-0.116105 -0.0158824 0)
(-0.111113 -0.0177031 0)
(-0.10564 -0.0193589 0)
(-0.099727 -0.0208236 0)
(-0.0934222 -0.0220733 0)
(-0.0684758 0.0198267 0)
(-0.0745682 0.020644 0)
(-0.0807871 0.0213484 0)
(-0.0870872 0.0219196 0)
(-0.0934195 0.0223379 0)
(-0.0997319 0.0225852 0)
(-0.10597 0.0226446 0)
(-0.11208 0.022502 0)
(-0.118005 0.0221455 0)
(-0.123691 0.0215663 0)
(-0.129085 0.0207588 0)
(-0.134138 0.0197208 0)
(-0.1388 0.0184534 0)
(-0.143028 0.0169611 0)
(-0.146782 0.0152516 0)
(-0.150026 0.0133358 0)
(-0.152728 0.0112277 0)
(-0.15486 0.00894399 0)
(-0.156398 0.00650389 0)
(-0.157325 0.00392915 0)
(-0.157624 0.00124376 0)
(-0.157287 -0.0015263 0)
(-0.156306 -0.00435362 0)
(-0.15468 -0.00720849 0)
(-0.152411 -0.0100601 0)
(-0.149508 -0.0128763 0)
(-0.145981 -0.0156242 0)
(-0.141847 -0.0182702 0)
(-0.137129 -0.0207804 0)
(-0.131854 -0.0231208 0)
(-0.126055 -0.0252585 0)
(-0.119769 -0.0271612 0)
(-0.113043 -0.0287999 0)
(-0.0827733 0.0262531 0)
(-0.0896606 0.0272066 0)
(-0.0966442 0.0280001 0)
(-0.103672 0.0286093 0)
(-0.110689 0.029012 0)
(-0.117638 0.0291879 0)
(-0.124463 0.0291194 0)
(-0.131106 0.0287924 0)
(-0.137511 0.028196 0)
(-0.143625 0.0273234 0)
(-0.149397 0.0261717 0)
(-0.15478 0.0247417 0)
(-0.15973 0.0230382 0)
(-0.164207 0.0210697 0)
(-0.168176 0.0188479 0)
(-0.171604 0.016388 0)
(-0.174464 0.013708 0)
(-0.176731 0.0108287 0)
(-0.178385 0.00777341 0)
(-0.179409 0.00456774 0)
(-0.179789 0.00123954 0)
(-0.179516 -0.00218129 0)
(-0.178581 -0.00566341 0)
(-0.176983 -0.00917329 0)
(-0.174721 -0.012676 0)
(-0.171799 -0.0161352 0)
(-0.168226 -0.0195134 0)
(-0.164014 -0.0227724 0)
(-0.15918 -0.0258728 0)
(-0.153747 -0.0287753 0)
(-0.147743 -0.0314407 0)
(-0.141203 -0.0338322 0)
(-0.134167 -0.0359144 0)
(-0.0975676 0.0334572 0)
(-0.105186 0.0345161 0)
(-0.112863 0.035361 0)
(-0.120543 0.0359654 0)
(-0.128165 0.0363054 0)
(-0.135673 0.0363602 0)
(-0.143007 0.036113 0)
(-0.150112 0.035551 0)
(-0.156935 0.034666 0)
(-0.163423 0.033454 0)
(-0.169532 0.0319157 0)
(-0.175218 0.0300557 0)
(-0.180442 0.0278828 0)
(-0.185169 0.0254093 0)
(-0.189367 0.022651 0)
(-0.193008 0.0196265 0)
(-0.196068 0.0163577 0)
(-0.198525 0.0128684 0)
(-0.200359 0.00918519 0)
(-0.201555 0.00533669 0)
(-0.202099 0.00135366 0)
(-0.201979 -0.00273104 0)
(-0.201187 -0.00688303 0)
(-0.199716 -0.0110657 0)
(-0.197564 -0.0152408 0)
(-0.19473 -0.0193683 0)
(-0.191218 -0.0234068 0)
(-0.187035 -0.0273137 0)
(-0.182192 -0.0310444 0)
(-0.176709 -0.0345542 0)
(-0.170606 -0.0377992 0)
(-0.112674 0.0413759 0)
(-0.120955 0.0425028 0)
(-0.129254 0.0433574 0)
(-0.137511 0.0439121 0)
(-0.145667 0.0441429 0)
(-0.153664 0.0440303 0)
(-0.161444 0.0435592 0)
(-0.168955 0.04272 0)
(-0.176148 0.0415075 0)
(-0.182975 0.0399218 0)
(-0.189396 0.0379672 0)
(-0.195371 0.0356524 0)
(-0.200867 0.0329898 0)
(-0.205853 0.0299955 0)
(-0.2103 0.0266885 0)
(-0.214185 0.0230905 0)
(-0.217483 0.0192259 0)
(-0.220175 0.0151212 0)
(-0.222243 0.0108052 0)
(-0.22367 0.00630874 0)
(-0.224441 0.00166458 0)
(-0.224543 -0.00309233 0)
(-0.223966 -0.00792524 0)
(-0.222701 -0.0127952 0)
(-0.22074 -0.0176612 0)
(-0.218078 -0.0224803 0)
(-0.214716 -0.0272077 0)
(-0.210652 -0.0317965 0)
(-0.205895 -0.0361981 0)
(-0.12791 0.0499416 0)
(-0.136784 0.051096 0)
(-0.145633 0.0519174 0)
(-0.154398 0.0523788 0)
(-0.163021 0.0524576 0)
(-0.171444 0.0521367 0)
(-0.179616 0.0514043 0)
(-0.187486 0.0502542 0)
(-0.19501 0.0486854 0)
(-0.202147 0.0467017 0)
(-0.208858 0.0443115 0)
(-0.215111 0.041527 0)
(-0.220875 0.0383642 0)
(-0.226122 0.0348418 0)
(-0.230827 0.0309817 0)
(-0.234968 0.026808 0)
(-0.238524 0.0223468 0)
(-0.241475 0.0176267 0)
(-0.243804 0.012678 0)
(-0.245494 0.00753286 0)
(-0.246529 0.00222564 0)
(-0.246897 -0.00320742 0)
(-0.246583 -0.00872784 0)
(-0.245575 -0.014295 0)
(-0.243864 -0.0198659 0)
(-0.241442 -0.0253952 0)
(-0.238301 -0.0308353 0)
(-0.234436 -0.0361358 0)
(-0.22985 -0.0412448 0)
(-0.143098 0.0590847 0)
(-0.152492 0.0602251 0)
(-0.161822 0.0609717 0)
(-0.171028 0.0612992 0)
(-0.180054 0.0611879 0)
(-0.188846 0.0606241 0)
(-0.197356 0.0595998 0)
(-0.205539 0.0581128 0)
(-0.213355 0.0561663 0)
(-0.220766 0.0537678 0)
(-0.227739 0.0509294 0)
(-0.234244 0.0476665 0)
(-0.240254 0.0439978 0)
(-0.245745 0.0399449 0)
(-0.250694 0.0355314 0)
(-0.25508 0.0307833 0)
(-0.258884 0.0257284 0)
(-0.262089 0.0203965 0)
(-0.264677 0.014819 0)
(-0.266634 0.00902909 0)
(-0.267943 0.00306199 0)
(-0.26859 -0.00304524 0)
(-0.268562 -0.00925311 0)
(-0.267844 -0.01552 0)
(-0.266425 -0.0218018 0)
(-0.264291 -0.0280515 0)
(-0.261433 -0.0342196 0)
(-0.257839 -0.0402533 0)
(-0.253507 -0.0460981 0)
(-0.15806 0.0687339 0)
(-0.167904 0.0698194 0)
(-0.177644 0.0704517 0)
(-0.187222 0.0706084 0)
(-0.196586 0.0702734 0)
(-0.205686 0.0694368 0)
(-0.214478 0.068095 0)
(-0.22292 0.0662499 0)
(-0.230976 0.0639084 0)
(-0.238612 0.0610819 0)
(-0.245799 0.0577855 0)
(-0.25251 0.0540377 0)
(-0.258722 0.0498597 0)
(-0.264412 0.0452752 0)
(-0.26956 0.0403098 0)
(-0.27415 0.0349911 0)
(-0.278164 0.0293481 0)
(-0.281587 0.0234117 0)
(-0.284405 0.0172141 0)
(-0.286604 0.0107892 0)
(-0.288169 0.0041724 0)
(-0.289089 -0.00259873 0)
(-0.289348 -0.00948442 0)
(-0.288933 -0.0164431 0)
(-0.287831 -0.0234301 0)
(-0.286026 -0.0303983 0)
(-0.283504 -0.0372971 0)
(-0.280248 -0.0440726 0)
(-0.276251 -0.0506687 0)
(-0.172624 0.0788157 0)
(-0.182842 0.0798067 0)
(-0.192917 0.0802871 0)
(-0.202795 0.0802385 0)
(-0.212426 0.0796486 0)
(-0.221765 0.078512 0)
(-0.230768 0.0768291 0)
(-0.2394 0.0746059 0)
(-0.247627 0.0718531 0)
(-0.255419 0.0685855 0)
(-0.262749 0.0648213 0)
(-0.269595 0.0605819 0)
(-0.275936 0.0558911 0)
(-0.281752 0.0507746 0)
(-0.28703 0.04526 0)
(-0.291754 0.0393766 0)
(-0.295912 0.0331546 0)
(-0.299493 0.0266258 0)
(-0.302485 0.0198231 0)
(-0.304879 0.0127805 0)
(-0.306663 0.00553353 0)
(-0.307827 -0.00188066 0)
(-0.308358 -0.00942267 0)
(-0.308244 -0.017052 0)
(-0.30747 -0.0247247 0)
(-0.306021 -0.0323943 0)
(-0.303878 -0.0400107 0)
(-0.301022 -0.0475203 0)
(-0.297439 -0.0548668 0)
(-0.186615 0.0892527 0)
(-0.197126 0.0901096 0)
(-0.207456 0.0904014 0)
(-0.217552 0.0901134 0)
(-0.227368 0.0892378 0)
(-0.236861 0.0877734 0)
(-0.245991 0.0857249 0)
(-0.254726 0.0831023 0)
(-0.263034 0.07992 0)
(-0.270889 0.0761963 0)
(-0.278269 0.071953 0)
(-0.285153 0.0672142 0)
(-0.291526 0.0620066 0)
(-0.297375 0.0563584 0)
(-0.302687 0.0502994 0)
(-0.307455 0.0438604 0)
(-0.311671 0.0370733 0)
(-0.315329 0.0299705 0)
(-0.318423 0.0225853 0)
(-0.320947 0.0149517 0)
(-0.322896 0.00710484 0)
(-0.324261 -0.000919446 0)
(-0.325034 -0.00908373 0)
(-0.325203 -0.0173483 0)
(-0.324756 -0.0256715 0)
(-0.323677 -0.0340089 0)
(-0.321945 -0.0423123 0)
(-0.319538 -0.0505299 0)
(-0.316437 -0.0586069 0)
(-0.199857 0.0999611 0)
(-0.210573 0.100644 0)
(-0.221066 0.100709 0)
(-0.231288 0.100145 0)
(-0.241193 0.0989511 0)
(-0.250741 0.0971285 0)
(-0.259897 0.0946869 0)
(-0.268628 0.0916404 0)
(-0.276908 0.0880075 0)
(-0.284715 0.0838105 0)
(-0.29203 0.0790748 0)
(-0.29884 0.0738282 0)
(-0.305132 0.0681004 0)
(-0.3109 0.0619226 0)
(-0.316139 0.055327 0)
(-0.320847 0.0483463 0)
(-0.325022 0.0410137 0)
(-0.328665 0.0333624 0)
(-0.331777 0.0254258 0)
(-0.334357 0.0172375 0)
(-0.336405 0.00883135 0)
(-0.337917 0.000241531 0)
(-0.338888 -0.00849733 0)
(-0.339312 -0.0173475 0)
(-0.339175 -0.0262706 0)
(-0.338464 -0.0352255 0)
(-0.337158 -0.0441676 0)
(-0.335233 -0.0530483 0)
(-0.332665 -0.061816 0)
(-0.212176 0.110849 0)
(-0.222998 0.111314 0)
(-0.233554 0.111111 0)
(-0.243796 0.110234 0)
(-0.253681 0.108684 0)
(-0.263171 0.106469 0)
(-0.272234 0.103603 0)
(-0.280841 0.100104 0)
(-0.288971 0.0959973 0)
(-0.296606 0.091308 0)
(-0.303732 0.0860662 0)
(-0.310343 0.080304 0)
(-0.316433 0.0740547 0)
(-0.322004 0.0673526 0)
(-0.327056 0.0602327 0)
(-0.331595 0.0527296 0)
(-0.335628 0.0448776 0)
(-0.339161 0.0367107 0)
(-0.342203 0.028262 0)
(-0.344759 0.0195641 0)
(-0.346834 0.0106489 0)
(-0.348431 0.00154854 0)
(-0.349548 -0.00770507 0)
(-0.350183 -0.0170785 0)
(-0.350327 -0.0265372 0)
(-0.349966 -0.0360445 0)
(-0.349082 -0.0455605 0)
(-0.347651 -0.0550416 0)
(-0.345646 -0.0644409 0)
(-0.2234 0.121816 0)
(-0.234222 0.122016 0)
(-0.244729 0.1215 0)
(-0.254876 0.120265 0)
(-0.264621 0.118318 0)
(-0.27393 0.115673 0)
(-0.282774 0.112348 0)
(-0.291129 0.108368 0)
(-0.29898 0.103761 0)
(-0.306314 0.098561 0)
(-0.313126 0.0928009 0)
(-0.319415 0.0865179 0)
(-0.325184 0.0797493 0)
(-0.330442 0.0725331 0)
(-0.335198 0.0649065 0)
(-0.339466 0.0569063 0)
(-0.34326 0.0485678 0)
(-0.346593 0.0399251 0)
(-0.34948 0.0310108 0)
(-0.351933 0.0218559 0)
(-0.353965 0.0124902 0)
(-0.355581 0.00294284 0)
(-0.356787 -0.00675763 0)
(-0.357583 -0.0165824 0)
(-0.357964 -0.0265019 0)
(-0.35792 -0.0364847 0)
(-0.357435 -0.0464966 0)
(-0.356486 -0.0565003 0)
(-0.355046 -0.0664551 0)
(-0.233368 0.132752 0)
(-0.244076 0.132637 0)
(-0.254416 0.131757 0)
(-0.264345 0.130117 0)
(-0.273825 0.127729 0)
(-0.282826 0.124613 0)
(-0.291323 0.120793 0)
(-0.299301 0.116301 0)
(-0.306747 0.111172 0)
(-0.313659 0.105444 0)
(-0.320038 0.0991571 0)
(-0.325892 0.0923526 0)
(-0.331234 0.0850723 0)
(-0.336078 0.0773574 0)
(-0.340443 0.0692479 0)
(-0.34435 0.0607819 0)
(-0.34782 0.0519955 0)
(-0.350874 0.0429226 0)
(-0.353533 0.0335946 0)
(-0.355815 0.0240407 0)
(-0.357736 0.0142882 0)
(-0.359309 0.00436268 0)
(-0.360544 -0.00571137 0)
(-0.361445 -0.01591 0)
(-0.362012 -0.0262088 0)
(-0.362238 -0.0365825 0)
(-0.362111 -0.0470034 0)
(-0.361609 -0.0574411 0)
(-0.360709 -0.0678624 0)
(-0.241937 0.143543 0)
(-0.252412 0.143057 0)
(-0.262464 0.141761 0)
(-0.272053 0.139666 0)
(-0.281146 0.136791 0)
(-0.289716 0.133163 0)
(-0.297747 0.128814 0)
(-0.305228 0.123783 0)
(-0.312158 0.118112 0)
(-0.318541 0.111844 0)
(-0.324387 0.105027 0)
(-0.329713 0.0977065 0)
(-0.334539 0.0899283 0)
(-0.338889 0.0817367 0)
(-0.342789 0.0731737 0)
(-0.346266 0.0642786 0)
(-0.349349 0.0550877 0)
(-0.352063 0.0456342 0)
(-0.354436 0.0359479 0)
(-0.35649 0.0260559 0)
(-0.358246 0.0159822 0)
(-0.359722 0.00574897 0)
(-0.360931 -0.00462372 0)
(-0.361881 -0.0151169 0)
(-0.362578 -0.0257117 0)
(-0.363017 -0.036389 0)
(-0.363191 -0.0471281 0)
(-0.363084 -0.0579059 0)
(-0.362672 -0.0686973 0)
(-0.238422 0.154124 0)
(-0.248986 0.154072 0)
(-0.259112 0.153158 0)
(-0.26876 0.151391 0)
(-0.277893 0.148791 0)
(-0.286484 0.145384 0)
(-0.294513 0.141207 0)
(-0.301972 0.136299 0)
(-0.308859 0.130706 0)
(-0.315181 0.124479 0)
(-0.320951 0.117668 0)
(-0.326188 0.110325 0)
(-0.330917 0.102501 0)
(-0.335168 0.0942458 0)
(-0.33897 0.0856057 0)
(-0.342356 0.0766242 0)
(-0.34536 0.0673414 0)
(-0.348015 0.0577929 0)
(-0.350352 0.0480107 0)
(-0.3524 0.0380226 0)
(-0.354188 0.0278531 0)
(-0.35574 0.0175232 0)
(-0.357076 0.00705086 0)
(-0.358213 -0.00354788 0)
(-0.359163 -0.014259 0)
(-0.359933 -0.0250691 0)
(-0.360527 -0.0359652 0)
(-0.360938 -0.0469332 0)
(-0.361155 -0.0579576 0)
(-0.361162 -0.0690211 0)
(-0.244261 0.164719 0)
(-0.254427 0.164226 0)
(-0.264097 0.162826 0)
(-0.273234 0.160535 0)
(-0.281808 0.157383 0)
(-0.289799 0.153405 0)
(-0.297197 0.148646 0)
(-0.304001 0.143155 0)
(-0.310219 0.136988 0)
(-0.315867 0.1302 0)
(-0.320968 0.122849 0)
(-0.32555 0.114993 0)
(-0.329644 0.106687 0)
(-0.333288 0.0979818 0)
(-0.336517 0.0889273 0)
(-0.339371 0.0795673 0)
(-0.341886 0.0699413 0)
(-0.344098 0.0600839 0)
(-0.346044 0.0500253 0)
(-0.347754 0.039791 0)
(-0.349258 0.0294024 0)
(-0.350583 0.0188771 0)
(-0.351752 0.00822966 0)
(-0.352783 -0.00252828 0)
(-0.353691 -0.0133872 0)
(-0.354486 -0.0243388 0)
(-0.355174 -0.0353757 0)
(-0.355755 -0.0464899 0)
(-0.356223 -0.057673 0)
(-0.356564 -0.0689154 0)
(-0.248543 0.174895 0)
(-0.25821 0.173901 0)
(-0.267327 0.171959 0)
(-0.275862 0.169097 0)
(-0.283794 0.165351 0)
(-0.291109 0.16077 0)
(-0.297809 0.155406 0)
(-0.303902 0.149319 0)
(-0.309406 0.142572 0)
(-0.314345 0.135228 0)
(-0.318752 0.127352 0)
(-0.322662 0.119004 0)
(-0.326115 0.110243 0)
(-0.329151 0.101124 0)
(-0.331813 0.0916942 0)
(-0.334142 0.081999 0)
(-0.336179 0.0720763 0)
(-0.337961 0.0619591 0)
(-0.339525 0.051675 0)
(-0.340903 0.0412469 0)
(-0.342127 0.030693 0)
(-0.343222 0.0200276 0)
(-0.344212 0.00926156 0)
(-0.345118 -0.00159716 0)
(-0.345954 -0.0125432 0)
(-0.346734 -0.0235726 0)
(-0.347466 -0.0346828 0)
(-0.348154 -0.0458714 0)
(-0.348795 -0.0571359 0)
(-0.349383 -0.0684736 0)
(-0.25124 0.184556 0)
(-0.260325 0.183006 0)
(-0.268811 0.180474 0)
(-0.276674 0.176998 0)
(-0.283902 0.172628 0)
(-0.290492 0.16742 0)
(-0.296455 0.161438 0)
(-0.301809 0.154753 0)
(-0.306583 0.147433 0)
(-0.310809 0.139549 0)
(-0.314527 0.13117 0)
(-0.317779 0.122361 0)
(-0.320612 0.113182 0)
(-0.323069 0.103687 0)
(-0.325195 0.0939267 0)
(-0.327034 0.083942 0)
(-0.328628 0.0737698 0)
(-0.330013 0.0634405 0)
(-0.331227 0.0529789 0)
(-0.332301 0.0424048 0)
(-0.333264 0.0317332 0)
(-0.334143 0.0209752 0)
(-0.334959 0.0101383 0)
(-0.335734 -0.000772879 0)
(-0.336482 -0.0117567 0)
(-0.337219 -0.0228124 0)
(-0.337952 -0.0339415 0)
(-0.338691 -0.045146 0)
(-0.339437 -0.0564284 0)
(-0.340187 -0.0677915 0)
(-0.252365 0.193624 0)
(-0.260802 0.191469 0)
(-0.2686 0.188306 0)
(-0.275744 0.184186 0)
(-0.282233 0.179169 0)
(-0.288074 0.173324 0)
(-0.293289 0.166725 0)
(-0.297906 0.15945 0)
(-0.301962 0.151575 0)
(-0.305498 0.143178 0)
(-0.308561 0.134329 0)
(-0.311197 0.125096 0)
(-0.313456 0.115541 0)
(-0.315385 0.105716 0)
(-0.31703 0.0956695 0)
(-0.318434 0.0854418 0)
(-0.319638 0.0750661 0)
(-0.320679 0.0645698 0)
(-0.32159 0.0539744 0)
(-0.322402 0.0432964 0)
(-0.32314 0.0325475 0)
(-0.323829 0.0217357 0)
(-0.32449 0.0108658 0)
(-0.325141 -6.07286e-05 0)
(-0.325798 -0.0110447 0)
(-0.326474 -0.0220883 0)
(-0.32718 -0.0331959 0)
(-0.327925 -0.0443727 0)
(-0.328716 -0.0556248 0)
(-0.329553 -0.0669595 0)
(-0.251965 0.202039 0)
(-0.259708 0.199238 0)
(-0.266783 0.195415 0)
(-0.273186 0.190631 0)
(-0.278926 0.184959 0)
(-0.284022 0.178479 0)
(-0.288505 0.171275 0)
(-0.292413 0.163431 0)
(-0.29579 0.155031 0)
(-0.298685 0.146155 0)
(-0.301148 0.136877 0)
(-0.30323 0.127265 0)
(-0.304982 0.117379 0)
(-0.306453 0.107271 0)
(-0.307686 0.0969862 0)
(-0.308725 0.0865609 0)
(-0.309607 0.0760254 0)
(-0.310367 0.0654033 0)
(-0.311034 0.0547125 0)
(-0.311635 0.043966 0)
(-0.312193 0.0331725 0)
(-0.31273 0.0223371 0)
(-0.313263 0.0114619 0)
(-0.313808 0.000546414 0)
(-0.31438 -0.0104119 0)
(-0.31499 -0.0214178 0)
(-0.315651 -0.0324772 0)
(-0.316371 -0.0435975 0)
(-0.31716 -0.0547871 0)
(-0.318023 -0.0660561 0)
(-0.250118 0.209759 0)
(-0.257143 0.206287 0)
(-0.263484 0.201785 0)
(-0.269148 0.196331 0)
(-0.274154 0.190008 0)
(-0.278532 0.182908 0)
(-0.282322 0.175121 0)
(-0.285571 0.166741 0)
(-0.288329 0.157854 0)
(-0.290649 0.148543 0)
(-0.292585 0.138883 0)
(-0.294191 0.12894 0)
(-0.295516 0.118773 0)
(-0.296609 0.10843 0)
(-0.297511 0.097952 0)
(-0.298262 0.0873726 0)
(-0.298896 0.0767174 0)
(-0.299442 0.0660058 0)
(-0.299929 0.0552521 0)
(-0.300376 0.0444658 0)
(-0.300805 0.0336527 0)
(-0.301231 0.0228153 0)
(-0.30167 0.0119537 0)
(-0.302134 0.00106561 0)
(-0.302635 -0.00985264 0)
(-0.303185 -0.020807 0)
(-0.303793 -0.0318043 0)
(-0.30447 -0.0428529 0)
(-0.305225 -0.0539623 0)
(-0.306067 -0.0651442 0)
(-0.246928 0.216768 0)
(-0.253233 0.212606 0)
(-0.258851 0.207422 0)
(-0.263798 0.201304 0)
(-0.268106 0.194348 0)
(-0.271813 0.186654 0)
(-0.274969 0.17832 0)
(-0.277625 0.169445 0)
(-0.279838 0.160117 0)
(-0.281664 0.15042 0)
(-0.283158 0.140428 0)
(-0.284373 0.130205 0)
(-0.285358 0.119806 0)
(-0.286157 0.109274 0)
(-0.28681 0.0986478 0)
(-0.287352 0.0879542 0)
(-0.287812 0.0772147 0)
(-0.288216 0.0664446 0)
(-0.288585 0.0556544 0)
(-0.288936 0.0448502 0)
(-0.289285 0.0340352 0)
(-0.289644 0.0232096 0)
(-0.290024 0.0123721 0)
(-0.290435 0.00151923 0)
(-0.290885 -0.00935364 0)
(-0.291385 -0.0202525 0)
(-0.291943 -0.0311845 0)
(-0.292568 -0.0421578 0)
(-0.293271 -0.0531821 0)
(-0.294061 -0.0642692 0)
(-0.24252 0.223065 0)
(-0.248122 0.218212 0)
(-0.253045 0.212354 0)
(-0.257318 0.205591 0)
(-0.26098 0.198029 0)
(-0.26408 0.189778 0)
(-0.266673 0.180941 0)
(-0.268815 0.171618 0)
(-0.270567 0.161901 0)
(-0.271985 0.151871 0)
(-0.273125 0.1416 0)
(-0.274037 0.131148 0)
(-0.274768 0.120564 0)
(-0.275358 0.10989 0)
(-0.275842 0.0991542 0)
(-0.27625 0.0883815 0)
(-0.276607 0.077588 0)
(-0.276932 0.0667846 0)
(-0.277242 0.0559781 0)
(-0.27755 0.0451716 0)
(-0.277865 0.0343658 0)
(-0.278197 0.0235593 0)
(-0.278553 0.0127495 0)
(-0.278939 0.00193243 0)
(-0.279361 -0.00889686 0)
(-0.279826 -0.0197445 0)
(-0.280342 -0.0306161 0)
(-0.280917 -0.0415197 0)
(-0.281561 -0.052464 0)
(-0.282283 -0.06346 0)
(-0.237031 0.22867 0)
(-0.241963 0.223135 0)
(-0.246236 0.216623 0)
(-0.24989 0.209245 0)
(-0.252972 0.201117 0)
(-0.255538 0.192354 0)
(-0.257648 0.183063 0)
(-0.259361 0.173347 0)
(-0.260738 0.163294 0)
(-0.261837 0.152986 0)
(-0.262709 0.142487 0)
(-0.263404 0.131855 0)
(-0.263962 0.121133 0)
(-0.264421 0.110354 0)
(-0.264809 0.0995457 0)
(-0.265151 0.0887241 0)
(-0.265466 0.0779013 0)
(-0.265769 0.0670842 0)
(-0.266071 0.0562759 0)
(-0.26638 0.045477 0)
(-0.266703 0.034686 0)
(-0.267043 0.0239003 0)
(-0.267405 0.0131164 0)
(-0.267792 0.00233033 0)
(-0.268207 -0.0084634 0)
(-0.230603 0.233617 0)
(-0.234911 0.227422 0)
(-0.238591 0.220286 0)
(-0.241692 0.212333 0)
(-0.244268 0.203685 0)
(-0.246379 0.194461 0)
(-0.248087 0.184771 0)
(-0.249456 0.174716 0)
(-0.250544 0.164384 0)
(-0.251406 0.153849 0)
(-0.252093 0.143173 0)
(-0.252648 0.132407 0)
(-0.253107 0.121586 0)
(-0.253502 0.11074 0)
(-0.253856 0.0998881 0)
(-0.25419 0.0890421 0)
(-0.254515 0.0782093 0)
(-0.254842 0.0673925 0)
(-0.255178 0.0565919 0)
(-0.255526 0.0458055 0)
(-0.255888 0.0350304 0)
(-0.256265 0.0242629 0)
(-0.256658 0.0134992 0)
(-0.257069 0.00273543 0)
(-0.257496 -0.0080331 0)
(-0.223379 0.237954 0)
(-0.227119 0.231129 0)
(-0.230271 0.22341 0)
(-0.23289 0.214928 0)
(-0.235035 0.205811 0)
(-0.236771 0.19618 0)
(-0.23816 0.186147 0)
(-0.239265 0.175809 0)
(-0.240143 0.165251 0)
(-0.240845 0.15454 0)
(-0.241419 0.143733 0)
(-0.241901 0.132873 0)
(-0.242323 0.121991 0)
(-0.242711 0.111107 0)
(-0.243083 0.100236 0)
(-0.243452 0.0893845 0)
(-0.243828 0.0785555 0)
(-0.244215 0.0677483 0)
(-0.244615 0.0569603 0)
(-0.245028 0.0461875 0)
(-0.245454 0.0354259 0)
(-0.24589 0.0246711 0)
(-0.246334 0.0139195 0)
(-0.246785 0.00316747 0)
(-0.247241 -0.00758851 0)
(-0.215495 0.241736 0)
(-0.218729 0.23432 0)
(-0.221421 0.226064 0)
(-0.223631 0.217104 0)
(-0.225422 0.207572 0)
(-0.226858 0.197592 0)
(-0.228005 0.187271 0)
(-0.22892 0.176704 0)
(-0.229658 0.165969 0)
(-0.230268 0.155129 0)
(-0.230789 0.144232 0)
(-0.231254 0.133314 0)
(-0.231689 0.122399 0)
(-0.232114 0.111502 0)
(-0.232542 0.100631 0)
(-0.232981 0.0897879 0)
(-0.233436 0.078972 0)
(-0.233906 0.0681795 0)
(-0.234392 0.0574053 0)
(-0.234889 0.0466443 0)
(-0.235394 0.0358914 0)
(-0.235903 0.0251422 0)
(-0.236411 0.0143931 0)
(-0.236915 0.00364149 0)
(-0.237413 -0.00711513 0)
(-0.207079 0.245023 0)
(-0.209872 0.237062 0)
(-0.212172 0.228318 0)
(-0.214044 0.218934 0)
(-0.215552 0.209044 0)
(-0.216761 0.198769 0)
(-0.217732 0.188214 0)
(-0.218523 0.177468 0)
(-0.219183 0.166602 0)
(-0.219754 0.155673 0)
(-0.220272 0.144722 0)
(-0.220763 0.133776 0)
(-0.221249 0.122852 0)
(-0.221743 0.11196 0)
(-0.222253 0.101103 0)
(-0.222784 0.0902777 0)
(-0.223335 0.07948 0)
(-0.223904 0.0687037 0)
(-0.224486 0.057942 0)
(-0.225077 0.0471887 0)
(-0.22567 0.0364383 0)
(-0.226259 0.0256866 0)
(-0.226838 0.0149303 0)
(-0.227404 0.00416792 0)
(-0.227951 -0.00660196 0)
(-0.198245 0.247877 0)
(-0.200661 0.23942 0)
(-0.202636 0.230242 0)
(-0.204237 0.220489 0)
(-0.205527 0.210295 0)
(-0.206571 0.199777 0)
(-0.207428 0.189038 0)
(-0.208148 0.178158 0)
(-0.208778 0.167203 0)
(-0.209354 0.15622 0)
(-0.209905 0.145243 0)
(-0.210455 0.134292 0)
(-0.211017 0.123379 0)
(-0.2116 0.112506 0)
(-0.212208 0.101671 0)
(-0.212842 0.0908687 0)
(-0.213498 0.0800909 0)
(-0.214171 0.0693298 0)
(-0.214855 0.0585772 0)
(-0.215542 0.0478263 0)
(-0.216224 0.0370716 0)
(-0.216895 0.026309 0)
(-0.217549 0.0155364 0)
(-0.218179 0.00475286 0)
(-0.218781 -0.00604194 0)
(-0.189094 0.250361 0)
(-0.191194 0.241459 0)
(-0.192906 0.2319 0)
(-0.194295 0.221831 0)
(-0.195427 0.211384 0)
(-0.19636 0.200674 0)
(-0.19715 0.189794 0)
(-0.197843 0.178821 0)
(-0.198481 0.16781 0)
(-0.199094 0.156803 0)
(-0.199706 0.145824 0)
(-0.200333 0.134887 0)
(-0.200986 0.123997 0)
(-0.201669 0.113151 0)
(-0.202382 0.102344 0)
(-0.203123 0.0915665 0)
(-0.203884 0.0808079 0)
(-0.204661 0.0700588 0)
(-0.205443 0.0593107 0)
(-0.206223 0.0485564 0)
(-0.206992 0.0377904 0)
(-0.207743 0.0270094 0)
(-0.208468 0.0162121 0)
(-0.209162 0.00539792 0)
(-0.179712 0.252533 0)
(-0.181552 0.243237 0)
(-0.183056 0.233349 0)
(-0.184288 0.223015 0)
(-0.185308 0.212364 0)
(-0.186175 0.201504 0)
(-0.186938 0.190524 0)
(-0.187638 0.179491 0)
(-0.188311 0.168454 0)
(-0.188982 0.157445 0)
(-0.18967 0.146482 0)
(-0.190386 0.135572 0)
(-0.191136 0.124714 0)
(-0.191921 0.113901 0)
(-0.192738 0.103124 0)
(-0.193582 0.0923696 0)
(-0.194444 0.0816274 0)
(-0.195317 0.0708864 0)
(-0.19619 0.0601375 0)
(-0.197056 0.0493738 0)
(-0.197906 0.0385902 0)
(-0.19873 0.0277837 0)
(-0.199523 0.0169544 0)
(-0.200278 0.00610295 0)
(-0.17017 0.254447 0)
(-0.171802 0.244808 0)
(-0.173145 0.23464 0)
(-0.174263 0.224088 0)
(-0.175214 0.213275 0)
(-0.176049 0.202306 0)
(-0.176814 0.191259 0)
(-0.177544 0.180195 0)
(-0.17827 0.169154 0)
(-0.179011 0.158161 0)
(-0.179782 0.147227 0)
(-0.18059 0.136352 0)
(-0.181436 0.125531 0)
(-0.18232 0.114753 0)
(-0.183234 0.104004 0)
(-0.184172 0.093271 0)
(-0.185126 0.0825414 0)
(-0.186085 0.0718036 0)
(-0.18704 0.0610487 0)
(-0.187982 0.0502701 0)
(-0.188902 0.0394627 0)
(-0.160526 0.256151 0)
(-0.161992 0.246218 0)
(-0.163217 0.235816 0)
(-0.164258 0.225088 0)
(-0.16517 0.214153 0)
(-0.165999 0.203106 0)
(-0.166786 0.192021 0)
(-0.167562 0.180948 0)
(-0.16835 0.169921 0)
(-0.169166 0.158957 0)
(-0.170021 0.14806 0)
(-0.170917 0.137225 0)
(-0.171853 0.126443 0)
(-0.172825 0.115698 0)
(-0.173827 0.104975 0)
(-0.174848 0.0942599 0)
(-0.17588 0.0835383 0)
(-0.176913 0.0727989 0)
(-0.177937 0.0620329 0)
(-0.178943 0.0512343 0)
(-0.179923 0.0403989 0)
(-0.150823 0.257688 0)
(-0.152163 0.247504 0)
(-0.153301 0.236911 0)
(-0.154294 0.226045 0)
(-0.155191 0.215019 0)
(-0.156033 0.203924 0)
(-0.156855 0.192822 0)
(-0.157683 0.181759 0)
(-0.158536 0.170759 0)
(-0.159426 0.159832 0)
(-0.160359 0.148977 0)
(-0.161335 0.138184 0)
(-0.162351 0.127439 0)
(-0.1634 0.116725 0)
(-0.164475 0.106025 0)
(-0.165566 0.0953231 0)
(-0.166662 0.0846049 0)
(-0.167755 0.0738592 0)
(-0.168836 0.0630778 0)
(-0.169895 0.0522554 0)
(-0.170924 0.0413887 0)
(-0.141097 0.259093 0)
(-0.14234 0.2487 0)
(-0.143419 0.237952 0)
(-0.144385 0.22698 0)
(-0.145282 0.215893 0)
(-0.146148 0.204771 0)
(-0.147011 0.193671 0)
(-0.147893 0.18263 0)
(-0.148809 0.171664 0)
(-0.149767 0.160779 0)
(-0.150769 0.149968 0)
(-0.151814 0.139216 0)
(-0.152896 0.128507 0)
(-0.154009 0.117821 0)
(-0.155142 0.107139 0)
(-0.156288 0.0964462 0)
(-0.157435 0.0857271 0)
(-0.158575 0.0749712 0)
(-0.159698 0.064171 0)
(-0.160798 0.053322 0)
(-0.161867 0.0424222 0)
(-0.131372 0.260396 0)
(-0.132542 0.24983 0)
(-0.133581 0.238959 0)
(-0.134535 0.227911 0)
(-0.135444 0.216784 0)
(-0.136338 0.205653 0)
(-0.137243 0.194568 0)
(-0.138176 0.183557 0)
(-0.139148 0.172632 0)
(-0.140164 0.161791 0)
(-0.141224 0.151023 0)
(-0.142325 0.14031 0)
(-0.143459 0.129633 0)
(-0.14462 0.11897 0)
(-0.145798 0.108303 0)
(-0.146983 0.0976147 0)
(-0.148167 0.086891 0)
(-0.14934 0.0761218 0)
(-0.150495 0.0653005 0)
(-0.151625 0.0544234 0)
(-0.152723 0.0434896 0)
(-0.121665 0.261618 0)
(-0.122781 0.250913 0)
(-0.123794 0.239948 0)
(-0.124745 0.228845 0)
(-0.125669 0.217697 0)
(-0.126593 0.206571 0)
(-0.127537 0.195509 0)
(-0.128514 0.184535 0)
(-0.129533 0.173652 0)
(-0.130596 0.162855 0)
(-0.1317 0.152127 0)
(-0.132842 0.14145 0)
(-0.134015 0.130801 0)
(-0.135209 0.120158 0)
(-0.136417 0.109502 0)
(-0.137628 0.0988144 0)
(-0.138835 0.0880833 0)
(-0.140029 0.0772987 0)
(-0.141204 0.066455 0)
(-0.142353 0.0555495 0)
(-0.143472 0.044582 0)
(-0.111987 0.262779 0)
(-0.113061 0.251962 0)
(-0.114057 0.240927 0)
(-0.115011 0.229788 0)
(-0.115951 0.218633 0)
(-0.116901 0.207521 0)
(-0.117878 0.196489 0)
(-0.118891 0.185553 0)
(-0.119945 0.174713 0)
(-0.121042 0.163957 0)