/*--------------------------------*- C++ -*----------------------------------*\
  =========                 |
  \\      /  F ield         | OpenFOAM: The Open Source CFD Toolbox
   \\    /   O peration     | Website:  https://openfoam.org
    \\  /    A nd           | Version:  9
     \\/     M anipulation  |
\*---------------------------------------------------------------------------*/
FoamFile
{
    format      ascii;
    class       volScalarField;
    location    "2.25";
    object      p;
}
// * * * * * * * * * * * * * * * * * * * * * * * * * * * * * * * * * * * * * //

dimensions      [0 2 -2 0 0 0 0];

internalField   nonuniform List<scalar> 
1250
(
-0.0572366
-0.0596712
-0.0621
-0.0645093
-0.0668868
-0.0692217
-0.0715043
-0.0737264
-0.0758808
-0.0779611
-0.0799619
-0.0818784
-0.083706
-0.0854408
-0.0870789
-0.0886167
-0.0900509
-0.0913781
-0.0277082
-0.0274953
-0.0273475
-0.0272431
-0.0271852
-0.0271919
-0.02728
-0.0274638
-0.0277557
-0.0281663
-0.0287037
-0.0293745
-0.0301838
-0.0311355
-0.0322324
-0.0334762
-0.0348668
-0.0364024
-0.0380787
-0.0398893
-0.041825
-0.0438745
-0.0460244
-0.0482595
-0.0505637
-0.0529203
-0.0553126
-0.0577241
-0.0601392
-0.0625435
-0.0649238
-0.0672681
-0.0695658
-0.0718077
-0.0739855
-0.0760921
-0.0781211
-0.0800671
-0.0819249
-0.0836899
-0.085358
-0.0869252
-0.0883878
-0.0897421
-0.0274658
-0.0272624
-0.0271169
-0.0270077
-0.0269362
-0.0269184
-0.0269693
-0.0271026
-0.027331
-0.0276658
-0.0281168
-0.0286921
-0.0293987
-0.0302424
-0.0312277
-0.0323581
-0.0336351
-0.0350587
-0.0366265
-0.0383335
-0.0401722
-0.0421328
-0.044203
-0.0463686
-0.048614
-0.0509229
-0.0532783
-0.0556637
-0.0580628
-0.0604603
-0.0628423
-0.0651956
-0.0675086
-0.069771
-0.0719735
-0.0741081
-0.0761675
-0.0781454
-0.080036
-0.0818342
-0.0835352
-0.0851347
-0.0866286
-0.088013
-0.0272098
-0.0270171
-0.0268753
-0.0267627
-0.0266791
-0.0266381
-0.0266527
-0.0267356
-0.0268993
-0.027156
-0.0275169
-0.0279919
-0.0285901
-0.0293194
-0.0301863
-0.0311963
-0.0323529
-0.0336578
-0.0351104
-0.0367076
-0.0384433
-0.0403092
-0.0422942
-0.0443852
-0.0465671
-0.048824
-0.0511389
-0.053495
-0.0558756
-0.0582645
-0.0606468
-0.0630085
-0.0653368
-0.0676203
-0.0698486
-0.0720128
-0.0741045
-0.0761166
-0.0780426
-0.0798766
-0.0816135
-0.0832483
-0.0847765
-0.0861941
-0.0269435
-0.0267626
-0.0266256
-0.0265112
-0.0264172
-0.0263543
-0.0263335
-0.026366
-0.0264642
-0.0266406
-0.0269078
-0.0272778
-0.027762
-0.0283706
-0.0291125
-0.0299953
-0.0310246
-0.0322042
-0.0335353
-0.0350164
-0.0366433
-0.038409
-0.0403037
-0.0423151
-0.044429
-0.0466297
-0.0489005
-0.0512242
-0.0535835
-0.0559618
-0.058343
-0.0607123
-0.0630556
-0.0653605
-0.0676156
-0.0698106
-0.0719364
-0.0739848
-0.0759487
-0.0778213
-0.0795968
-0.0812699
-0.0828355
-0.0842892
-0.0266697
-0.0265017
-0.0263709
-0.0262561
-0.0261531
-0.0260699
-0.0260146
-0.0259971
-0.0260288
-0.0261229
-0.0262931
-0.0265538
-0.0269185
-0.0274002
-0.0280105
-0.0287594
-0.0296549
-0.0307027
-0.031906
-0.0332653
-0.0347779
-0.0364381
-0.0382375
-0.0401648
-0.0422064
-0.0443471
-0.0465702
-0.0488583
-0.0511938
-0.0535593
-0.055938
-0.0583137
-0.0606717
-0.0629981
-0.0652805
-0.0675075
-0.0696689
-0.0717557
-0.0737596
-0.0756734
-0.0774903
-0.0792045
-0.0808105
-0.0823033
-0.0263911
-0.0262371
-0.0261137
-0.0259999
-0.0258896
-0.0257872
-0.0256985
-0.0256311
-0.0255956
-0.0256054
-0.0256757
-0.0258227
-0.0260628
-0.0264118
-0.0268842
-0.0274927
-0.0282478
-0.0291577
-0.0302276
-0.0314596
-0.0328527
-0.0344028
-0.0361024
-0.0379414
-0.0399069
-0.041984
-0.0441561
-0.0464058
-0.048715
-0.0510656
-0.05344
-0.0558212
-0.0581932
-0.060541
-0.0628511
-0.065111
-0.0673094
-0.0694362
-0.0714822
-0.0734394
-0.0753003
-0.0770583
-0.0787075
-0.0802425
-0.0261098
-0.0259711
-0.0258564
-0.0257451
-0.0256287
-0.0255084
-0.0253868
-0.0252695
-0.025166
-0.0250897
-0.0250569
-0.0250862
-0.0251968
-0.0254075
-0.0257361
-0.0261982
-0.0268072
-0.0275736
-0.0285046
-0.0296045
-0.0308737
-0.0323095
-0.0339057
-0.0356529
-0.0375389
-0.0395493
-0.0416676
-0.0438763
-0.0461569
-0.0484907
-0.0508593
-0.0532447
-0.05563
-0.057999
-0.060337
-0.0626304
-0.0648667
-0.0670349
-0.0691248
-0.0711274
-0.0730346
-0.074839
-0.0765341
-0.0781139
-0.0258276
-0.0257056
-0.0256012
-0.0254936
-0.0253723
-0.025235
-0.0250809
-0.0249134
-0.0247407
-0.0245761
-0.0244374
-0.0243452
-0.0243217
-0.024389
-0.0245684
-0.0248787
-0.0253363
-0.0259541
-0.0267419
-0.0277055
-0.0288472
-0.0301654
-0.0316551
-0.0333077
-0.0351118
-0.037053
-0.0391153
-0.0412809
-0.0435309
-0.0458462
-0.0482075
-0.0505961
-0.0529938
-0.0553835
-0.0577494
-0.0600766
-0.0623517
-0.0645624
-0.0666976
-0.0687474
-0.0707029
-0.0725559
-0.0742993
-0.0759265
-0.0255459
-0.0254427
-0.0253499
-0.0252474
-0.0251222
-0.0249682
-0.0247815
-0.024563
-0.0243195
-0.0240645
-0.0238167
-0.0235993
-0.0234374
-0.0233568
-0.0233822
-0.0235361
-0.0238378
-0.0243031
-0.0249439
-0.0257682
-0.0267796
-0.027978
-0.0293592
-0.0309154
-0.0326357
-0.0345063
-0.036511
-0.0386319
-0.0408499
-0.0431453
-0.0454982
-0.0478888
-0.0502982
-0.0527082
-0.0551017
-0.0574628
-0.0597771
-0.0620311
-0.0642127
-0.0663112
-0.0683165
-0.0702201
-0.0720138
-0.0736907
-0.0252661
-0.0251839
-0.0251046
-0.0250084
-0.0248799
-0.0247091
-0.024489
-0.0242178
-0.0239014
-0.0235532
-0.0231933
-0.0228471
-0.022543
-0.0223106
-0.0221781
-0.0221717
-0.0223142
-0.022624
-0.0231155
-0.0237984
-0.0246781
-0.0257554
-0.0270271
-0.0284862
-0.0301221
-0.0319213
-0.0338676
-0.0359431
-0.0381282
-0.0404029
-0.0427464
-0.0451383
-0.0475587
-0.0499883
-0.0524091
-0.0548042
-0.0571578
-0.0594555
-0.0616843
-0.0638324
-0.065889
-0.0678446
-0.0696905
-0.071419
-0.024989
-0.0249311
-0.0248673
-0.0247785
-0.0246469
-0.0244585
-0.0242032
-0.023877
-0.0234848
-0.0230401
-0.0225646
-0.0220861
-0.0216366
-0.021249
-0.0209557
-0.0207866
-0.0207677
-0.0209204
-0.0212615
-0.0218025
-0.0225501
-0.0235065
-0.0246691
-0.0260315
-0.0275835
-0.0293116
-0.0311997
-0.0332297
-0.0353819
-0.0376354
-0.0399691
-0.0423618
-0.0447926
-0.0472414
-0.0496891
-0.0521178
-0.0545106
-0.0568523
-0.0591287
-0.061327
-0.0634357
-0.0654445
-0.0673439
-0.0691256
-0.0247157
-0.0246865
-0.0246406
-0.02456
-0.0244247
-0.0242171
-0.0239237
-0.023539
-0.0230671
-0.022522
-0.0219272
-0.0213132
-0.0207152
-0.0201702
-0.0197144
-0.0193813
-0.0192004
-0.019196
-0.019387
-0.019787
-0.020404
-0.021241
-0.0222963
-0.0235637
-0.0250334
-0.0266919
-0.028523
-0.0305085
-0.0326282
-0.034861
-0.0371849
-0.0395781
-0.042019
-0.0444866
-0.0469608
-0.0494227
-0.0518546
-0.05424
-0.056564
-0.0588129
-0.0609742
-0.0630368
-0.0649906
-0.0668267
-0.0244472
-0.0244531
-0.0244278
-0.024356
-0.0242157
-0.0239857
-0.0236502
-0.0232022
-0.0226455
-0.0219953
-0.0212771
-0.0205243
-0.0197756
-0.0190718
-0.018453
-0.0179563
-0.0176145
-0.0174547
-0.017498
-0.0177596
-0.0182489
-0.0189697
-0.0199208
-0.0210965
-0.0224867
-0.0240782
-0.0258547
-0.0277975
-0.0298862
-0.032099
-0.0344138
-0.0368078
-0.0392587
-0.0417449
-0.0442452
-0.0467399
-0.0492103
-0.0516392
-0.0540106
-0.0563099
-0.0585238
-0.0606405
-0.0626492
-0.0645403
-0.0241867
-0.0242357
-0.0242338
-0.0241704
-0.0240227
-0.0237661
-0.0233826
-0.0228648
-0.0222172
-0.0214564
-0.0206103
-0.0197155
-0.0188144
-0.0179516
-0.0171707
-0.0165125
-0.0160128
-0.0157011
-0.0156009
-0.0157288
-0.0160952
-0.0167046
-0.0175563
-0.0186446
-0.0199597
-0.0214881
-0.0232132
-0.0251161
-0.0271759
-0.0293706
-0.0316773
-0.0340728
-0.0365341
-0.0390386
-0.0415647
-0.0440918
-0.0466002
-0.0490719
-0.05149
-0.0538392
-0.0561055
-0.0582761
-0.0603397
-0.062286
-0.0239382
-0.024041
-0.0240662
-0.0240101
-0.0238506
-0.0235607
-0.0231215
-0.022526
-0.0217797
-0.0209017
-0.019923
-0.0188834
-0.0178289
-0.0168079
-0.0158675
-0.0150517
-0.014399
-0.0139413
-0.0137037
-0.0137043
-0.0139544
-0.014459
-0.0152176
-0.0162246
-0.0174701
-0.0189402
-0.0206182
-0.0224849
-0.0245189
-0.0266978
-0.0289981
-0.0313961
-0.0338683
-0.0363915
-0.0389432
-0.041502
-0.0440477
-0.0465614
-0.0490255
-0.0514238
-0.0537416
-0.0559656
-0.0580836
-0.0600847
-0.0237097
-0.0238809
-0.0239368
-0.023885
-0.023707
-0.0233748
-0.0228697
-0.022186
-0.021332
-0.0203294
-0.0192128
-0.0180255
-0.0168177
-0.0156407
-0.0145449
-0.0135772
-0.0127784
-0.0121824
-0.0118158
-0.0116977
-0.0118399
-0.0122479
-0.0129213
-0.0138543
-0.0150368
-0.0164547
-0.0180909
-0.0199258
-0.0219377
-0.0241036
-0.0263997
-0.0288019
-0.0312858
-0.0338279
-0.036405
-0.0389951
-0.0415773
-0.044132
-0.0466409
-0.0490872
-0.0514555
-0.0537317
-0.0559031
-0.0579584
-0.0235159
-0.0237744
-0.023864
-0.0238106
-0.0236041
-0.0232171
-0.0226328
-0.0218484
-0.0208754
-0.0197399
-0.0184803
-0.0171419
-0.0157816
-0.014452
-0.0132066
-0.0120946
-0.0111587
-0.0104343
-0.00994888
-0.00972229
-0.00976684
-0.0100881
-0.0106854
-0.0115529
-0.0126802
-0.0140529
-0.0156534
-0.0174617
-0.0194557
-0.0216121
-0.0239066
-0.0263145
-0.0288113
-0.0313727
-0.0339751
-0.036596
-0.0392138
-0.0418083
-0.0443607
-0.0468535
-0.0492707
-0.0515976
-0.0538212
-0.0559293
-0.0233822
-0.0237525
-0.0238769
-0.0238116
-0.0235613
-0.0231024
-0.0224218
-0.021521
-0.0204159
-0.0191371
-0.0177275
-0.0162381
-0.0147255
-0.0132476
-0.0118598
-0.0106127
-0.0095504
-0.0087091
-0.00811692
-0.00779391
-0.00775246
-0.007998
-0.00852972
-0.00934139
-0.0104221
-0.0117572
-0.0133286
-0.015116
-0.0170968
-0.0192474
-0.0215431
-0.0239588
-0.0264697
-0.0290509
-0.0316786
-0.0343296
-0.0369819
-0.0396149
-0.0422091
-0.0447465
-0.0472107
-0.0495865
-0.0518602
-0.0540194
-0.0233523
-0.0238648
-0.024021
-0.0239257
-0.0236093
-0.0230551
-0.0222558
-0.0212188
-0.0199657
-0.0185321
-0.0169654
-0.0153212
-0.0136588
-0.012038
-0.010516
-0.00914441
-0.00796781
-0.00702265
-0.00633706
-0.00593091
-0.00581632
-0.00599833
-0.00647572
-0.00724181
-0.00828527
-0.00959089
-0.0111403
-0.0129127
-0.0148853
-0.0170339
-0.0193337
-0.0217593
-0.0242854
-0.0268869
-0.0295396
-0.0322199
-0.0349055
-0.0375752
-0.0402092
-0.0427892
-0.045298
-0.0477202
-0.0500417
-0.0522495
-0.0235009
-0.0241916
-0.0243676
-0.0242116
-0.0237952
-0.0231132
-0.0221658
-0.0209674
-0.0195462
-0.0179434
-0.0162112
-0.0144086
-0.0125977
-0.0108398
-0.00919254
-0.00770766
-0.00642972
-0.00539457
-0.00462976
-0.00415451
-0.00398029
-0.00411151
-0.00454632
-0.00527747
-0.00629313
-0.00757761
-0.00911216
-0.0108756
-0.0128447
-0.0149952
-0.0173019
-0.0197392
-0.0222815
-0.0249036
-0.0275807
-0.0302893
-0.0330065
-0.0357109
-0.0383823
-0.041002
-0.0435526
-0.0460181
-0.0483842
-0.0506376
-0.023956
-0.0248619
-0.0250263
-0.0247572
-0.0241901
-0.0233346
-0.0221994
-0.0208068
-0.0191918
-0.0174015
-0.0154924
-0.0135265
-0.0115675
-0.0096774
-0.0079135
-0.00632671
-0.00496025
-0.00384902
-0.00301921
-0.00248892
-0.00226856
-0.00236163
-0.00276547
-0.00347215
-0.00446925
-0.00574063
-0.0072671
-0.00902713
-0.0109973
-0.0131532
-0.0154691
-0.0179195
-0.0204786
-0.0231208
-0.0258215
-0.0285566
-0.0313032
-0.0340395
-0.0367452
-0.0394012
-0.0419898
-0.0444949
-0.0469015
-0.0491963
-0.0249389
-0.0260838
-0.026164
-0.0256916
-0.0248957
-0.0238013
-0.0224243
-0.0207942
-0.0189522
-0.0169506
-0.0148494
-0.0127125
-0.0106039
-0.00858501
-0.00671164
-0.00503287
-0.00358977
-0.00241524
-0.00153361
-0.000961299
-0.00070728
-0.000773836
-0.00115733
-0.00184904
-0.00283589
-0.00410122
-0.00562549
-0.00738683
-0.00936168
-0.0115252
-0.013852
-0.016316
-0.0188914
-0.0215527
-0.024275
-0.027034
-0.0298069
-0.0325716
-0.0353075
-0.0379954
-0.0406173
-0.0431569
-0.0455991
-0.0479302
-0.0268433
-0.0281934
-0.0280242
-0.0271892
-0.0260434
-0.0246162
-0.0229237
-0.020999
-0.0188876
-0.0166446
-0.0143318
-0.012013
-0.00975085
-0.00760435
-0.00562661
-0.00386363
-0.0023535
-0.00112621
-0.000203666
0.000399915
0.000677347
0.000627819
0.000256134
-0.000428056
-0.00141099
-0.00267549
-0.00420162
-0.00596726
-0.00794865
-0.0101209
-0.0124583
-0.0149351
-0.0175252
-0.020203
-0.0229437
-0.025723
-0.0285178
-0.031306
-0.034067
-0.0367813
-0.0394308
-0.041999
-0.0444707
-0.046832
-0.0304045
-0.0317293
-0.030923
-0.0294402
-0.0277561
-0.025861
-0.0237533
-0.0214617
-0.0190303
-0.0165126
-0.013968
-0.0114568
-0.00903782
-0.00676547
-0.00468843
-0.00284836
-0.00127946
-8.18375e-06
0.000946621
0.00157324
0.00186654
0.00182738
0.00146183
0.00078051
-0.000202102
-0.00146832
-0.00299786
-0.00476837
-0.00675597
-0.00893568
-0.0112819
-0.0137686
-0.01637
-0.0190604
-0.021815
-0.0246095
-0.0274208
-0.0302269
-0.0330068
-0.0357412
-0.0384119
-0.0410022
-0.0434969
-0.0458818
-0.0371498
-0.0375223
-0.0351502
-0.0325241
-0.0300179
-0.0274663
-0.0248165
-0.0220774
-0.0192798
-0.0164662
-0.013685
-0.010987
-0.00842236
-0.00603835
-0.00387712
-0.00197478
-0.000360809
0.000942278
0.00191882
0.00255968
0.00286177
0.0028275
0.0024641
0.00178305
0.000799394
-0.000468787
-0.00200098
-0.00377473
-0.00576611
-0.0079502
-0.0103014
-0.0127939
-0.0154018
-0.0180998
-0.0208629
-0.023667
-0.0264889
-0.0293067
-0.0320996
-0.0348479
-0.0375336
-0.0401399
-0.0426514
-0.0450539
-0.0505902
-0.0466034
-0.04072
-0.0361552
-0.0323895
-0.0289374
-0.0256272
-0.0224028
-0.019251
-0.0161808
-0.013215
-0.0103858
-0.0077296
-0.00528318
-0.00308097
-0.00115319
0.000475245
0.00178526
0.00276379
0.00340363
0.00370307
0.00366544
0.00329863
0.00261446
0.00162816
0.000357848
-0.00117603
-0.00295114
-0.00494373
-0.00712905
-0.00948172
-0.0119761
-0.0145865
-0.0172877
-0.0200549
-0.0228641
-0.0256922
-0.0285173
-0.0313185
-0.0340764
-0.0367728
-0.0393908
-0.0419151
-0.0443313
-0.0783341
-0.0583675
-0.0455914
-0.0379725
-0.0325762
-0.0282617
-0.024526
-0.0211153
-0.0178985
-0.0148247
-0.0118887
-0.00910722
-0.00650667
-0.0041176
-0.00197075
-9.42645e-05
0.00148803
0.00275754
0.00370127
0.00431176
0.0045869
0.00452949
0.0041468
0.00345004
0.00245386
0.00117578
-0.000364284
-0.00214449
-0.00414154
-0.00633106
-0.00868801
-0.011187
-0.0138027
-0.0165099
-0.0192841
-0.0221013
-0.0249385
-0.0277739
-0.0305865
-0.033357
-0.036067
-0.0386997
-0.0412396
-0.0436724
-0.165455
-0.0644871
-0.0345189
-0.0274641
-0.0235914
-0.0203173
-0.0176625
-0.0153379
-0.0130584
-0.0107371
-0.00839886
-0.00609508
-0.00387746
-0.00179521
0.00010589
0.00178548
0.00321002
0.00435316
0.00519566
0.005725
0.0059349
0.00582476
0.00539906
0.00466672
0.00364048
0.00233634
0.00077299
-0.00102874
-0.00304634
-0.00525607
-0.00763336
-0.0101532
-0.0127905
-0.0155202
-0.018318
-0.0211598
-0.0240228
-0.026885
-0.0297254
-0.0325246
-0.0352641
-0.0379269
-0.0404974
-0.0429612
)
;

boundaryField
{
    movingWall
    {
        type            zeroGradient;
    }
    fixedWalls
    {
        type            zeroGradient;
    }
    frontAndBack
    {
        type            empty;
    }
    procBoundary2to3
    {
        type            processor;
        value           nonuniform List<scalar> 
45
(
-0.0590462
-0.0615009
-0.0639411
-0.0663539
-0.0687279
-0.0710531
-0.073321
-0.0755243
-0.0776567
-0.0797126
-0.0816874
-0.0835768
-0.0853769
-0.0870842
-0.0886952
-0.0902066
-0.0916153
-0.0929182
-0.0279336
-0.0277123
-0.0275635
-0.0274654
-0.0274226
-0.0274553
-0.0275813
-0.0278153
-0.0281694
-0.0286531
-0.0292731
-0.0300345
-0.0309407
-0.0319941
-0.033196
-0.0345464
-0.0360437
-0.0376844
-0.0394627
-0.0413704
-0.0433969
-0.0455294
-0.0477534
-0.0500529
-0.0524111
-0.0548113
-0.0548113
)
;
    }
    procBoundary2to5
    {
        type            processor;
        value           nonuniform List<scalar> 
29
(
-0.0925952
-0.0909849
-0.0892844
-0.087497
-0.0856268
-0.0836785
-0.0816582
-0.0795731
-0.0774318
-0.0752445
-0.0730234
-0.0707823
-0.0685371
-0.0663052
-0.0641058
-0.0619595
-0.0598874
-0.0579115
-0.0560531
-0.0543324
-0.0527665
-0.0513673
-0.050138
-0.0490704
-0.0481444
-0.0473348
-0.0466268
-0.0459851
-0.0453053
)
;
    }
}


// ************************************************************************* //
