/*--------------------------------*- C++ -*----------------------------------*\
  =========                 |
  \\      /  F ield         | OpenFOAM: The Open Source CFD Toolbox
   \\    /   O peration     | Website:  https://openfoam.org
    \\  /    A nd           | Version:  9
     \\/     M anipulation  |
\*---------------------------------------------------------------------------*/
FoamFile
{
    format      ascii;
    class       volVectorField;
    location    "2.25";
    object      U;
}
// * * * * * * * * * * * * * * * * * * * * * * * * * * * * * * * * * * * * * //

dimensions      [0 1 -1 0 0 0 0];

internalField   nonuniform List<vector> 
1250
(
(0.139687 0.279237 0)
(0.142323 0.270387 0)
(0.144694 0.261032 0)
(0.146823 0.251293 0)
(0.148736 0.241277 0)
(0.150456 0.231078 0)
(0.152009 0.220775 0)
(0.153415 0.210433 0)
(0.154694 0.200102 0)
(0.15586 0.18982 0)
(0.156925 0.179615 0)
(0.157898 0.169503 0)
(0.158784 0.159494 0)
(0.159583 0.149591 0)
(0.160296 0.139794 0)
(0.16092 0.130097 0)
(0.161448 0.120496 0)
(0.161875 0.11098 0)
(0.000244328 0.0110718 0)
(0.00180411 0.0355139 0)
(0.00521315 0.0617572 0)
(0.0100226 0.0891138 0)
(0.0159583 0.116778 0)
(0.0227559 0.14392 0)
(0.0301247 0.169787 0)
(0.0377891 0.193781 0)
(0.0455193 0.2155 0)
(0.053146 0.23474 0)
(0.060564 0.251469 0)
(0.0677242 0.265777 0)
(0.0746188 0.277822 0)
(0.0812642 0.28778 0)
(0.0876849 0.295819 0)
(0.0939023 0.302074 0)
(0.0999273 0.306652 0)
(0.105759 0.309631 0)
(0.111385 0.311073 0)
(0.116785 0.311037 0)
(0.121936 0.309585 0)
(0.126813 0.306792 0)
(0.131396 0.302746 0)
(0.13567 0.29755 0)
(0.139627 0.291322 0)
(0.143266 0.284184 0)
(0.146593 0.276267 0)
(0.149621 0.2677 0)
(0.152368 0.258608 0)
(0.154853 0.249108 0)
(0.157102 0.239308 0)
(0.159136 0.229299 0)
(0.16098 0.219165 0)
(0.162654 0.20897 0)
(0.164179 0.19877 0)
(0.165571 0.188604 0)
(0.166842 0.178504 0)
(0.168003 0.16849 0)
(0.169058 0.158575 0)
(0.170013 0.148765 0)
(0.170867 0.139062 0)
(0.171619 0.129464 0)
(0.172265 0.119965 0)
(0.172799 0.110559 0)
(0.000227194 0.0101752 0)
(0.00170408 0.0329716 0)
(0.00496343 0.057735 0)
(0.0096078 0.0838179 0)
(0.0154008 0.110456 0)
(0.0221088 0.136847 0)
(0.0294632 0.162239 0)
(0.0371995 0.18601 0)
(0.0450865 0.207708 0)
(0.0529445 0.227073 0)
(0.0606521 0.244014 0)
(0.0681429 0.25857 0)
(0.0753935 0.270864 0)
(0.0824089 0.281056 0)
(0.089207 0.289306 0)
(0.0958064 0.295758 0)
(0.102218 0.300527 0)
(0.108444 0.303702 0)
(0.114472 0.305356 0)
(0.120285 0.305553 0)
(0.125858 0.304359 0)
(0.131168 0.301846 0)
(0.13619 0.2981 0)
(0.140908 0.293218 0)
(0.145309 0.287308 0)
(0.149389 0.280489 0)
(0.153149 0.272884 0)
(0.156598 0.264615 0)
(0.159751 0.255803 0)
(0.162624 0.246562 0)
(0.16524 0.236998 0)
(0.167619 0.227203 0)
(0.169785 0.217259 0)
(0.171758 0.207236 0)
(0.173559 0.197188 0)
(0.175203 0.18716 0)
(0.176706 0.177185 0)
(0.178077 0.167288 0)
(0.179324 0.157484 0)
(0.180453 0.147783 0)
(0.181465 0.138189 0)
(0.182361 0.128701 0)
(0.183137 0.119317 0)
(0.18379 0.110031 0)
(0.000209666 0.00933282 0)
(0.00159722 0.0305582 0)
(0.00468874 0.0538815 0)
(0.0091374 0.0786941 0)
(0.0147446 0.104275 0)
(0.0213088 0.129855 0)
(0.0285874 0.154695 0)
(0.0363313 0.178156 0)
(0.0443132 0.199752 0)
(0.052347 0.219172 0)
(0.0602983 0.236268 0)
(0.0680841 0.251034 0)
(0.0756655 0.263554 0)
(0.0830349 0.273965 0)
(0.0902014 0.282419 0)
(0.0971791 0.28906 0)
(0.103978 0.294012 0)
(0.1106 0.297374 0)
(0.117036 0.299229 0)
(0.123268 0.299648 0)
(0.129274 0.2987 0)
(0.135028 0.296458 0)
(0.140505 0.293004 0)
(0.145684 0.288431 0)
(0.15055 0.282841 0)
(0.155093 0.276346 0)
(0.159312 0.26906 0)
(0.163211 0.261101 0)
(0.166799 0.252585 0)
(0.170092 0.243622 0)
(0.173107 0.234315 0)
(0.175864 0.224757 0)
(0.178385 0.215028 0)
(0.180689 0.205199 0)
(0.182796 0.195327 0)
(0.184723 0.18546 0)
(0.186484 0.175633 0)
(0.188092 0.165873 0)
(0.189555 0.1562 0)
(0.19088 0.146626 0)
(0.19207 0.137156 0)
(0.193127 0.127794 0)
(0.19405 0.118537 0)
(0.194835 0.109383 0)
(0.000191835 0.00854764 0)
(0.00148402 0.0282861 0)
(0.0043903 0.0502205 0)
(0.00861354 0.0737788 0)
(0.0139925 0.0982837 0)
(0.0203589 0.123003 0)
(0.0274991 0.147216 0)
(0.0351837 0.170283 0)
(0.0431944 0.191691 0)
(0.0513434 0.211086 0)
(0.0594861 0.228275 0)
(0.0675256 0.243201 0)
(0.0754074 0.255912 0)
(0.0831103 0.266518 0)
(0.0906331 0.27516 0)
(0.0979837 0.281979 0)
(0.105169 0.287104 0)
(0.11219 0.290642 0)
(0.119038 0.292685 0)
(0.125697 0.293312 0)
(0.132145 0.292597 0)
(0.138354 0.290613 0)
(0.144299 0.287442 0)
(0.149957 0.283172 0)
(0.155306 0.277899 0)
(0.160336 0.271728 0)
(0.165038 0.264768 0)
(0.169413 0.25713 0)
(0.173467 0.248924 0)
(0.17721 0.240257 0)
(0.180657 0.231228 0)
(0.183826 0.221928 0)
(0.186734 0.212438 0)
(0.189402 0.202828 0)
(0.191848 0.193157 0)
(0.194089 0.183475 0)
(0.196139 0.173819 0)
(0.198012 0.164219 0)
(0.199718 0.154698 0)
(0.201263 0.14527 0)
(0.202654 0.135943 0)
(0.203893 0.126723 0)
(0.204981 0.11761 0)
(0.205915 0.108603 0)
(0.000173752 0.00782257 0)
(0.00136469 0.0261672 0)
(0.00406865 0.0467752 0)
(0.00803722 0.0691075 0)
(0.0131459 0.0925296 0)
(0.0192607 0.116348 0)
(0.0261992 0.13987 0)
(0.0337559 0.16246 0)
(0.0417259 0.183591 0)
(0.0499245 0.202878 0)
(0.0582013 0.220084 0)
(0.0664472 0.23511 0)
(0.0745936 0.247966 0)
(0.0826049 0.258736 0)
(0.0904685 0.267542 0)
(0.0981839 0.274521 0)
(0.105753 0.279802 0)
(0.113175 0.283501 0)
(0.12044 0.285718 0)
(0.127533 0.286538 0)
(0.134431 0.28604 0)
(0.141107 0.284301 0)
(0.147533 0.2814 0)
(0.153684 0.277423 0)
(0.159535 0.272462 0)
(0.165071 0.266614 0)
(0.17028 0.259984 0)
(0.175158 0.252674 0)
(0.179705 0.244791 0)
(0.183929 0.236435 0)
(0.18784 0.227703 0)
(0.191452 0.218683 0)
(0.194783 0.209455 0)
(0.197848 0.200089 0)
(0.200667 0.190644 0)
(0.203254 0.181172 0)
(0.205625 0.171713 0)
(0.207794 0.162298 0)
(0.209771 0.152951 0)
(0.211564 0.143691 0)
(0.213181 0.134528 0)
(0.214625 0.125469 0)
(0.215898 0.116518 0)
(0.217 0.107672 0)
(0.000155395 0.00716048 0)
(0.00123895 0.0242132 0)
(0.00372306 0.0435685 0)
(0.00740741 0.0647158 0)
(0.0122039 0.0870607 0)
(0.0180131 0.109951 0)
(0.0246862 0.132723 0)
(0.0320449 0.154757 0)
(0.0399022 0.175522 0)
(0.0480812 0.19461 0)
(0.0564297 0.211751 0)
(0.0648296 0.226806 0)
(0.0731994 0.239751 0)
(0.0814895 0.25064 0)
(0.0896745 0.259578 0)
(0.0977439 0.266691 0)
(0.105693 0.272109 0)
(0.113516 0.275951 0)
(0.121203 0.278323 0)
(0.128737 0.279317 0)
(0.136093 0.279019 0)
(0.143246 0.277508 0)
(0.150166 0.274864 0)
(0.156824 0.271169 0)
(0.163194 0.266511 0)
(0.169255 0.260983 0)
(0.174993 0.254682 0)
(0.180397 0.247707 0)
(0.185464 0.240156 0)
(0.190196 0.232126 0)
(0.194602 0.223708 0)
(0.19869 0.214989 0)
(0.202475 0.206045 0)
(0.205972 0.196948 0)
(0.209197 0.187755 0)
(0.212164 0.17852 0)
(0.214889 0.169282 0)
(0.217385 0.160077 0)
(0.219664 0.150931 0)
(0.221734 0.141862 0)
(0.223603 0.132885 0)
(0.225277 0.124009 0)
(0.226759 0.115237 0)
(0.228051 0.106573 0)
(0.000136636 0.00656448 0)
(0.00110584 0.0224369 0)
(0.00335106 0.0406244 0)
(0.0067202 0.0606397 0)
(0.0111614 0.081925 0)
(0.0166107 0.103868 0)
(0.0229542 0.125842 0)
(0.0300439 0.147247 0)
(0.0377151 0.167556 0)
(0.0458026 0.186351 0)
(0.0541567 0.203334 0)
(0.0626537 0.218338 0)
(0.071201 0.231304 0)
(0.0797356 0.242257 0)
(0.088219 0.251284 0)
(0.0966289 0.258499 0)
(0.104952 0.264026 0)
(0.113177 0.267987 0)
(0.121289 0.270493 0)
(0.129269 0.271643 0)
(0.137094 0.271526 0)
(0.144733 0.270225 0)
(0.152158 0.26782 0)
(0.159336 0.264394 0)
(0.16624 0.26003 0)
(0.172844 0.254816 0)
(0.179129 0.248843 0)
(0.185081 0.242205 0)
(0.190692 0.234993 0)
(0.19596 0.2273 0)
(0.200888 0.219213 0)
(0.205482 0.210813 0)
(0.209754 0.202176 0)
(0.213714 0.193371 0)
(0.217378 0.184456 0)
(0.220759 0.175483 0)
(0.223871 0.166495 0)
(0.226726 0.157527 0)
(0.229338 0.148606 0)
(0.231715 0.139754 0)
(0.233866 0.130988 0)
(0.235797 0.122316 0)
(0.237513 0.113747 0)
(0.239016 0.105283 0)
(0.000117195 0.00603837 0)
(0.00096345 0.0208526 0)
(0.00294775 0.0379689 0)
(0.00596766 0.056917 0)
(0.0100083 0.0771718 0)
(0.0150417 0.098161 0)
(0.020991 0.119294 0)
(0.0277408 0.14 0)
(0.0351516 0.159767 0)
(0.0430744 0.17817 0)
(0.0513658 0.194899 0)
(0.0598998 0.20976 0)
(0.068575 0.222666 0)
(0.0773162 0.233619 0)
(0.086071 0.242681 0)
(0.0948049 0.249954 0)
(0.103494 0.255557 0)
(0.112118 0.25961 0)
(0.120659 0.262226 0)
(0.129093 0.263508 0)
(0.137393 0.263551 0)
(0.14553 0.262441 0)
(0.15347 0.260258 0)
(0.161181 0.257085 0)
(0.168632 0.253002 0)
(0.175794 0.248094 0)
(0.182643 0.242446 0)
(0.189162 0.236145 0)
(0.195339 0.229279 0)
(0.201166 0.221932 0)
(0.206642 0.214189 0)
(0.21177 0.206126 0)
(0.216557 0.197817 0)
(0.221012 0.189327 0)
(0.225146 0.180715 0)
(0.228972 0.172031 0)
(0.232503 0.163319 0)
(0.23575 0.154614 0)
(0.238726 0.145946 0)
(0.24144 0.137338 0)
(0.243902 0.128807 0)
(0.246118 0.120365 0)
(0.248094 0.112021 0)
(0.249834 0.103779 0)
(9.65693e-05 0.00558724 0)
(0.000808501 0.0194777 0)
(0.00250486 0.0356318 0)
(0.00513639 0.0535891 0)
(0.00872708 0.0728531 0)
(0.0132865 0.0928897 0)
(0.018776 0.113148 0)
(0.0251149 0.133092 0)
(0.0321919 0.152227 0)
(0.039877 0.170139 0)
(0.0480369 0.18651 0)
(0.0565463 0.201128 0)
(0.0652977 0.213885 0)
(0.0742046 0.224758 0)
(0.0832015 0.233791 0)
(0.0922404 0.241071 0)
(0.101285 0.246708 0)
(0.110307 0.250818 0)
(0.119278 0.253515 0)
(0.128171 0.254905 0)
(0.136955 0.255085 0)
(0.145599 0.254144 0)
(0.154066 0.252166 0)
(0.162321 0.24923 0)
(0.170331 0.245416 0)
(0.178063 0.240804 0)
(0.185492 0.235475 0)
(0.192595 0.22951 0)
(0.199355 0.222992 0)
(0.205761 0.216 0)
(0.211807 0.208612 0)
(0.217493 0.200902 0)
(0.222821 0.192939 0)
(0.227798 0.184786 0)
(0.232432 0.1765 0)
(0.236734 0.168131 0)
(0.240714 0.159721 0)
(0.244383 0.151308 0)
(0.247754 0.14292 0)
(0.250835 0.134582 0)
(0.253637 0.126314 0)
(0.256166 0.118127 0)
(0.258429 0.110034 0)
(0.260431 0.102039 0)
(7.392e-05 0.00521824 0)
(0.000635837 0.018335 0)
(0.00200957 0.0336494 0)
(0.00420572 0.0507032 0)
(0.00729088 0.0690247 0)
(0.0113144 0.0881175 0)
(0.0162773 0.107473 0)
(0.0221352 0.126592 0)
(0.0288066 0.14501 0)
(0.0361834 0.162329 0)
(0.0441445 0.178231 0)
(0.0525686 0.192499 0)
(0.0613441 0.205006 0)
(0.0703749 0.215711 0)
(0.0795828 0.22464 0)
(0.0889058 0.231865 0)
(0.0982947 0.237486 0)
(0.107709 0.241612 0)
(0.117112 0.244356 0)
(0.12647 0.245826 0)
(0.135747 0.246119 0)
(0.144906 0.245327 0)
(0.153909 0.243533 0)
(0.162719 0.240818 0)
(0.171299 0.237258 0)
(0.179614 0.232932 0)
(0.187634 0.227915 0)
(0.195334 0.222284 0)
(0.202692 0.216114 0)
(0.209694 0.209482 0)
(0.216329 0.202459 0)
(0.222593 0.195116 0)
(0.228485 0.187516 0)
(0.234008 0.17972 0)
(0.239167 0.171783 0)
(0.24397 0.163754 0)
(0.248427 0.155673 0)
(0.252547 0.147578 0)
(0.256341 0.139498 0)
(0.259818 0.131459 0)
(0.262987 0.12348 0)
(0.265857 0.115576 0)
(0.268433 0.107759 0)
(0.270723 0.100036 0)
(4.79224e-05 0.00494172 0)
(0.000437663 0.0174547 0)
(0.00144287 0.0320671 0)
(0.00314527 0.0483147 0)
(0.00566041 0.0657484 0)
(0.00908061 0.0839101 0)
(0.0134484 0.102336 0)
(0.0187567 0.120571 0)
(0.0249543 0.138187 0)
(0.0319563 0.154807 0)
(0.0396559 0.170127 0)
(0.0479374 0.183928 0)
(0.0566872 0.196076 0)
(0.0658012 0.206515 0)
(0.075189 0.215255 0)
(0.0847747 0.222354 0)
(0.0944951 0.227899 0)
(0.104297 0.231995 0)
(0.114133 0.234748 0)
(0.12396 0.236266 0)
(0.133736 0.236645 0)
(0.14342 0.235978 0)
(0.152969 0.234349 0)
(0.162343 0.231838 0)
(0.171502 0.228519 0)
(0.18041 0.224467 0)
(0.189031 0.219755 0)
(0.197338 0.214453 0)
(0.205307 0.208633 0)
(0.212917 0.202364 0)
(0.220155 0.195715 0)
(0.227013 0.188749 0)
(0.233486 0.181528 0)
(0.239574 0.174108 0)
(0.245279 0.166541 0)
(0.250607 0.158874 0)
(0.255565 0.151148 0)
(0.260161 0.143397 0)
(0.264403 0.135653 0)
(0.268302 0.12794 0)
(0.271865 0.120279 0)
(0.2751 0.112685 0)
(0.278015 0.105171 0)
(0.280616 0.0977459 0)
(1.66546e-05 0.00477284 0)
(0.00020264 0.0168787 0)
(0.00077744 0.0309436 0)
(0.00191202 0.046491 0)
(0.00378063 0.0630944 0)
(0.00652313 0.0803378 0)
(0.0102253 0.0978075 0)
(0.0149172 0.115097 0)
(0.0205782 0.13182 0)
(0.0271458 0.147634 0)
(0.0345283 0.162254 0)
(0.0426167 0.175468 0)
(0.0512965 0.18714 0)
(0.0604567 0.197205 0)
(0.0699956 0.205662 0)
(0.0798236 0.212554 0)
(0.0898629 0.217958 0)
(0.100046 0.221968 0)
(0.110315 0.224688 0)
(0.120616 0.226218 0)
(0.130898 0.226655 0)
(0.141114 0.22609 0)
(0.151218 0.224606 0)
(0.161164 0.222282 0)
(0.170911 0.21919 0)
(0.180418 0.215402 0)
(0.189649 0.210986 0)
(0.198571 0.206009 0)
(0.207157 0.200537 0)
(0.215384 0.194635 0)
(0.223236 0.188365 0)
(0.230699 0.181787 0)
(0.237766 0.174958 0)
(0.244433 0.167931 0)
(0.250701 0.160754 0)
(0.256571 0.153472 0)
(0.262049 0.146123 0)
(0.26714 0.138743 0)
(0.271853 0.131361 0)
(0.276195 0.124001 0)
(0.280175 0.116685 0)
(0.283799 0.109429 0)
(0.287076 0.102246 0)
(0.290011 0.0951458 0)
(-2.2523e-05 0.00473504 0)
(-8.55628e-05 0.0166651 0)
(-2.54175e-05 0.0303559 0)
(0.000446668 0.0453147 0)
(0.00157695 0.0611435 0)
(0.00355875 0.0774756 0)
(0.00652269 0.0939547 0)
(0.0105352 0.110231 0)
(0.0156039 0.125969 0)
(0.0216875 0.140865 0)
(0.0287079 0.154662 0)
(0.0365627 0.167162 0)
(0.0451369 0.178235 0)
(0.0543134 0.187813 0)
(0.0639796 0.195883 0)
(0.0740325 0.202481 0)
(0.0843797 0.20767 0)
(0.0949399 0.211536 0)
(0.105641 0.214174 0)
(0.116418 0.215678 0)
(0.127212 0.216142 0)
(0.137968 0.215654 0)
(0.148633 0.214296 0)
(0.15916 0.212142 0)
(0.1695 0.209264 0)
(0.179613 0.205729 0)
(0.189457 0.201602 0)
(0.198998 0.196945 0)
(0.208206 0.191821 0)
(0.217055 0.186287 0)
(0.225525 0.180402 0)
(0.2336 0.174221 0)
(0.241269 0.167796 0)
(0.248525 0.161176 0)
(0.255366 0.154407 0)
(0.26179 0.14753 0)
(0.267802 0.140582 0)
(0.273405 0.133596 0)
(0.278605 0.126602 0)
(0.283408 0.119622 0)
(0.287823 0.112678 0)
(0.291855 0.105787 0)
(0.295513 0.0989626 0)
(0.298802 0.0922142 0)
(-7.49929e-05 0.00486115 0)
(-0.000451937 0.0168926 0)
(-0.00101977 0.0304052 0)
(-0.00133072 0.0448897 0)
(-0.00104869 0.0599903 0)
(7.9534e-05 0.0754043 0)
(0.002231 0.0908455 0)
(0.00550632 0.10603 0)
(0.00993743 0.120681 0)
(0.0155005 0.134541 0)
(0.0221282 0.147386 0)
(0.0297228 0.159043 0)
(0.0381685 0.169389 0)
(0.0473416 0.17836 0)
(0.0571193 0.185938 0)
(0.0673853 0.192148 0)
(0.0780329 0.197044 0)
(0.0889662 0.200701 0)
(0.100099 0.203204 0)
(0.111356 0.204642 0)
(0.122666 0.205101 0)
(0.133967 0.204665 0)
(0.1452 0.203411 0)
(0.156311 0.201412 0)
(0.167251 0.198735 0)
(0.177971 0.195444 0)
(0.188432 0.191599 0)
(0.198594 0.18726 0)
(0.208424 0.182481 0)
(0.217896 0.177318 0)
(0.226984 0.171823 0)
(0.235672 0.166046 0)
(0.243945 0.160036 0)
(0.251794 0.153837 0)
(0.259212 0.147492 0)
(0.266198 0.141039 0)
(0.272751 0.134512 0)
(0.278875 0.127944 0)
(0.284573 0.121361 0)
(0.289851 0.114787 0)
(0.294714 0.108242 0)
(0.299169 0.101742 0)
(0.303223 0.0953025 0)
(0.306882 0.088933 0)
(-0.000147693 0.00519871 0)
(-0.000929009 0.0176711 0)
(-0.00227657 0.031225 0)
(-0.00352558 0.0453452 0)
(-0.00422421 0.0597448 0)
(-0.00405188 0.0742106 0)
(-0.00278615 0.0885447 0)
(-0.000297573 0.102542 0)
(0.00346435 0.115991 0)
(0.0084872 0.128687 0)
(0.0147097 0.140448 0)
(0.0220358 0.151126 0)
(0.0303464 0.160617 0)
(0.0395104 0.16886 0)
(0.0493947 0.175835 0)
(0.0598701 0.181562 0)
(0.070816 0.186083 0)
(0.082122 0.189464 0)
(0.0936887 0.191778 0)
(0.105427 0.193106 0)
(0.117257 0.193526 0)
(0.129107 0.193116 0)
(0.140911 0.191948 0)
(0.15261 0.190089 0)
(0.164149 0.187602 0)
(0.175479 0.184546 0)
(0.186554 0.180979 0)
(0.197335 0.176953 0)
(0.207785 0.172519 0)
(0.217875 0.167728 0)
(0.227579 0.162627 0)
(0.236876 0.157262 0)
(0.24575 0.151677 0)
(0.254189 0.145912 0)
(0.262184 0.140005 0)
(0.269732 0.133993 0)
(0.276829 0.127908 0)
(0.283477 0.121778 0)
(0.289679 0.115629 0)
(0.295437 0.109484 0)
(0.300757 0.103363 0)
(0.305645 0.0972807 0)
(0.310106 0.0912521 0)
(0.314148 0.0852876 0)
(-0.000250965 0.00581819 0)
(-0.00156387 0.019152 0)
(-0.00389329 0.0329881 0)
(-0.00627515 0.0468383 0)
(-0.00810998 0.0605325 0)
(-0.00900413 0.073985 0)
(-0.00869385 0.0871111 0)
(-0.00702878 0.0997994 0)
(-0.00394943 0.111914 0)
(0.000534872 0.12331 0)
(0.00636192 0.133849 0)
(0.0134327 0.143412 0)
(0.0216219 0.151917 0)
(0.0307884 0.15931 0)
(0.0407886 0.165575 0)
(0.0514806 0.170721 0)
(0.0627302 0.174786 0)
(0.074413 0.177822 0)
(0.0864167 0.179893 0)
(0.09864 0.181068 0)
(0.110992 0.181416 0)
(0.123393 0.181007 0)
(0.13577 0.179904 0)
(0.148056 0.178171 0)
(0.160193 0.175864 0)
(0.172129 0.173038 0)
(0.183814 0.169743 0)
(0.195207 0.166028 0)
(0.20627 0.161941 0)
(0.216971 0.157524 0)
(0.227281 0.152823 0)
(0.237179 0.147876 0)
(0.246645 0.142725 0)
(0.255667 0.137404 0)
(0.264233 0.131951 0)
(0.272337 0.126396 0)
(0.279974 0.120769 0)
(0.287145 0.115097 0)
(0.293849 0.109403 0)
(0.300089 0.10371 0)
(0.30587 0.0980355 0)
(0.311195 0.092395 0)
(0.31607 0.0868021 0)
(0.320502 0.0812674 0)
(-0.000400751 0.00682089 0)
(-0.0024232 0.0215407 0)
(-0.00600052 0.0359177 0)
(-0.00975563 0.0495607 0)
(-0.0129046 0.0624947 0)
(-0.0149794 0.074818 0)
(-0.0156845 0.086593 0)
(-0.0148614 0.09782 0)
(-0.0124539 0.108447 0)
(-0.00847985 0.118391 0)
(-0.00301308 0.127562 0)
(0.003841 0.135875 0)
(0.0119464 0.143266 0)
(0.021147 0.149693 0)
(0.0312889 0.15514 0)
(0.0422175 0.159615 0)
(0.0537854 0.163145 0)
(0.0658555 0.165771 0)
(0.0783029 0.167546 0)
(0.0910151 0.168525 0)
(0.103892 0.168769 0)
(0.116843 0.168335 0)
(0.129789 0.167282 0)
(0.142659 0.165662 0)
(0.15539 0.163526 0)
(0.167924 0.160924 0)
(0.180211 0.157899 0)
(0.192206 0.154496 0)
(0.20387 0.150755 0)
(0.215168 0.146717 0)
(0.226073 0.142419 0)
(0.236558 0.137899 0)
(0.246604 0.13319 0)
(0.256195 0.128325 0)
(0.26532 0.123337 0)
(0.273969 0.118253 0)
(0.282138 0.113101 0)
(0.289823 0.107905 0)
(0.297025 0.102686 0)
(0.303744 0.097465 0)
(0.309984 0.0922585 0)
(0.315748 0.0870815 0)
(0.32104 0.0819469 0)
(0.325868 0.0768651 0)
(-0.000621803 0.00835309 0)
(-0.0036016 0.0251142 0)
(-0.00877203 0.0402965 0)
(-0.0141898 0.053738 0)
(-0.0188476 0.0657832 0)
(-0.0222114 0.0767938 0)
(-0.0239722 0.0870211 0)
(-0.0239823 0.0965956 0)
(-0.0222063 0.105556 0)
(-0.0186836 0.113885 0)
(-0.0135069 0.121538 0)
(-0.0068025 0.128465 0)
(0.00127808 0.134618 0)
(0.0105672 0.139969 0)
(0.0208952 0.144502 0)
(0.0320948 0.148221 0)
(0.0440063 0.151143 0)
(0.0564808 0.1533 0)
(0.0693826 0.154728 0)
(0.0825889 0.155474 0)
(0.0959905 0.155584 0)
(0.10949 0.155105 0)
(0.123001 0.154084 0)
(0.136447 0.152567 0)
(0.149761 0.150597 0)
(0.162882 0.148215 0)
(0.175758 0.145459 0)
(0.188341 0.142368 0)
(0.20059 0.138977 0)
(0.21247 0.135321 0)
(0.223951 0.131433 0)
(0.235006 0.127345 0)
(0.245615 0.123087 0)
(0.25576 0.118689 0)
(0.265428 0.114177 0)
(0.27461 0.109578 0)
(0.283298 0.104915 0)
(0.291489 0.10021 0)
(0.299182 0.0954831 0)
(0.306376 0.090752 0)
(0.313074 0.0860326 0)
(0.319279 0.0813386 0)
(0.324995 0.0766821 0)
(0.330228 0.072073 0)
(-0.000953332 0.0106273 0)
(-0.0052348 0.0302439 0)
(-0.0124382 0.0464753 0)
(-0.0198534 0.0596261 0)
(-0.0262165 0.0705502 0)
(-0.0309542 0.079978 0)
(-0.033775 0.088397 0)
(-0.0345695 0.0960851 0)
(-0.0333437 0.103175 0)
(-0.0301747 0.109712 0)
(-0.0251865 0.115694 0)
(-0.0185329 0.121101 0)
(-0.0103876 0.125904 0)
(-0.000934358 0.130078 0)
(0.00964222 0.133612 0)
(0.0211617 0.136501 0)
(0.0334527 0.138755 0)
(0.0463563 0.14039 0)
(0.0597274 0.141432 0)
(0.0734351 0.141912 0)
(0.0873626 0.141863 0)
(0.101406 0.14132 0)
(0.115474 0.14032 0)
(0.129486 0.138898 0)
(0.14337 0.137088 0)
(0.157064 0.134924 0)
(0.170511 0.132439 0)
(0.183665 0.129662 0)
(0.196482 0.126624 0)
(0.208926 0.123355 0)
(0.220966 0.119882 0)
(0.232574 0.116234 0)
(0.24373 0.112435 0)
(0.254415 0.108511 0)
(0.264614 0.104486 0)
(0.274318 0.100383 0)
(0.28352 0.0962207 0)
(0.292213 0.0920202 0)
(0.300397 0.0877987 0)
(0.30807 0.0835721 0)
(0.315236 0.0793546 0)
(0.321896 0.0751589 0)
(0.328055 0.0709959 0)
(0.333719 0.066875 0)
(-0.00145943 0.0139553 0)
(-0.00752068 0.0374232 0)
(-0.0173028 0.0548745 0)
(-0.027076 0.0674948 0)
(-0.035309 0.076925 0)
(-0.041447 0.0843949 0)
(-0.0452665 0.0906749 0)
(-0.046732 0.0961996 0)
(-0.0459165 0.101192 0)
(-0.0429523 0.105752 0)
(-0.038007 0.109914 0)
(-0.0312693 0.113678 0)
(-0.0229393 0.117027 0)
(-0.0132208 0.119942 0)
(-0.00231389 0.122406 0)
(0.00958911 0.124408 0)
(0.0223071 0.125945 0)
(0.0356726 0.12702 0)
(0.0495338 0.127645 0)
(0.0637537 0.127834 0)
(0.0782103 0.127607 0)
(0.0927955 0.126988 0)
(0.107414 0.126 0)
(0.121981 0.124667 0)
(0.136424 0.123015 0)
(0.150677 0.12107 0)
(0.164684 0.118854 0)
(0.178396 0.116394 0)
(0.191769 0.113713 0)
(0.204766 0.110835 0)
(0.217356 0.107782 0)
(0.229511 0.104578 0)
(0.24121 0.101245 0)
(0.252434 0.097802 0)
(0.263169 0.0942707 0)
(0.273404 0.0906699 0)
(0.283131 0.0870173 0)
(0.292346 0.0833297 0)
(0.301045 0.0796224 0)
(0.309229 0.0759093 0)
(0.3169 0.072203 0)
(0.32406 0.0685148 0)
(0.330714 0.0648544 0)
(0.336868 0.0612304 0)
(-0.00224914 0.018802 0)
(-0.0107543 0.0472987 0)
(-0.0237605 0.065971 0)
(-0.0362221 0.0775872 0)
(-0.0463831 0.0849665 0)
(-0.0538177 0.0899836 0)
(-0.0584452 0.0937242 0)
(-0.06035 0.0967732 0)
(-0.0597013 0.0994277 0)
(-0.0567051 0.101828 0)
(-0.0515841 0.104031 0)
(-0.0445677 0.106047 0)
(-0.0358856 0.107863 0)
(-0.025762 0.109457 0)
(-0.0144117 0.110803 0)
(-0.00203667 0.11188 0)
(0.0111753 0.112669 0)
(0.0250521 0.113159 0)
(0.0394378 0.113346 0)
(0.0541928 0.11323 0)
(0.0691927 0.112815 0)
(0.0843274 0.112111 0)
(0.0994998 0.111129 0)
(0.114625 0.109883 0)
(0.129627 0.108387 0)
(0.144442 0.106659 0)
(0.159013 0.104714 0)
(0.173289 0.102572 0)
(0.187227 0.100248 0)
(0.200791 0.0977621 0)
(0.21395 0.0951313 0)
(0.226676 0.0923734 0)
(0.238947 0.089506 0)
(0.250745 0.0865461 0)
(0.262056 0.0835101 0)
(0.27287 0.0804139 0)
(0.283179 0.0772722 0)
(0.292978 0.0740991 0)
(0.302264 0.0709076 0)
(0.311038 0.0677096 0)
(0.319301 0.0645159 0)
(0.327057 0.0613362 0)
(0.33431 0.0581791 0)
(0.341067 0.0550521 0)
(-0.00351695 0.0258791 0)
(-0.0153883 0.0607005 0)
(-0.032309 0.080238 0)
(-0.0476155 0.090019 0)
(-0.0594889 0.0945567 0)
(-0.0678257 0.0964991 0)
(-0.0727938 0.0972416 0)
(-0.0746549 0.0974858 0)
(-0.073708 0.0975713 0)
(-0.0702518 0.0976531 0)
(-0.0645745 0.0977897 0)
(-0.0569501 0.0979877 0)
(-0.0476371 0.0982257 0)
(-0.0368773 0.0984694 0)
(-0.024895 0.0986797 0)
(-0.0118969 0.0988187 0)
(0.00192845 0.0988523 0)
(0.0164097 0.0987524 0)
(0.0313927 0.0984974 0)
(0.0467396 0.0980717 0)
(0.0623282 0.0974653 0)
(0.0780502 0.0966731 0)
(0.09381 0.0956942 0)
(0.109524 0.094531 0)
(0.125119 0.0931888 0)
(0.14053 0.0916748 0)
(0.155701 0.0899982 0)
(0.170584 0.0881694 0)
(0.185137 0.0861997 0)
(0.199323 0.0841014 0)
(0.213111 0.0818873 0)
(0.226476 0.0795703 0)
(0.239397 0.0771637 0)
(0.251854 0.0746804 0)
(0.263835 0.0721334 0)
(0.275329 0.0695352 0)
(0.286328 0.0668977 0)
(0.296829 0.0642323 0)
(0.306827 0.0615497 0)
(0.316324 0.0588596 0)
(0.325321 0.0561712 0)
(0.33382 0.0534926 0)
(0.341828 0.0508312 0)
(0.349349 0.0481934 0)
(-0.005628 0.0363245 0)
(-0.0221408 0.0786443 0)
(-0.0435186 0.0979669 0)
(-0.0612946 0.104536 0)
(-0.0740048 0.105155 0)
(-0.0821912 0.103279 0)
(-0.0864132 0.100534 0)
(-0.0871838 0.0976652 0)
(-0.0849734 0.095 0)
(-0.0801957 0.0926688 0)
(-0.0732119 0.0907033 0)
(-0.0643392 0.0890841 0)
(-0.0538578 0.0877659 0)
(-0.042017 0.0866915 0)
(-0.0290393 0.0858008 0)
(-0.015124 0.0850356 0)
(-0.000449588 0.084343 0)
(0.014824 0.083677 0)
(0.0305539 0.0829989 0)
(0.0466126 0.0822775 0)
(0.0628872 0.0814882 0)
(0.0792776 0.080613 0)
(0.0956951 0.0796389 0)
(0.112062 0.0785577 0)
(0.128309 0.0773649 0)
(0.144376 0.0760595 0)
(0.160211 0.0746428 0)
(0.175767 0.0731185 0)
(0.191004 0.0714919 0)
(0.205889 0.0697697 0)
(0.22039 0.0679597 0)
(0.234484 0.0660703 0)
(0.24815 0.0641105 0)
(0.261369 0.0620897 0)
(0.274129 0.0600173 0)
(0.286418 0.0579027 0)
(0.298229 0.0557551 0)
(0.309557 0.0535832 0)
(0.320398 0.0513955 0)
(0.330752 0.0491999 0)
(0.340619 0.0470037 0)
(0.350003 0.0448136 0)
(0.358905 0.0426357 0)
(0.367334 0.0404755 0)
(-0.00930816 0.0520918 0)
(-0.03219 0.102222 0)
(-0.0578126 0.118802 0)
(-0.0762178 0.11997 0)
(-0.0873164 0.115264 0)
(-0.09282 0.108741 0)
(-0.0938707 0.102059 0)
(-0.0913295 0.0958769 0)
(-0.0858876 0.0904253 0)
(-0.0780876 0.085748 0)
(-0.0683561 0.0818055 0)
(-0.0570333 0.0785217 0)
(-0.044396 0.0758063 0)
(-0.0306739 0.0735669 0)
(-0.0160616 0.0717144 0)
(-0.000726352 0.0701667 0)
(0.0151859 0.0688507 0)
(0.0315463 0.0677026 0)
(0.0482405 0.0666681 0)
(0.0651667 0.0657022 0)
(0.0822341 0.064768 0)
(0.0993613 0.0638359 0)
(0.116476 0.0628831 0)
(0.133513 0.0618922 0)
(0.150414 0.0608508 0)
(0.167128 0.0597504 0)
(0.18361 0.058586 0)
(0.199819 0.0573551 0)
(0.215718 0.0560579 0)
(0.231278 0.0546962 0)
(0.246469 0.0532732 0)
(0.26127 0.0517935 0)
(0.275659 0.0502622 0)
(0.289619 0.0486854 0)
(0.303138 0.0470693 0)
(0.316203 0.0454205 0)
(0.328807 0.0437456 0)
(0.340942 0.0420511 0)
(0.352604 0.0403432 0)
(0.363791 0.0386281 0)
(0.374503 0.0369114 0)
(0.38474 0.0351984 0)
(0.394504 0.0334941 0)
(0.4038 0.0318028 0)
(-0.0160625 0.0766795 0)
(-0.0474031 0.131958 0)
(-0.07421 0.140569 0)
(-0.0873605 0.132993 0)
(-0.0907464 0.121244 0)
(-0.0879996 0.109348 0)
(-0.0810117 0.0985843 0)
(-0.0710336 0.0892798 0)
(-0.0589451 0.081415 0)
(-0.0453462 0.0748482 0)
(-0.0306432 0.0694065 0)
(-0.0151164 0.0649207 0)
(0.00103608 0.0612354 0)
(0.017669 0.0582123 0)
(0.0346713 0.0557297 0)
(0.0519547 0.0536823 0)
(0.0694453 0.0519791 0)
(0.0870791 0.050543 0)
(0.104798 0.0493088 0)
(0.12255 0.0482224 0)
(0.140286 0.0472391 0)
(0.157959 0.0463225 0)
(0.175526 0.0454437 0)
(0.192947 0.0445799 0)
(0.210184 0.0437133 0)
(0.2272 0.042831 0)
(0.243964 0.0419235 0)
(0.260444 0.0409844 0)
(0.276613 0.04001 0)
(0.292445 0.0389987 0)
(0.307916 0.0379502 0)
(0.323007 0.0368661 0)
(0.337699 0.0357485 0)
(0.351977 0.0346007 0)
(0.365826 0.0334264 0)
(0.379235 0.0322296 0)
(0.392195 0.0310147 0)
(0.404698 0.0297862 0)
(0.416739 0.0285483 0)
(0.428315 0.0273055 0)
(0.439423 0.0260618 0)
(0.450062 0.0248212 0)
(0.460233 0.0235873 0)
(0.469939 0.0223635 0)
(-0.0287426 0.116122 0)
(-0.0688657 0.164071 0)
(-0.0822113 0.153955 0)
(-0.073652 0.13339 0)
(-0.0564407 0.113871 0)
(-0.035707 0.0973132 0)
(-0.0134245 0.0837496 0)
(0.00930112 0.0727932 0)
(0.0318489 0.0639678 0)
(0.0539215 0.0568484 0)
(0.0754073 0.0510962 0)
(0.0962909 0.0464445 0)
(0.116604 0.0426805 0)
(0.1364 0.0396315 0)
(0.155737 0.0371568 0)
(0.174671 0.0351413 0)
(0.193252 0.0334902 0)
(0.211519 0.0321255 0)
(0.229501 0.0309828 0)
(0.24722 0.0300092 0)
(0.264688 0.0291617 0)
(0.28191 0.0284052 0)
(0.298884 0.0277117 0)
(0.315605 0.0270587 0)
(0.332062 0.0264289 0)
(0.348243 0.0258088 0)
(0.364134 0.0251883 0)
(0.379717 0.0245602 0)
(0.394977 0.0239193 0)
(0.409897 0.0232626 0)
(0.424462 0.0225884 0)
(0.438655 0.0218963 0)
(0.452462 0.0211868 0)
(0.465871 0.0204611 0)
(0.478869 0.0197211 0)
(0.491447 0.018969 0)
(0.503595 0.0182073 0)
(0.515307 0.0174386 0)
(0.526577 0.0166656 0)
(0.537402 0.015891 0)
(0.547778 0.0151174 0)
(0.557705 0.0143472 0)
(0.567183 0.0135829 0)
(0.576215 0.0128266 0)
(-0.049811 0.200976 0)
(-0.0661006 0.178557 0)
(-0.0111134 0.128385 0)
(0.0464696 0.0993086 0)
(0.0975404 0.0790186 0)
(0.142762 0.0633605 0)
(0.182891 0.0514147 0)
(0.218492 0.0424391 0)
(0.250164 0.0356468 0)
(0.278529 0.0304244 0)
(0.304151 0.0263592 0)
(0.327508 0.0231715 0)
(0.348998 0.0206597 0)
(0.368951 0.0186719 0)
(0.387642 0.0170922 0)
(0.405297 0.0158306 0)
(0.422098 0.0148171 0)
(0.43819 0.013996 0)
(0.453691 0.0133232 0)
(0.468689 0.0127632 0)
(0.483254 0.012288 0)
(0.497434 0.011875 0)
(0.511267 0.0115066 0)
(0.524778 0.0111688 0)
(0.53798 0.0108507 0)
(0.550882 0.0105441 0)
(0.563487 0.0102428 0)
(0.575791 0.00994219 0)
(0.587791 0.00963918 0)
(0.599479 0.00933169 0)
(0.610847 0.00901854 0)
(0.621886 0.00869924 0)
(0.632588 0.00837386 0)
(0.642944 0.00804289 0)
(0.652946 0.0077071 0)
(0.662587 0.00736753 0)
(0.671861 0.00702531 0)
(0.680765 0.0066817 0)
(0.689294 0.00633795 0)
(0.697448 0.00599534 0)
(0.705223 0.00565507 0)
(0.712623 0.0053183 0)
(0.719647 0.00498609 0)
(0.726301 0.00465937 0)
(0.22982 0.140329 0)
(0.278784 0.11355 0)
(0.394433 0.0763485 0)
(0.484378 0.0533716 0)
(0.546272 0.0387115 0)
(0.591671 0.0284338 0)
(0.627084 0.0210775 0)
(0.655446 0.0158571 0)
(0.678513 0.0121527 0)
(0.697611 0.00949704 0)
(0.713731 0.00757087 0)
(0.727592 0.00616087 0)
(0.739719 0.00512107 0)
(0.750502 0.004349 0)
(0.760238 0.00377178 0)
(0.769155 0.00333712 0)
(0.777425 0.00300714 0)
(0.78518 0.00275408 0)
(0.79252 0.00255741 0)
(0.799521 0.00240183 0)
(0.806238 0.00227589 0)
(0.812713 0.00217101 0)
(0.818974 0.00208076 0)
(0.825041 0.00200034 0)
(0.830927 0.0019262 0)
(0.83664 0.00185575 0)
(0.842184 0.00178712 0)
(0.847559 0.00171903 0)
(0.852765 0.00165063 0)
(0.8578 0.00158139 0)
(0.862659 0.00151107 0)
(0.867339 0.00143961 0)
(0.871838 0.00136708 0)
(0.876153 0.00129369 0)
(0.880279 0.00121968 0)
(0.884217 0.00114538 0)
(0.887963 0.00107111 0)
(0.891518 0.000997218 0)
(0.894882 0.000924037 0)
(0.898055 0.000851897 0)
(0.901039 0.000781088 0)
(0.903837 0.000711889 0)
(0.906451 0.000644537 0)
(0.908885 0.000579205 0)
)
;

boundaryField
{
    movingWall
    {
        type            fixedValue;
        value           uniform (1 0 0);
    }
    fixedWalls
    {
        type            noSlip;
    }
    frontAndBack
    {
        type            empty;
    }
    procBoundary2to3
    {
        type            processor;
        value           nonuniform List<vector> 
45
(
(0.132471 0.281822 0)
(0.134744 0.272704 0)
(0.136769 0.263105 0)
(0.138572 0.253147 0)
(0.14018 0.242938 0)
(0.141617 0.23257 0)
(0.142907 0.222121 0)
(0.144073 0.211652 0)
(0.145131 0.201212 0)
(0.146096 0.190834 0)
(0.146978 0.180541 0)
(0.147785 0.170347 0)
(0.148518 0.160259 0)
(0.149179 0.150277 0)
(0.149766 0.140398 0)
(0.150273 0.130614 0)
(0.150695 0.120919 0)
(0.151024 0.111304 0)
(0.000260962 0.0120191 0)