/*--------------------------------*- C++ -*----------------------------------*\
  =========                 |
  \\      /  F ield         | OpenFOAM: The Open Source CFD Toolbox
   \\    /   O peration     | Website:  https://openfoam.org
    \\  /    A nd           | Version:  9
     \\/     M anipulation  |
\*---------------------------------------------------------------------------*/
FoamFile
{
    format      ascii;
    class       volScalarField;
    location    "1.25";
    object      p;
}
// * * * * * * * * * * * * * * * * * * * * * * * * * * * * * * * * * * * * * //

dimensions      [0 2 -2 0 0 0 0];

internalField   nonuniform List<scalar> 
1240
(
0.00106466
0.00103353
0.000985769
0.000921552
0.000841368
0.00074598
0.000636522
0.000514315
0.000380943
0.000238168
8.78884e-05
-6.79198e-05
-0.000227253
-0.000388136
-0.000548661
-0.000707041
-0.00086164
-0.001011
-0.00115384
-0.00128912
-0.00141596
-0.00153371
-0.00164186
-0.00174011
-0.00182824
-0.00190616
-0.00197386
-0.00203137
-0.00207875
-0.00211607
-0.00214342
-0.00216098
-0.00216903
-0.00216816
-0.00215955
-0.00214544
-0.00212922
-0.00211652
0.000983272
0.000950787
0.000902636
0.000839014
0.00076041
0.000667579
0.000561553
0.000443629
0.000315296
0.000178218
3.41855e-05
-0.000114946
-0.000267295
-0.00042101
-0.000574309
-0.00072552
-0.000873115
-0.00101573
-0.00115218
-0.00128148
-0.00140281
-0.00151555
-0.00161925
-0.00171359
-0.00179839
-0.00187358
-0.00193914
-0.00199514
-0.00204169
-0.00207893
-0.00210705
-0.00212634
-0.0021372
-0.00214029
-0.00213668
-0.0021281
-0.00211658
-0.00210383
0.000931585
0.000898181
0.000849572
0.00078599
0.000707925
0.000616131
0.000511628
0.00039568
0.000269762
0.000135503
-5.34862e-06
-0.000150982
-0.000299566
-0.000449305
-0.000598475
-0.000745465
-0.000888807
-0.0010272
-0.00115951
-0.00128481
-0.00140234
-0.00151152
-0.00161193
-0.0017033
-0.00178548
-0.00185843
-0.00192218
-0.00197682
-0.0020225
-0.0020594
-0.00208776
-0.00210787
-0.00212011
-0.00212503
-0.00212347
-0.00211667
-0.00210512
-0.00208754
0.000893198
0.000859139
0.000810056
0.000746215
0.000668122
0.00057653
0.000472469
0.00035721
0.000232229
9.91665e-05
-4.02269e-05
-0.000184145
-0.000330763
-0.000478298
-0.000625046
-0.000769423
-0.000909993
-0.00104549
-0.00117484
-0.00129714
-0.00141169
-0.00151797
-0.00161559
-0.00170435
-0.00178415
-0.00185498
-0.00191693
-0.00197014
-0.00201478
-0.00205108
-0.00207925
-0.00209958
-0.00211237
-0.00211797
-0.00211696
-0.00211015
-0.00209677
-0.00207342
0.000859464
0.000825033
0.000775587
0.000711426
0.000633067
0.00054127
0.000437079
0.000321789
0.000196906
6.40754e-05
-7.48912e-05
-0.000218178
-0.000363938
-0.000510369
-0.000655762
-0.000798534
-0.000937261
-0.0010707
-0.0011978
-0.00131772
-0.00142979
-0.00153353
-0.00162864
-0.00171496
-0.00179245
-0.00186116
-0.00192124
-0.00197287
-0.00201628
-0.00205169
-0.00207934
-0.00209947
-0.00211228
-0.00211795
-0.00211681
-0.00210934
-0.0020938
-0.00206517
0.000827092
0.000792738
0.000743249
0.000678945
0.000600343
0.000508204
0.00040359
0.000287826
0.000162452
2.91772e-05
-0.000110168
-0.000253698
-0.000399522
-0.000545797
-0.000690779
-0.000832864
-0.000970619
-0.0011028
-0.00122839
-0.00134654
-0.00145665
-0.0015583
-0.00165122
-0.00173533
-0.00181064
-0.00187729
-0.00193547
-0.00198543
-0.00202744
-0.00206174
-0.00208857
-0.00210814
-0.00212056
-0.00212588
-0.00212422
-0.00211582
-0.00209826
-0.00206536
0.000791714
0.000758119
0.000709198
0.000645257
0.000566783
0.00047453
0.000369572
0.00025326
0.000127179
-6.90457e-06
-0.0001471
-0.000291453
-0.000438007
-0.000584848
-0.000730177
-0.000872344
-0.00100988
-0.00114154
-0.00126627
-0.00138328
-0.00149197
-0.00159196
-0.00168305
-0.00176522
-0.00183856
-0.00190325
-0.00195957
-0.00200782
-0.00204832
-0.00208134
-0.00210715
-0.0021259
-0.00213767
-0.0021424
-0.00214004
-0.00213068
-0.00211147
-0.00207544
0.000747566
0.000715821
0.000668514
0.000605897
0.000528394
0.000436737
0.000331994
0.00021554
8.89968e-05
-4.5812e-05
-0.000186926
-0.000332307
-0.000479914
-0.000627753
-0.000773938
-0.00091675
-0.00105467
-0.00118639
-0.00131087
-0.00142728
-0.00153506
-0.00163385
-0.00172351
-0.00180406
-0.00187565
-0.00193856
-0.00199312
-0.00203969
-0.00207866
-0.00211033
-0.00213499
-0.0021528
-0.00216379
-0.00216782
-0.00216478
-0.00215461
-0.00213421
-0.00209616
0.000698205
0.000700317
0.000687568
0.000659254
0.000615195
0.000555464
0.000480384
0.000390642
0.000287288
0.000171693
4.55051e-05
-8.94017e-05
-0.000230998
-0.000377161
-0.000525748
-0.000674663
-0.000821916
-0.000965705
-0.00110441
-0.00123667
-0.00136138
-0.0014777
-0.00158506
-0.00168311
-0.00177174
-0.00185103
-0.00192119
-0.00198255
-0.00203553
-0.00208056
-0.00211806
-0.00214841
-0.00217192
-0.00218876
-0.00219896
-0.00220233
-0.00219871
-0.00218798
-0.0021669
-0.00212784
0.000547133
0.000580704
0.000601978
0.00060966
0.000602638
0.00058011
0.000541632
0.000487062
0.000416613
0.000330887
0.000230869
0.000117897
-6.38603e-06
-0.000140078
-0.000281087
-0.000427208
-0.000576192
-0.000725825
-0.000873998
-0.00101877
-0.00115843
-0.00129151
-0.00141683
-0.00153349
-0.00164088
-0.00173865
-0.00182671
-0.00190515
-0.00197426
-0.00203441
-0.00208608
-0.00212978
-0.002166
-0.00219516
-0.00221762
-0.00223359
-0.00224309
-0.00224594
-0.00224194
-0.00223093
-0.00220966
-0.00217047
0.000393989
0.000434605
0.000463566
0.000479545
0.000481234
0.000467552
0.000437774
0.000391543
0.000328892
0.000250269
0.000156527
4.89124e-05
-7.09787e-05
-0.000201252
-0.000339783
-0.00048429
-0.000632421
-0.000781836
-0.000930281
-0.00107567
-0.00121613
-0.00135008
-0.0014762
-0.0015935
-0.00170132
-0.00179926
-0.00188721
-0.00196529
-0.00203378
-0.00209314
-0.00214389
-0.0021866
-0.00222182
-0.00225004
-0.00227168
-0.00228697
-0.00229597
-0.00229851
-0.00229438
-0.00228343
-0.00226242
-0.00222382
0.000176688
0.000226741
0.000266384
0.000294058
0.000308131
0.000307221
0.000290299
0.000256709
0.000206211
0.000138998
5.57102e-05
-4.2579e-05
-0.000154394
-0.000277903
-0.000410992
-0.000551334
-0.000696485
-0.000843972
-0.000991384
-0.00113645
-0.00127713
-0.00141163
-0.00153849
-0.00165659
-0.00176513
-0.00186364
-0.00195195
-0.00203016
-0.00209856
-0.00215764
-0.00220794
-0.00225011
-0.00228474
-0.00231241
-0.00233355
-0.00234847
-0.00235726
-0.00235978
-0.00235584
-0.00234527
-0.00232494
-0.00228757
-0.000126994
-6.46278e-05
-1.07843e-05
3.2635e-05
6.36496e-05
8.05167e-05
8.18129e-05
6.64847e-05
3.38982e-05
-1.61211e-05
-8.3265e-05
-0.000166741
-0.000265294
-0.000377244
-0.000500556
-0.000632907
-0.000771792
-0.000914615
-0.00105879
-0.00120186
-0.00134152
-0.00147579
-0.00160297
-0.00172173
-0.0018311
-0.00193048
-0.00201958
-0.00209844
-0.00216733
-0.00222671
-0.00227716
-0.00231935
-0.00235393
-0.00238152
-0.00240262
-0.00241759
-0.00242657
-0.00242943
-0.00242602
-0.00241619
-0.00239693
-0.00236129
-0.000544197
-0.000466334
-0.000394261
-0.000330305
-0.000276839
-0.000236054
-0.000209867
-0.000199854
-0.000207174
-0.000232513
-0.000276042
-0.000337395
-0.000415676
-0.000509481
-0.000616954
-0.000735865
-0.0008637
-0.000997772
-0.00113533
-0.00127368
-0.00141027
-0.00154282
-0.00166934
-0.00178822
-0.00189826
-0.00199861
-0.00208885
-0.00216886
-0.00223882
-0.00229915
-0.00235043
-0.00239331
-0.00242849
-0.00245662
-0.00247826
-0.0024938
-0.00250343
-0.00250708
-0.0025046
-0.00249587
-0.00247804
-0.00244453
-0.00110695
-0.0010102
-0.000915444
-0.000825507
-0.000743204
-0.000671261
-0.0006122
-0.000568246
-0.000541237
-0.00053254
-0.000542984
-0.000572816
-0.000621675
-0.000688602
-0.000772077
-0.000870081
-0.000980191
-0.00109969
-0.00122568
-0.00135525
-0.00148554
-0.00161392
-0.00173804
-0.00185592
-0.00196601
-0.00206716
-0.00215867
-0.00224022
-0.00231183
-0.00237381
-0.00242665
-0.00247099
-0.00250754
-0.00253694
-0.00255981
-0.00257655
-0.00258741
-0.00259235
-0.00259126
-0.002584
-0.00256793
-0.00253689
-0.00185144
-0.00173241
-0.00161031
-0.00148851
-0.00137032
-0.00125905
-0.00115795
-0.00107003
-0.000997946
-0.00094395
-0.000909733
-0.000896373
-0.000904273
-0.00093314
-0.000981992
-0.00104921
-0.0011326
-0.00122953
-0.00133704
-0.00145199
-0.00157122
-0.00169169
-0.0018106
-0.00192552
-0.00203441
-0.0021357
-0.00222832
-0.00231162
-0.00238535
-0.00244963
-0.00250482
-0.00255148
-0.00259024
-0.00262177
-0.00264665
-0.00266534
-0.0026781
-0.00268491
-0.0026857
-0.00268033
-0.00266633
-0.002638
-0.00281658
-0.00267214
-0.00251814
-0.00235853
-0.00219706
-0.00203774
-0.00188459
-0.00174151
-0.00161217
-0.00149987
-0.00140739
-0.00133688
-0.00128979
-0.00126676
-0.00126762
-0.00129139
-0.00133634
-0.00140009
-0.00147974
-0.00157201
-0.00167344
-0.00178056
-0.00189004
-0.00199886
-0.00210439
-0.0022045
-0.00229757
-0.00238249
-0.00245864
-0.0025258
-0.00258412
-0.00263397
-0.00267589
-0.00271048
-0.00273828
-0.00275976
-0.00277516
-0.00278451
-0.00278772
-0.00278467
-0.00277306
-0.00274762
-0.00404152
-0.00386919
-0.00367931
-0.0034763
-0.00326441
-0.00304829
-0.00283278
-0.00262276
-0.00242303
-0.0022381
-0.00207207
-0.00192843
-0.00180995
-0.00171853
-0.00165516
-0.00161982
-0.00161155
-0.00162849
-0.001668
-0.0017268
-0.00180123
-0.00188736
-0.00198131
-0.00207936
-0.00217814
-0.00227478
-0.00236694
-0.00245286
-0.00253138
-0.00260182
-0.00266394
-0.00271787
-0.00276393
-0.00280257
-0.00283429
-0.00285948
-0.00287838
-0.00289099
-0.00289724
-0.00289697
-0.00288805
-0.00286565
-0.00556243
-0.00536077
-0.00513206
-0.0048811
-0.00461251
-0.00433156
-0.00404389
-0.00375537
-0.00347197
-0.00319955
-0.00294369
-0.00270948
-0.0025013
-0.00232268
-0.00217613
-0.00206301
-0.00198353
-0.0019367
-0.00192047
-0.00193185
-0.00196707
-0.00202191
-0.00209187
-0.00217246
-0.00225944
-0.002349
-0.00243788
-0.00252347
-0.00260382
-0.0026776
-0.00274405
-0.00280284
-0.00285401
-0.00289777
-0.00293446
-0.00296438
-0.00298769
-0.00300437
-0.00301431
-0.00301732
-0.00301143
-0.00299219
-0.00740854
-0.00717751
-0.00690855
-0.0066067
-0.0062768
-0.00592462
-0.00555647
-0.00517915
-0.00479977
-0.00442556
-0.00406369
-0.00372102
-0.00340381
-0.00311757
-0.00286672
-0.0026545
-0.00248273
-0.00235183
-0.00226076
-0.00220718
-0.00218759
-0.00219759
-0.00223218
-0.00228609
-0.00235409
-0.00243124
-0.00251312
-0.00259601
-0.00267693
-0.00275363
-0.0028246
-0.0028889
-0.00294608
-0.00299601
-0.00303877
-0.00307448
-0.0031032
-0.00312482
-0.00313917
-0.00314601
-0.00314348
-0.00312752
-0.00959788
-0.00933908
-0.00903045
-0.00867698
-0.00828356
-0.00785626
-0.00740189
-0.00692795
-0.00644255
-0.00595423
-0.00547169
-0.00500363
-0.0045584
-0.00414372
-0.00376635
-0.00343184
-0.00314424
-0.00290591
-0.00271745
-0.00257772
-0.00248393
-0.00243188
-0.00241631
-0.00243124
-0.00247039
-0.00252756
-0.00259694
-0.00267339
-0.00275259
-0.00283109
-0.00290631
-0.00297646
-0.00304041
-0.00309751
-0.00314744
-0.00319006
-0.00322523
-0.00325273
-0.00327226
-0.00328353
-0.00328475
-0.0032722
-0.0121335
-0.0118503
-0.0115048
-0.0111015
-0.0106454
-0.0101424
-0.00959961
-0.00902491
-0.00842715
-0.00781588
-0.00720122
-0.00659358
-0.00600339
-0.00544076
-0.00491509
-0.00443467
-0.00400631
-0.003635
-0.0033237
-0.00307316
-0.00288199
-0.00274677
-0.00266238
-0.00262241
-0.00261962
-0.00264647
-0.00269554
-0.00276001
-0.00283383
-0.002912
-0.00299052
-0.00306645
-0.00313767
-0.0032028
-0.00326097
-0.00331162
-0.00335433
-0.00338868
-0.00341424
-0.00343059
-0.00343598
-0.00342702
-0.0150011
-0.0146984
-0.0143208
-0.0138724
-0.0133576
-0.0127822
-0.012153
-0.011478
-0.0107664
-0.0100284
-0.00927496
-0.00851811
-0.00777013
-0.00704343
-0.00635017
-0.00570167
-0.00510798
-0.0045774
-0.00411599
-0.00372729
-0.00341217
-0.0031688
-0.00299289
-0.00287809
-0.00281651
-0.00279933
-0.00281746
-0.00286206
-0.00292506
-0.00299943
-0.00307938
-0.00316036
-0.00323897
-0.00331278
-0.00338014
-0.00343992
-0.00349129
-0.00353353
-0.003566
-0.00358813
-0.00359819
-0.00359307
-0.018168
-0.0178519
-0.0174489
-0.0169624
-0.0163961
-0.0157554
-0.0150463
-0.0142767
-0.0134554
-0.0125927
-0.0117003
-0.0107909
-0.00987827
-0.00897694
-0.00810157
-0.00726662
-0.00648568
-0.00577083
-0.00513201
-0.0045765
-0.00410842
-0.00372862
-0.00343461
-0.00322091
-0.00307956
-0.00300082
-0.00297393
-0.00298793
-0.00303235
-0.00309773
-0.00317594
-0.00326039
-0.00334593
-0.00342874
-0.00350609
-0.00357602
-0.00363714
-0.00368833
-0.00372866
-0.00375737
-0.00377267
-0.00377172
-0.0215851
-0.0212621
-0.0208416
-0.0203258
-0.019718
-0.0190223
-0.0182442
-0.0173904
-0.0164693
-0.0154906
-0.0144658
-0.0134079
-0.0123315
-0.0112524
-0.0101875
-0.00915397
-0.00816901
-0.00724874
-0.00640757
-0.00565733
-0.00500654
-0.00445992
-0.00401805
-0.00367751
-0.00343121
-0.00326914
-0.00317925
-0.00314849
-0.00316374
-0.00321268
-0.00328434
-0.00336951
-0.00346076
-0.00355241
-0.00364024
-0.00372123
-0.00379317
-0.0038544
-0.00390361
-0.0039397
-0.00396092
-0.00396463
-0.0251906
-0.0248673
-0.0244373
-0.0239022
-0.0232641
-0.0225263
-0.0216931
-0.0207699
-0.019764
-0.018684
-0.0175404
-0.0163458
-0.0151146
-0.0138634
-0.0126102
-0.0113744
-0.0101764
-0.00903615
-0.00797276
-0.00700327
-0.00614158
-0.00539754
-0.0047763
-0.00427794
-0.00389765
-0.00362624
-0.00345112
-0.00335748
-0.00332957
-0.00335186
-0.00341005
-0.00349164
-0.00358633
-0.00368599
-0.00378444
-0.00387718
-0.00396093
-0.00403329
-0.00409242
-0.00413683
-0.00416472
-0.0041737
-0.0289159
-0.0285979
-0.0281662
-0.0276215
-0.0269651
-0.0261991
-0.0253264
-0.0243513
-0.0232791
-0.0221171
-0.0208742
-0.0195617
-0.0181929
-0.0167841
-0.0153534
-0.0139217
-0.0125112
-0.0111454
-0.0098478
-0.00864085
-0.00754446
-0.00657478
-0.00574296
-0.00505434
-0.00450811
-0.00409751
-0.00381065
-0.00363177
-0.0035428
-0.00352493
-0.00356006
-0.00363183
-0.00372631
-0.00383223
-0.00394089
-0.00404578
-0.00414221
-0.00422676
-0.00429691
-0.00435067
-0.00438606
-0.00440113
-0.032692
-0.0323836
-0.0319567
-0.0314111
-0.0307475
-0.0299668
-0.0290707
-0.0280617
-0.0269438
-0.0257219
-0.0244032
-0.0229967
-0.0215142
-0.0199703
-0.0183822
-0.0167705
-0.0151587
-0.0135724
-0.0120388
-0.0105851
-0.00923766
-0.00801942
-0.00694888
-0.00603837
-0.00529307
-0.00471067
-0.00428178
-0.00399108
-0.00381899
-0.00374369
-0.00374308
-0.00379635
-0.00388523
-0.00399452
-0.00411222
-0.00422928
-0.00433906
-0.00443681
-0.00451909
-0.00458327
-0.00462718
-0.00464929
-0.0364554
-0.0361593
-0.0357418
-0.0352024
-0.0345409
-0.0337574
-0.0328524
-0.0318271
-0.0306834
-0.0294244
-0.0280548
-0.0265813
-0.0250131
-0.0233622
-0.021644
-0.0198773
-0.0180854
-0.0162946
-0.0145344
-0.0128359
-0.0112309
-0.00974944
-0.00841814
-0.00725775
-0.00628146
-0.0054937
-0.00488988
-0.0044571
-0.00417575
-0.0040218
-0.00396928
-0.0039926
-0.00406841
-0.00417673
-0.00430144
-0.00443014
-0.0045537
-0.00466559
-0.00476115
-0.00483692
-0.00489048
-0.00492082
-0.0401528
-0.0398701
-0.0394649
-0.0389364
-0.0382839
-0.037507
-0.0366051
-0.0355782
-0.0344265
-0.0331514
-0.031755
-0.0302415
-0.028617
-0.0268904
-0.0250739
-0.0231843
-0.0212423
-0.0192734
-0.0173075
-0.015378
-0.0135208
-0.0117725
-0.0101675
-0.00873601
-0.00750081
-0.00647542
-0.0056627
-0.00505474
-0.0046341
-0.00437602
-0.00425141
-0.0042299
-0.00428252
-0.00438366
-0.00451209
-0.00465119
-0.0047886
-0.00491545
-0.00502545
-0.00511406
-0.00517853
-0.00521845
-0.0434746
-0.0430824
-0.0425673
-0.0419281
-0.041164
-0.0402739
-0.0392567
-0.0381116
-0.0368378
-0.0354357
-0.0339068
-0.0322541
-0.0304832
-0.0286028
)
;

boundaryField
{
    movingWall
    {
        type            zeroGradient;
    }
    fixedWalls
    {
        type            zeroGradient;
    }
    frontAndBack
    {
        type            empty;
    }
    procBoundary7to1
    {
        type            processor;
        value           nonuniform List<scalar> 
33
(
0.00107937
0.00100027
0.000949948
0.000912383
0.000879014
0.000846404
0.000810021
0.000765417
0.000763876
0.000763876
0.000653991
0.000682368
0.000682368
0.000502774
0.000343115
0.000117475
-0.000196655
-0.000626565
-0.00120429
-0.00196587
-0.00294974
-0.00419437
-0.00573494
-0.00759945
-0.0098046
-0.0123523
-0.015227
-0.0183958
-0.0218093
-0.0254065
-0.0291199
-0.0328818
-0.0366301
)
;
    }
    procBoundary7to6
    {
        type            processor;
        value           nonuniform List<scalar> 
45
(
-0.0403129
-0.0437443
-0.0266259
-0.0245698
-0.0224573
-0.0203165
-0.0181813
-0.0160898
-0.0140832
-0.0122031
-0.0104888
-0.00897383
-0.00768268
-0.00662832
-0.00581086
-0.00521789
-0.00482624
-0.00460516
-0.00452006
-0.00453617
-0.0046215
-0.00474872
-0.00489596
-0.00504671
-0.00518904
-0.00531456
-0.00541729
-0.00549405
-0.0055451
-0.0437443
-0.0469457
-0.046566
-0.0460645
-0.0454403
-0.0446923
-0.0438191
-0.0428191
-0.0416904
-0.0404312
-0.03904
-0.0375161
-0.0358596
-0.0340731
-0.0266259
-0.0321614
)
;
    }
}


// ************************************************************************* //
