/*--------------------------------*- C++ -*----------------------------------*\
  =========                 |
  \\      /  F ield         | OpenFOAM: The Open Source CFD Toolbox
   \\    /   O peration     | Website:  https://openfoam.org
    \\  /    A nd           | Version:  9
     \\/     M anipulation  |
\*---------------------------------------------------------------------------*/
FoamFile
{
    format      ascii;
    class       surfaceScalarField;
    location    "1.25";
    object      phi;
}
// * * * * * * * * * * * * * * * * * * * * * * * * * * * * * * * * * * * * * //

dimensions      [0 3 -1 0 0 0 0];

internalField   nonuniform List<scalar> 
2407
(
-1.56985e-08
-3.93613e-09
-1.16988e-08
-3.99965e-09
-7.68923e-09
-4.0096e-09
-3.72327e-09
-3.96596e-09
1.46686e-10
-3.86995e-09
3.87066e-09
-3.72398e-09
7.40089e-09
-3.53023e-09
1.06943e-08
-3.29343e-09
1.3713e-08
-3.01867e-09
1.64249e-08
-2.71193e-09
1.88047e-08
-2.37981e-09
2.0834e-08
-2.02929e-09
2.25015e-08
-1.66749e-09
2.38029e-08
-1.30142e-09
2.47407e-08
-9.37768e-10
2.53234e-08
-5.82673e-10
2.5565e-08
-2.41581e-10
2.54841e-08
8.09033e-11
2.5103e-08
3.81072e-10
2.44468e-08
6.5618e-10
2.35424e-08
9.0439e-10
2.24177e-08
1.12473e-09
2.11008e-08
1.31694e-09
1.96194e-08
1.48134e-09
1.80008e-08
1.61859e-09
1.62714e-08
1.7294e-09
1.44572e-08
1.81423e-09
1.25844e-08
1.87282e-09
1.06806e-08
1.9038e-09
8.77655e-09
1.90405e-09
6.90843e-09
1.86812e-09
5.12087e-09
1.78756e-09
3.4706e-09
1.65027e-09
2.02986e-09
1.44074e-09
8.87312e-10
1.14255e-09
1.40806e-10
7.46505e-10
-1.35627e-10
2.76433e-10
-1.35623e-10
-5.0611e-08
-1.42528e-08
-4.01196e-08
-1.44911e-08
-2.95826e-08
-1.45466e-08
-1.91304e-08
-1.44181e-08
-8.89181e-09
-1.41086e-08
1.00828e-09
-1.36241e-08
1.04523e-08
-1.29742e-08
1.93309e-08
-1.21721e-08
2.75467e-08
-1.12345e-08
3.50157e-08
-1.01809e-08
4.16688e-08
-9.03292e-09
4.74531e-08
-7.81361e-09
5.23324e-08
-6.54677e-09
5.62871e-08
-5.25616e-09
5.9314e-08
-3.96469e-09
6.14252e-08
-2.69384e-09
6.26466e-08
-1.46298e-09
6.30165e-08
-2.88989e-10
6.25835e-08
8.14063e-10
6.14045e-08
1.83519e-09
5.95426e-08
2.76629e-09
5.70652e-08
3.60209e-09
5.40424e-08
4.33973e-09
5.05455e-08
4.97825e-09
4.66463e-08
5.51783e-09
4.24167e-08
5.95896e-09
3.79297e-08
6.30125e-09
3.32603e-08
6.54227e-09
2.8488e-08
6.67609e-09
2.37002e-08
6.69179e-09
1.89963e-08
6.57199e-09
1.44922e-08
6.29174e-09
1.03239e-08
5.81849e-09
6.64974e-09
5.11495e-09
3.64346e-09
4.14883e-09
1.47613e-09
2.91384e-09
2.78146e-10
1.47442e-09
1.42526e-10
-9.02495e-08
-2.98163e-08
-7.44002e-08
-3.03404e-08
-5.84482e-08
-3.04985e-08
-4.25795e-08
-3.02868e-08
-2.69788e-08
-2.97093e-08
-1.18262e-08
-2.87766e-08
2.70601e-09
-2.75064e-08
1.64577e-08
-2.59237e-08
2.92829e-08
-2.40597e-08
4.10537e-08
-2.19518e-08
5.16624e-08
-1.96416e-08
6.10228e-08
-1.7174e-08
6.90718e-08
-1.45958e-08
7.57698e-08
-1.19541e-08
8.11001e-08
-9.29503e-09
8.50685e-08
-6.66219e-09
8.77012e-08
-4.09574e-09
8.90435e-08
-1.63126e-09
8.91567e-08
7.00849e-10
8.81161e-08
2.87585e-09
8.60077e-08
4.87461e-09
8.29264e-08
6.68344e-09
7.89727e-08
8.2934e-09
7.42516e-08
9.69932e-09
6.8871e-08
1.08985e-08
6.29411e-08
1.18889e-08
5.6575e-08
1.26673e-08
4.98904e-08
1.32269e-08
4.30118e-08
1.35547e-08
3.60743e-08
1.36293e-08
2.92276e-08
1.34187e-08
2.26401e-08
1.28792e-08
1.65019e-08
1.19566e-08
1.10242e-08
1.05927e-08
6.43184e-09
8.74119e-09
2.947e-09
6.39869e-09
7.59122e-10
3.66231e-09
9.01647e-10
-1.36026e-07
-4.97775e-08
-1.15653e-07
-5.07128e-08
-9.50922e-08
-5.10598e-08
-7.45689e-08
-5.08101e-08
-5.43106e-08
-4.99676e-08
-3.45405e-08
-4.85467e-08
-1.54738e-08
-4.65731e-08
2.68662e-09
-4.40841e-08
1.97543e-08
-4.11274e-08
3.55619e-08
-3.77593e-08
4.99656e-08
-3.40453e-08
6.28466e-08
-3.0055e-08
7.41132e-08
-2.58624e-08
8.37015e-08
-2.15425e-08
9.15761e-08
-1.71696e-08
9.77287e-08
-1.28149e-08
1.02178e-07
-8.54478e-09
1.04966e-07
-4.41923e-09
1.06157e-07
-4.90408e-10
1.05835e-07
3.1979e-09
1.04099e-07
6.61062e-09
1.01061e-07
9.72105e-09
9.68446e-08
1.25101e-08
9.15793e-08
1.49647e-08
8.54017e-08
1.70761e-08
7.84535e-08
1.8837e-08
7.08818e-08
2.0239e-08
6.28401e-08
2.12686e-08
5.44902e-08
2.19045e-08
4.60061e-08
2.21134e-08
3.75769e-08
2.1848e-08
2.94104e-08
2.10457e-08
2.17356e-08
1.96315e-08
1.48022e-08
1.7526e-08
8.87772e-09
1.46657e-08
4.24044e-09
1.1036e-08
1.17534e-09
6.7274e-09
2.07699e-09
-1.8954e-07
-7.35223e-08
-1.65231e-07
-7.50222e-08
-1.40608e-07
-7.56821e-08
-1.15931e-07
-7.54869e-08
-9.14613e-08
-7.44378e-08
-6.74568e-08
-7.25512e-08
-4.41703e-08
-6.98597e-08
-2.18423e-08
-6.64121e-08
-6.97243e-10
-6.22724e-08
1.90619e-08
-5.75184e-08
3.72546e-08
-5.2238e-08
5.37286e-08
-4.65291e-08
6.83614e-08
-4.04952e-08
8.10616e-08
-3.42427e-08
9.177e-08
-2.78779e-08
1.00459e-07
-2.15039e-08
1.07133e-07
-1.52183e-08
1.11823e-07
-9.11012e-09
1.14592e-07
-3.25868e-09
1.15521e-07
2.26813e-09
1.14718e-07
7.41428e-09
1.12304e-07
1.21353e-08
1.08416e-07
1.63973e-08
1.03205e-07
2.01757e-08
9.68298e-08
2.34517e-08
8.94567e-08
2.621e-08
8.12614e-08
2.84343e-08
7.24272e-08
3.01029e-08
6.31473e-08
3.11844e-08
5.36274e-08
3.16332e-08
4.40886e-08
3.13869e-08
3.47701e-08
3.03642e-08
2.59326e-08
2.8469e-08
1.78601e-08
2.55985e-08
1.08624e-08
2.16634e-08
5.27998e-09
1.66184e-08
1.49838e-09
1.0509e-08
3.57538e-09
-2.52535e-07
-1.00632e-07
-2.24666e-07
-1.02891e-07
-1.96312e-07
-1.04036e-07
-1.67759e-07
-1.0404e-07
-1.39298e-07
-1.02899e-07
-1.11221e-07
-1.00628e-07
-8.38152e-08
-9.72652e-08
-5.73579e-08
-9.28694e-08
-3.21105e-08
-8.75199e-08
-8.3147e-09
-8.13142e-08
1.3813e-08
-7.43657e-08
3.40843e-08
-6.68004e-08
5.23424e-08
-5.87532e-08
6.84646e-08
-5.03649e-08
8.23636e-08
-4.17768e-08
9.39878e-08
-3.31281e-08
1.03321e-07
-2.45517e-08
1.10382e-07
-1.61708e-08
1.1522e-07
-8.09662e-09
1.17914e-07
-4.26462e-10
1.18571e-07
6.75778e-09
1.17317e-07
1.33887e-08
1.14301e-07
1.94134e-08
1.09686e-07
2.47908e-08
1.03649e-07
2.94891e-08
9.63778e-08
3.34812e-08
8.80714e-08
3.67406e-08
7.89389e-08
3.92355e-08
6.92e-08
4.09232e-08
5.90877e-08
4.17456e-08
4.88502e-08
4.16243e-08
3.87549e-08
4.04596e-08
2.90912e-08
3.81326e-08
2.01769e-08
3.45129e-08
1.23648e-08
2.94754e-08
6.05752e-09
2.29258e-08
1.73206e-09
1.48345e-08
5.30744e-09
-3.26826e-07
-1.30845e-07
-2.95602e-07
-1.34115e-07
-2.63665e-07
-1.35974e-07
-2.31325e-07
-1.3638e-07
-1.98903e-07
-1.3532e-07
-1.66726e-07
-1.32806e-07
-1.35115e-07
-1.28876e-07
-1.04387e-07
-1.23598e-07
-7.48418e-08
-1.17065e-07
-4.67626e-08
-1.09394e-07
-2.04065e-08
-1.00722e-07
3.99812e-09
-9.1205e-08
2.62563e-08
-8.10115e-08
4.62094e-08
-7.03179e-08
6.37372e-08
-5.93047e-08
7.87595e-08
-4.81504e-08
9.12358e-08
-3.7028e-08
1.01165e-07
-2.60996e-08
1.08582e-07
-1.55137e-08
1.13557e-07
-5.40194e-09
1.16193e-07
4.12206e-09
1.16618e-07
1.29634e-08
1.14987e-07
2.10447e-08
1.11473e-07
2.83046e-08
1.06268e-07
3.46938e-08
9.9579e-08
4.01705e-08
9.16245e-08
4.46951e-08
8.26362e-08
4.82237e-08
7.28582e-08
5.07013e-08
6.25478e-08
5.2056e-08
5.19787e-08
5.21933e-08
4.14445e-08
5.09938e-08
3.12636e-08
4.83135e-08
2.17869e-08
4.39895e-08
1.34103e-08
3.7852e-08
6.59314e-09
2.9743e-08
1.88833e-09
1.95393e-08
7.19578e-09
-4.14208e-07
-1.64033e-07
-3.79697e-07
-1.68626e-07
-3.44179e-07
-1.71492e-07
-3.07991e-07
-1.72568e-07
-2.71485e-07
-1.71826e-07
-2.35023e-07
-1.69268e-07
-1.98965e-07
-1.64933e-07
-1.63669e-07
-1.58894e-07
-1.29481e-07
-1.51253e-07
-9.67278e-08
-1.42147e-07
-6.57137e-08
-1.31736e-07
-3.67127e-08
-1.20206e-07
-9.96405e-09
-1.0776e-07
1.43321e-08
-9.46141e-08
3.60175e-08
-8.09901e-08
5.49771e-08
-6.71099e-08
7.11418e-08
-5.31927e-08
8.4486e-08
-3.94439e-08
9.50271e-08
-2.60548e-08
1.02823e-07
-1.31975e-08
1.07968e-07
-1.02303e-09
1.1059e-07
1.03408e-08
1.10848e-07
2.07869e-08
1.08924e-07
3.02288e-08
1.05022e-07
3.85955e-08
9.93656e-08
4.58272e-08
9.21926e-08
5.18682e-08
8.37558e-08
5.66605e-08
7.4322e-08
6.01351e-08
6.41726e-08
6.22053e-08
5.36063e-08
6.27596e-08
4.29429e-08
6.16572e-08
3.25299e-08
5.87266e-08
2.27517e-08
5.37677e-08
1.40443e-08
4.65594e-08
6.91657e-09
3.68707e-08
1.98001e-09
2.44758e-08
9.17578e-09
-5.86569e-07
-1.81867e-07
-5.52465e-07
-1.91909e-07
-5.16342e-07
-2.00155e-07
-4.7851e-07
-2.06458e-07
-4.39308e-07
-2.10694e-07
-3.99101e-07
-2.12775e-07
-3.58274e-07
-2.12653e-07
-3.17223e-07
-2.10318e-07
-2.76355e-07
-2.05802e-07
-2.36072e-07
-1.99177e-07
-1.96771e-07
-1.90555e-07
-1.5883e-07
-1.80087e-07
-1.22609e-07
-1.67957e-07
-8.84331e-08
-1.54382e-07
-5.65938e-08
-1.39599e-07
-2.73405e-08
-1.23867e-07
-8.76888e-10
-1.07454e-07
2.26439e-08
-9.06307e-08
4.31155e-08
-7.36643e-08
6.04838e-08
-5.68122e-08
7.47438e-08
-4.03148e-08
8.59372e-08
-2.43909e-08
9.41491e-08
-9.235e-09
9.95047e-08
4.98517e-09
1.02164e-07
1.8128e-08
1.02317e-07
3.0076e-08
1.0018e-07
4.07323e-08
9.59919e-08
5.0015e-08
9.00104e-08
5.78497e-08
8.25094e-08
6.41615e-08
7.37786e-08
6.88659e-08
6.4124e-08
7.18599e-08
5.387e-08
7.30137e-08
4.33637e-08
7.21636e-08
3.2982e-08
6.91082e-08
2.31425e-08
6.36072e-08
1.4318e-08
5.53838e-08
7.05848e-09
4.41303e-08
2.01847e-09
2.95158e-08
1.11943e-08
-7.7486e-07
-1.84653e-07
-7.44068e-07
-2.00985e-07
-7.10264e-07
-2.15672e-07
-6.73683e-07
-2.28489e-07
-6.3461e-07
-2.39228e-07
-5.93372e-07
-2.47697e-07
-5.50327e-07
-2.53739e-07
-5.05868e-07
-2.57234e-07
-4.60412e-07
-2.58109e-07
-4.14397e-07
-2.56333e-07
-3.68273e-07
-2.51925e-07
-3.22498e-07
-2.44952e-07
-2.77523e-07
-2.3553e-07
-2.33789e-07
-2.23821e-07
-1.91714e-07
-2.10032e-07
-1.51687e-07
-1.94408e-07
-1.1406e-07
-1.77226e-07
-7.91407e-08
-1.58787e-07
-4.7185e-08
-1.39409e-07
-1.83972e-08
-1.19418e-07
7.07653e-09
-9.9138e-08
2.91467e-08
-7.88824e-08
4.77806e-08
-5.89486e-08
6.29997e-08
-3.96101e-08
7.48769e-08
-2.11122e-08
8.35317e-08
-3.66962e-09
8.91252e-08
1.25345e-08
9.1855e-08
2.73462e-08
9.19497e-08
4.06376e-08
8.96647e-08
5.23001e-08
8.52771e-08
6.22373e-08
7.90838e-08
7.03548e-08
7.13991e-08
7.65506e-08
6.25552e-08
8.07039e-08
5.29038e-08
8.26651e-08
4.28209e-08
8.22465e-08
3.27138e-08
7.92153e-08
2.3032e-08
7.3289e-08
1.42821e-08
6.41337e-08
7.04764e-09
5.13647e-08
2.01348e-09
3.455e-08
1.32077e-08
-9.1883e-07
-2.13018e-07
-8.86716e-07
-2.33099e-07
-8.5104e-07
-2.51348e-07
-8.1204e-07
-2.67489e-07
-7.70008e-07
-2.8126e-07
-7.25276e-07
-2.92428e-07
-6.78224e-07
-3.00791e-07
-6.29267e-07
-3.06192e-07
-5.78856e-07
-3.0852e-07
-5.27472e-07
-3.07717e-07
-4.75617e-07
-3.03781e-07
-4.23802e-07
-2.96767e-07
-3.72543e-07
-2.86788e-07
-3.22349e-07
-2.74015e-07
-2.73709e-07
-2.58673e-07
-2.27083e-07
-2.41034e-07
-1.82894e-07
-2.21415e-07
-1.41519e-07
-2.00162e-07
-1.03279e-07
-1.7765e-07
-6.84346e-08
-1.54262e-07
-3.7185e-08
-1.30388e-07
-9.66211e-09
-1.06405e-07
1.40671e-08
-8.26778e-08
3.39991e-08
-5.95421e-08
5.01902e-08
-3.73034e-08
6.27523e-08
-1.62317e-08
7.18464e-08
3.44032e-09
7.76771e-08
2.15155e-08
8.04861e-08
3.78286e-08
8.05463e-08
5.22399e-08
7.8157e-08
6.46265e-08
7.36399e-08
7.48719e-08
6.73364e-08
8.28541e-08
5.96072e-08
8.8433e-08
5.08342e-08
9.14381e-08
4.1424e-08
9.16567e-08
3.18154e-08
8.88239e-08
2.24896e-08
8.26149e-08
1.39841e-08
7.26392e-08
6.91018e-09
5.84386e-08
1.97345e-09
3.94867e-08
1.51812e-08
-1.07993e-06
-2.4191e-07
-1.0467e-06
-2.66327e-07
-1.00932e-06
-2.88737e-07
-9.67997e-07
-3.08807e-07
-9.23035e-07
-3.26223e-07
-8.74767e-07
-3.40696e-07
-8.23583e-07
-3.51974e-07
-7.69924e-07
-3.59851e-07
-7.14271e-07
-3.64173e-07
-6.57146e-07
-3.64842e-07
-5.99102e-07
-3.61826e-07
-5.4071e-07
-3.55158e-07
-4.82556e-07
-3.44943e-07
-4.25221e-07
-3.3135e-07
-3.69275e-07
-3.14619e-07
-3.15261e-07
-2.95048e-07
-2.63685e-07
-2.7299e-07
-2.15005e-07
-2.48843e-07
-1.69619e-07
-2.23036e-07
-1.27859e-07
-1.96022e-07
-8.99868e-08
-1.6826e-07
-5.61878e-08
-1.40204e-07
-2.65721e-08
-1.12293e-07
-1.17561e-09
-8.49386e-08
2.00367e-08
-5.85157e-08
3.7165e-08
-3.33599e-08
5.03685e-08
-9.76317e-09
5.98583e-08
1.20257e-08
6.58899e-08
3.17971e-08
6.87559e-08
4.93739e-08
6.878e-08
6.46024e-08
6.63118e-08
7.73402e-08
6.1723e-08
8.74429e-08
5.54065e-08
9.47495e-08
4.77771e-08
9.90675e-08
3.92747e-08
1.00159e-07
3.03714e-08
9.77273e-08
2.15802e-08
9.14061e-08
1.34678e-08
8.07516e-08
6.66971e-09
6.52368e-08
1.90575e-09
4.42507e-08
1.70869e-08
-1.25778e-06
-2.71035e-07
-1.2237e-06
-3.00405e-07
-1.18482e-06
-3.27616e-07
-1.14135e-06
-3.52273e-07
-1.09358e-06
-3.74001e-07
-1.04182e-06
-3.92451e-07
-9.86484e-07
-4.07311e-07
-9.28019e-07
-4.18317e-07
-8.66934e-07
-4.25258e-07
-8.03787e-07
-4.27989e-07
-7.39179e-07
-4.26434e-07
-6.73743e-07
-4.20594e-07
-6.08133e-07
-4.10552e-07
-5.43013e-07
-3.96471e-07
-4.79039e-07
-3.78593e-07
-4.16848e-07
-3.57239e-07
-3.57043e-07
-3.32796e-07
-3.00175e-07
-3.05711e-07
-2.46736e-07
-2.76475e-07
-1.97144e-07
-2.45614e-07
-1.51738e-07
-2.13666e-07
-1.10771e-07
-1.81171e-07
-7.44082e-08
-1.48657e-07
-4.2727e-08
-1.1662e-07
-1.57223e-08
-8.55204e-08
6.68943e-09
-5.57717e-08
2.46623e-08
-2.77361e-08
3.84128e-08
-1.72479e-09
4.82104e-08
2.19995e-08
5.43694e-08
4.32149e-08
5.72408e-08
6.17311e-08
5.72054e-08
7.73755e-08
5.46697e-08
8.99786e-08
5.00625e-08
9.93567e-08
4.38353e-08
1.05295e-07
3.64648e-08
1.07529e-07
2.84585e-08
1.05734e-07
2.03627e-08
9.95019e-08
1.27732e-08
8.83411e-08
6.34749e-09
7.16625e-08
1.81696e-09
4.87812e-08
1.89039e-08
-1.45111e-06
-3.00049e-07
-1.41652e-06
-3.35e-07
-1.37646e-06
-3.6767e-07
-1.33114e-06
-3.97599e-07
-1.28079e-06
-4.24346e-07
-1.22575e-06
-4.47496e-07
-1.16639e-06
-4.66668e-07
-1.10318e-06
-4.81529e-07
-1.03663e-06
-4.91803e-07
-9.67341e-07
-4.9728e-07
-8.95944e-07
-4.97831e-07
-8.2313e-07
-4.93408e-07
-7.49623e-07
-4.84059e-07
-6.76169e-07
-4.69925e-07
-6.03519e-07
-4.51243e-07
-5.32412e-07
-4.28345e-07
-4.63559e-07
-4.01649e-07
-3.97623e-07
-3.71646e-07
-3.35206e-07
-3.38893e-07
-2.7683e-07
-3.0399e-07
-2.22929e-07
-2.67566e-07
-1.73842e-07
-2.30259e-07
-1.29804e-07
-1.92695e-07
-9.09487e-08
-1.55475e-07
-5.73118e-08
-1.19157e-07
-2.88344e-08
-8.42491e-08
-5.37287e-09
-5.11976e-08
1.32916e-08
-2.03892e-08
2.74425e-08
7.84859e-09
3.7417e-08
3.32404e-08
4.35961e-08
5.55519e-08
4.63964e-08
7.45753e-08
4.62629e-08
9.01121e-08
4.36654e-08
1.01954e-07
3.90969e-08
1.09863e-07
3.30747e-08
1.13552e-07
2.61452e-08
1.12663e-07
1.88902e-08
1.06757e-07
1.19359e-08
9.52953e-08
5.96258e-09
7.76358e-08
1.71295e-09
5.30309e-08
2.06168e-08
-1.65773e-06
-3.28537e-07
-1.62305e-06
-3.69681e-07
-1.58226e-06
-4.08459e-07
-1.53551e-06
-4.44347e-07
-1.48302e-06
-4.76837e-07
-1.42508e-06
-5.0544e-07
-1.36204e-06
-5.29702e-07
-1.29436e-06
-5.49209e-07
-1.22256e-06
-5.63608e-07
-1.14723e-06
-5.72614e-07
-1.06903e-06
-5.76023e-07
-9.88715e-07
-5.73726e-07
-9.07058e-07
-5.65715e-07
-8.24888e-07
-5.52095e-07
-7.43052e-07
-5.3308e-07
-6.62398e-07
-5.08999e-07
-5.83759e-07
-4.80288e-07
-5.07923e-07
-4.47482e-07
-4.35621e-07
-4.11195e-07
-3.67501e-07
-3.7211e-07
-3.04116e-07
-3.30951e-07
-2.4591e-07
-2.88465e-07
-1.9321e-07
-2.45395e-07
-1.46225e-07
-2.0246e-07
-1.05045e-07
-1.60337e-07
-6.96501e-08
-1.19644e-07
-3.99142e-08
-8.09335e-08
-1.56217e-08
-4.46818e-08
3.52249e-09
-1.12956e-08
1.7879e-08
1.88839e-08
2.78617e-08
4.55693e-08
3.39262e-08
6.85107e-08
3.65617e-08
8.74766e-08
3.62842e-08
1.02232e-07
3.36332e-08
1.12514e-07
2.91719e-08
1.18013e-07
2.349e-08
1.18345e-07
1.72086e-08
1.13038e-07
1.09874e-08
1.01517e-07
5.53188e-09
8.30914e-08
1.59898e-09
5.69638e-08
2.22158e-08
-1.87444e-06
-3.56017e-07
-1.84021e-06
-4.0391e-07
-1.79926e-06
-4.49404e-07
-1.7517e-06
-4.91908e-07
-1.69769e-06
-5.30848e-07
-1.63747e-06
-5.65662e-07
-1.57136e-06
-5.95813e-07
-1.49976e-06
-6.20803e-07
-1.42318e-06
-6.40188e-07
-1.34221e-06
-6.53593e-07
-1.2575e-06
-6.60725e-07
-1.16984e-06
-6.61391e-07
-1.08005e-06
-6.55508e-07
-9.89021e-07
-6.43119e-07
-8.97704e-07
-6.24397e-07
-8.07056e-07
-5.99647e-07
-7.18036e-07
-5.69308e-07
-6.31575e-07
-5.33942e-07
-5.48551e-07
-4.94219e-07
-4.69762e-07
-4.50899e-07
-3.95905e-07
-4.04809e-07
-3.27556e-07
-3.56813e-07
-2.65163e-07
-3.07788e-07
-2.09032e-07
-2.58591e-07
-1.5933e-07
-2.10038e-07
-1.16091e-07
-1.62883e-07
-7.92219e-08
-1.17802e-07
-4.85186e-08
-7.53851e-08
-2.3679e-08
-3.61352e-08
-4.32015e-09
-4.75012e-10
1.00057e-08
3.12434e-08
1.97978e-08
5.87187e-08
2.5594e-08
8.16804e-08
2.79625e-08
9.98632e-08
2.7496e-08
1.12981e-07
2.48093e-08
1.207e-07
2.05411e-08
1.22613e-07
1.53569e-08
1.18223e-07
9.95471e-09
1.06919e-07
5.07011e-09
8.7976e-08
1.47968e-09
6.05542e-08
2.36955e-08
-2.09703e-06
-3.8194e-07
-2.06389e-06
-4.37051e-07
-2.02351e-06
-4.89784e-07
-1.97593e-06
-5.39493e-07
-1.92124e-06
-5.85539e-07
-1.85961e-06
-6.27286e-07
-1.79131e-06
-6.64118e-07
-1.71667e-06
-6.95444e-07
-1.63613e-06
-7.20722e-07
-1.55026e-06
-7.39471e-07
-1.45969e-06
-7.51293e-07
-1.36519e-06
-7.55887e-07
-1.26763e-06
-7.53074e-07
-1.16794e-06
-7.42807e-07
-1.06715e-06
-7.25187e-07
-9.66325e-07
-7.00471e-07
-8.66557e-07
-6.69077e-07
-7.68928e-07
-6.31571e-07
-6.74481e-07
-5.88666e-07
-5.84188e-07
-5.41192e-07
-4.98918e-07
-4.90079e-07
-4.19414e-07
-4.36317e-07
-3.46274e-07
-3.80929e-07
-2.79933e-07
-3.24931e-07
-2.20666e-07
-2.69305e-07
-1.68585e-07
-2.14965e-07
-1.23647e-07
-1.6274e-07
-8.56739e-08
-1.13358e-07
-5.43654e-08
-6.74437e-08
-2.93208e-08
-2.55196e-08
-1.00576e-08
1.19802e-08
3.96897e-09
4.46921e-08
1.3351e-08
7.22984e-08
1.87154e-08
9.44987e-08
2.07146e-08
1.10982e-07
2.00227e-08
1.21391e-07
1.7334e-08
1.25302e-07
1.33654e-08
1.22191e-07
8.85968e-09
1.11424e-07
4.58953e-09
9.22461e-08
1.35903e-09
6.37847e-08
2.50545e-08
-2.32039e-06
-4.05722e-07
-2.28905e-06
-4.68388e-07
-2.25007e-06
-5.28762e-07
-2.20342e-06
-5.8615e-07
-2.14909e-06
-6.39861e-07
-2.08719e-06
-6.89192e-07
-2.01786e-06
-7.33444e-07
-1.94137e-06
-7.71937e-07
-1.85807e-06
-8.04024e-07
-1.76843e-06
-8.29108e-07
-1.67306e-06
-8.46667e-07
-1.57267e-06
-8.56275e-07
-1.46812e-06
-8.57624e-07
-1.36038e-06
-8.50549e-07
-1.25052e-06
-8.35046e-07
-1.1397e-06
-8.1129e-07
-1.02914e-06
-7.79638e-07
-9.20069e-07
-7.40639e-07
-8.13717e-07
-6.95017e-07
-7.11249e-07
-6.43661e-07
-6.13737e-07
-5.87591e-07
-5.22125e-07
-5.27928e-07
-4.37201e-07
-4.65853e-07
-3.59569e-07
-4.02563e-07
-2.89647e-07
-3.39228e-07
-2.27657e-07
-2.76955e-07
-1.73637e-07
-2.1676e-07
-1.27454e-07
-1.59541e-07
-8.88235e-08
-1.06074e-07
-5.73357e-08
-5.70074e-08
-3.24769e-08
-1.28786e-08
-1.36546e-08
2.58698e-08
-2.17998e-10
5.88618e-08
8.52369e-09
8.5757e-08
1.32919e-08
1.06213e-07
1.48277e-08
1.19856e-07
1.389e-08
1.2624e-07
1.12548e-08
1.24826e-07
7.71848e-09
1.14961e-07
4.09965e-09
9.5865e-08
1.24024e-09
6.66441e-08
2.62948e-08
-2.53856e-06
-4.26779e-07
-2.50978e-06
-4.97169e-07
-2.47312e-06
-5.65423e-07
-2.42846e-06
-6.30812e-07
-2.37572e-06
-6.92604e-07
-2.31487e-06
-7.50041e-07
-2.24596e-06
-8.02353e-07
-2.16912e-06
-8.48773e-07
-2.0846e-06
-8.88547e-07
-1.99275e-06
-9.20958e-07
-1.89407e-06
-9.45347e-07
-1.7892e-06
-9.61141e-07
-1.67895e-06
-9.67879e-07
-1.56425e-06
-9.65243e-07
-1.44621e-06
-9.53087e-07
-1.32604e-06
-9.31456e-07
-1.20507e-06
-9.00611e-07
-1.08468e-06
-8.61035e-07
-9.6626e-07
-8.13432e-07
-8.51207e-07
-7.58715e-07
-7.40818e-07
-6.97979e-07
-6.36278e-07
-6.32468e-07
-5.38605e-07
-5.63526e-07
-4.48622e-07
-4.92546e-07
-3.66935e-07
-4.20915e-07
-2.93921e-07
-3.49969e-07
-2.29735e-07
-2.80946e-07
-1.7432e-07
-2.14957e-07
-1.2743e-07
-1.52964e-07
-8.86593e-08
-9.57777e-08
-5.74713e-08
-4.40667e-08
-3.32273e-08
1.6258e-09
-1.52153e-08
4.08498e-08
-2.67177e-09
7.32135e-08
5.19965e-09
9.83421e-08
9.21709e-09
1.15838e-07
1.02135e-08
1.25243e-07
9.03473e-09
1.26005e-07
6.54057e-09
1.17455e-07
3.60679e-09
9.87987e-08
1.12563e-09
6.91253e-08
2.74204e-08
-2.74507e-06
-4.44584e-07
-2.71957e-06
-5.2267e-07
-2.68615e-06
-5.98842e-07
-2.6446e-06
-6.72356e-07
-2.59475e-06
-7.42457e-07
-2.53644e-06
-8.08348e-07
-2.46959e-06
-8.69204e-07
-2.39419e-06
-9.24179e-07
-2.31031e-06
-9.72423e-07
-2.21817e-06
-1.0131e-06
-2.11812e-06
-1.0454e-06
-2.01067e-06
-1.06859e-06
-1.89651e-06
-1.08204e-06
-1.77652e-06
-1.08524e-06
-1.65174e-06
-1.07786e-06
-1.52343e-06
-1.05977e-06
-1.39296e-06
-1.03108e-06
-1.26184e-06
-9.92157e-07
-1.13164e-06
-9.43629e-07
-1.00397e-06
-8.8639e-07
-8.80369e-07
-8.21576e-07
-7.62305e-07
-7.50532e-07
-6.51073e-07
-6.74759e-07
-5.47764e-07
-5.95854e-07
-4.5323e-07
-5.15449e-07
-3.68059e-07
-4.3514e-07
-2.9257e-07
-3.56435e-07
-2.26826e-07
-2.80701e-07
-1.70653e-07
-2.09137e-07
-1.23672e-07
-1.42758e-07
-8.53375e-08
-8.24016e-08
-5.49699e-08
-2.87417e-08
-3.17955e-08
1.76754e-08
-1.49744e-08
5.63923e-08
-3.62536e-09
8.6993e-08
3.15659e-09
1.09056e-07
6.28991e-09
1.2211e-07
6.70174e-09
1.25593e-07
5.32768e-09
1.18829e-07
3.11356e-09
1.01013e-07
1.01651e-09
7.12224e-08
2.84369e-08
-2.93324e-06
-4.58721e-07
-2.91165e-06
-5.44259e-07
-2.88233e-06
-6.28164e-07
-2.84498e-06
-7.09698e-07
-2.79933e-06
-7.88107e-07
-2.7451e-06
-8.62577e-07
-2.68206e-06
-9.32249e-07
-2.61002e-06
-9.96218e-07
-2.52889e-06
-1.05355e-06
-2.4387e-06
-1.10329e-06
-2.33959e-06
-1.14451e-06
-2.2319e-06
-1.17629e-06
-2.11614e-06
-1.1978e-06
-1.99305e-06
-1.20833e-06
-1.86359e-06
-1.20731e-06
-1.72895e-06
-1.19441e-06
-1.59052e-06
-1.16951e-06
-1.44988e-06
-1.1328e-06
-1.30874e-06
-1.08477e-06
-1.16891e-06
-1.02622e-06
-1.03219e-06
-9.58289e-07
-9.00354e-07
-8.82372e-07
-7.75008e-07
-8.00105e-07
-6.57572e-07
-7.1329e-07
-5.49207e-07
-6.23814e-07
-4.50776e-07
-5.33571e-07
-3.6283e-07
-4.44381e-07
-2.85607e-07
-3.57925e-07
-2.19049e-07
-2.75694e-07
-1.62843e-07
-1.98965e-07
-1.16453e-07
-1.28791e-07
-7.9175e-08
-6.60196e-08
-5.01765e-08
-1.1323e-08
-2.8538e-08
3.47538e-08
-1.32861e-08
7.17411e-08
-3.41795e-09
9.91881e-08
2.08274e-09
1.16609e-07
4.23787e-09
1.23438e-07
4.07284e-09
1.18994e-07
2.6184e-09
1.02467e-07
9.12996e-10
7.29278e-08
2.93499e-08
-3.09668e-06
-4.68944e-07
-3.07947e-06
-5.61468e-07
-3.05495e-06
-6.52685e-07
-3.02276e-06
-7.41889e-07
-2.98251e-06
-8.28351e-07
-2.93382e-06
-9.11266e-07
-2.87631e-06
-9.89767e-07
-2.8096e-06
-1.06292e-06
-2.73343e-06
-1.12972e-06
-2.64758e-06
-1.18914e-06
-2.55199e-06
-1.2401e-06
-2.44674e-06
-1.28154e-06
-2.33212e-06
-1.31241e-06
-2.20867e-06
-1.33178e-06
-2.07716e-06
-1.33882e-06
-1.93865e-06
-1.33292e-06
-1.79446e-06
-1.3137e-06
-1.64618e-06
-1.28108e-06
-1.4956e-06
-1.23534e-06
-1.3447e-06
-1.17713e-06
-1.19552e-06
-1.10747e-06
-1.05013e-06
-1.02776e-06
-9.10494e-07
-9.39738e-07
-7.78414e-07
-8.4537e-07
-6.55424e-07
-7.46804e-07
-5.42739e-07
-6.46256e-07
-4.41218e-07
-5.45902e-07
-3.51344e-07
-4.47798e-07
-2.73245e-07
-3.53794e-07
-2.06715e-07
-2.65494e-07
-1.51273e-07
-1.84234e-07
-1.06207e-07
-1.11085e-07
-7.06388e-08
-4.68917e-08
-4.35695e-08
7.6844e-09
-2.3928e-08
5.20997e-08
-1.06034e-08
8.58636e-08
-2.46821e-09
1.08474e-07
1.60908e-09
1.19361e-07
2.75943e-09
1.17844e-07
2.11508e-09
1.03112e-07
8.13903e-10
7.42289e-08
3.01638e-08
-3.22984e-06
-4.75213e-07
-3.21725e-06
-5.74052e-07
-3.198e-06
-6.71935e-07
-3.17168e-06
-7.68215e-07
-3.13782e-06
-8.62211e-07
-3.09592e-06
-9.5316e-07
-3.04548e-06
-1.04022e-06
-2.98595e-06
-1.12244e-06
-2.91686e-06
-1.19882e-06
-2.83777e-06
-1.26823e-06
-2.74834e-06
-1.32952e-06
-2.64841e-06
-1.38147e-06
-2.53797e-06
-1.42285e-06
-2.41727e-06
-1.45248e-06
-2.28683e-06
-1.46926e-06
-2.14749e-06
-1.47226e-06
-2.00041e-06
-1.46078e-06
-1.84708e-06
-1.43441e-06
-1.6893e-06
-1.39312e-06
-1.52913e-06
-1.3373e-06
-1.36882e-06
-1.26778e-06
-1.21071e-06
-1.18587e-06
-1.05713e-06
-1.09331e-06
-9.1031e-07
-9.92193e-07
-7.72211e-07
-8.84904e-07
-6.44482e-07
-7.73984e-07
-5.28379e-07
-6.62005e-07
-4.24724e-07
-5.51453e-07
-3.33903e-07
-4.44614e-07
-2.55897e-07
-3.43501e-07
-1.90322e-07
-2.49809e-07
-1.365e-07
-1.64907e-07
-9.35256e-08
-8.98664e-08
-6.03295e-08
-2.55117e-08
-3.57407e-08
2.75109e-08
-1.8531e-08
6.86539e-08
-7.44829e-09
9.73913e-08
-1.23576e-09
1.13148e-07
1.3607e-09
1.15247e-07
1.59232e-09
1.0288e-07
7.16596e-10
7.51047e-08
3.08804e-08
-3.32852e-06
-4.77717e-07
-3.32055e-06
-5.82024e-07
-3.30675e-06
-6.85734e-07
-3.28669e-06
-7.88274e-07
-3.25986e-06
-8.89041e-07
-3.22568e-06
-9.87339e-07
-3.18352e-06
-1.08238e-06
-3.1327e-06
-1.17326e-06
-3.07256e-06
-1.25896e-06
-3.00242e-06
-1.33837e-06
-2.92171e-06
-1.41024e-06
-2.82993e-06
-1.47325e-06
-2.72677e-06
-1.52601e-06
-2.61215e-06
-1.56711e-06
-2.48624e-06
-1.59517e-06
-2.34957e-06
-1.60893e-06
-2.20303e-06
-1.60732e-06
-2.0479e-06
-1.58954e-06
-1.88588e-06
-1.55514e-06
-1.71901e-06
-1.50417e-06
-1.54966e-06
-1.43714e-06
-1.38039e-06
-1.35514e-06
-1.21388e-06
-1.25982e-06
-1.05278e-06
-1.1533e-06
-8.99527e-07
-1.03815e-06
-7.56293e-07
-9.17218e-07
-6.24818e-07
-7.9348e-07
-5.06364e-07
-6.69907e-07
-4.01681e-07
-5.49297e-07
-3.11018e-07
-4.34163e-07
-2.3417e-07
-3.26657e-07
-1.70542e-07
-2.28535e-07
-1.19236e-07
-1.41173e-07
-7.91295e-08
-6.56178e-08
-4.89567e-08
-2.66192e-09
-2.73658e-08
4.7063e-08
-1.2968e-08
8.29935e-08
-4.36517e-09
1.04545e-07
-1.627e-10
1.11045e-07
1.03366e-09
1.01684e-07
6.16988e-10
7.55213e-08
3.14974e-08
-3.39033e-06
-4.76857e-07
-3.38669e-06
-5.85668e-07
-3.37821e-06
-6.94219e-07
-3.36445e-06
-8.02033e-07
-3.34489e-06
-9.08601e-07
-3.3189e-06
-1.01332e-06
-3.28579e-06
-1.11549e-06
-3.24475e-06
-1.21429e-06
-3.19497e-06
-1.30874e-06
-3.13559e-06
-1.39776e-06
-3.06575e-06
-1.48008e-06
-2.98469e-06
-1.55431e-06
-2.89175e-06
-1.61895e-06
-2.78647e-06
-1.67239e-06
-2.66863e-06
-1.71301e-06
-2.53837e-06
-1.7392e-06
-2.39619e-06
-1.7495e-06
-2.24306e-06
-1.74267e-06
-2.08041e-06
-1.71779e-06
-1.91016e-06
-1.67442e-06
-1.73465e-06
-1.61265e-06
-1.55659e-06
-1.53321e-06
-1.37891e-06
-1.43749e-06
-1.20467e-06
-1.32755e-06
-1.03682e-06
-1.206e-06
-8.7808e-07
-1.07596e-06
-7.3078e-07
-9.40781e-07
-5.96729e-07
-8.03959e-07
-4.77156e-07
-6.6887e-07
-3.72693e-07
-5.38626e-07
-2.83405e-07
-4.15945e-07
-2.08857e-07
-3.03083e-07
-1.48211e-07
-2.01819e-07
-1.00324e-07
-1.13505e-07
-6.38465e-08
-3.91394e-08
-3.73044e-08
2.05209e-08
-1.91618e-08
6.48509e-08
-7.86315e-09
9.32467e-08
-1.85322e-09
1.05035e-07
4.18203e-10
9.94122e-08
5.09682e-10
7.54298e-08
3.20071e-08
-3.41497e-06
-4.73216e-07
-3.41513e-06
-5.85509e-07
-3.41151e-06
-6.97837e-07
-3.40372e-06
-8.09828e-07
-3.39123e-06
-9.21086e-07
-3.37343e-06
-1.03112e-06
-3.34958e-06
-1.13935e-06
-3.31882e-06
-1.24504e-06
-3.28022e-06
-1.34734e-06
-3.23277e-06
-1.44521e-06
-3.17542e-06
-1.53743e-06
-3.10711e-06
-1.62261e-06
-3.02688e-06
-1.69918e-06
-2.93387e-06
-1.7654e-06
-2.82745e-06
-1.81943e-06
-2.70728e-06
-1.85937e-06
-2.57341e-06
-1.88337e-06
-2.42637e-06
-1.88971e-06
-2.26719e-06
-1.87697e-06
-2.09749e-06
-1.84411e-06
-1.91945e-06
-1.79069e-06
-1.73576e-06
-1.7169e-06
-1.54951e-06
-1.62374e-06
-1.36407e-06
-1.51299e-06
-1.18288e-06
-1.3872e-06
-1.00924e-06
-1.24959e-06
-8.46139e-07
-1.10389e-06
-6.96031e-07
-9.54067e-07
-5.60755e-07
-8.04146e-07
-4.41454e-07
-6.57926e-07
-3.38585e-07
-5.18815e-07
-2.51974e-07
-3.89694e-07
-1.80916e-07
-2.72877e-07
-1.24297e-07
-1.70123e-07
-8.07117e-08
-8.27248e-08
-4.85702e-08
-1.16205e-08
-2.61853e-08
4.2466e-08
-1.18304e-08
7.88919e-08
-3.77247e-09
9.69769e-08
-2.80137e-10
9.59199e-08
3.87858e-10
7.47618e-08
3.23949e-08
-3.40422e-06
-4.67496e-07
-3.40747e-06
-5.82262e-07
-3.40801e-06
-6.97296e-07
-3.4055e-06
-8.12337e-07
-3.39948e-06
-9.27107e-07
-3.38936e-06
-1.04124e-06
-3.37442e-06
-1.15429e-06
-3.3538e-06
-1.26566e-06
-3.32652e-06
-1.37462e-06
-3.29147e-06
-1.48026e-06
-3.24745e-06
-1.58144e-06
-3.19322e-06
-1.67685e-06
-3.12749e-06
-1.7649e-06
-3.04907e-06
-1.84381e-06
-2.95691e-06
-1.9116e-06
-2.85016e-06
-1.96611e-06
-2.72837e-06
-2.00516e-06
-2.5915e-06
-2.02658e-06
-2.44009e-06
-2.02838e-06
-2.27529e-06
-2.00891e-06
-2.09893e-06
-1.96705e-06
-1.91349e-06
-1.90234e-06
-1.72207e-06
-1.81516e-06
-1.52821e-06
-1.70684e-06
-1.33575e-06
-1.57966e-06
-1.14855e-06
-1.43679e-06
-9.70271e-07
-1.28217e-06
-8.04117e-07
-1.12022e-06
-6.52654e-07
-9.55608e-07
-5.17682e-07
-7.92898e-07
-4.00189e-07
-6.36308e-07
-3.00389e-07
-4.89495e-07
-2.17813e-07
-3.55453e-07
-1.51447e-07
-2.36489e-07
-9.98723e-08
-1.34299e-07
-6.14056e-08
-5.00873e-08
-3.42099e-08
1.52703e-08
-1.63783e-08
6.10602e-08
-5.98222e-09
8.65808e-08
-1.08914e-09
9.10268e-08
2.43774e-10
7.34289e-08
3.26387e-08
-3.36176e-06
-4.60445e-07
-3.36727e-06
-5.76752e-07
-3.37108e-06
-6.93487e-07
-3.37292e-06
-8.10498e-07
-3.37241e-06
-9.27621e-07
-3.36903e-06
-1.04462e-06
-3.36213e-06
-1.16119e-06
-3.3509e-06
-1.27689e-06
-3.33437e-06
-1.39115e-06
-3.31142e-06
-1.5032e-06
-3.28079e-06
-1.61208e-06
-3.24106e-06
-1.71657e-06
-3.19078e-06
-1.81519e-06
-3.12843e-06
-1.90616e-06
-3.05258e-06
-1.98745e-06
-2.96193e-06
-2.05677e-06
-2.85545e-06
-2.11164e-06
-2.73252e-06
-2.14951e-06
-2.59305e-06
-2.16785e-06
-2.4376e-06
-2.16437e-06
-2.26745e-06
-2.1372e-06
-2.08469e-06
-2.08509e-06
-1.8922e-06
-2.00766e-06
-1.6935e-06
-1.90553e-06
-1.49268e-06
-1.78048e-06
-1.29406e-06
-1.63541e-06
-1.10196e-06
-1.47427e-06
-9.20369e-07
-1.30181e-06
-7.52693e-07
-1.12328e-06
-6.01527e-07
-9.44065e-07
-4.68551e-07
-7.69283e-07
-3.54518e-07
-6.03528e-07
-2.59326e-07
-4.50644e-07
-1.82159e-07
-3.13657e-07
-1.21651e-07
-1.94807e-07
-7.60617e-08
-9.5677e-08
-4.34169e-08
-1.73745e-08
-2.16263e-08
3.92696e-08
-8.55252e-09
7.3507e-08
-2.04346e-09
8.45178e-08
6.90444e-11
7.13164e-08
3.27078e-08
-3.29273e-06
-4.52777e-07
-3.29965e-06
-5.69831e-07
-3.30575e-06
-6.87391e-07
-3.31083e-06
-8.05409e-07
-3.31463e-06
-9.23822e-07
-3.31673e-06
-1.04252e-06
-3.31658e-06
-1.16134e-06
-3.31348e-06
-1.28e-06
-3.30652e-06
-1.3981e-06
-3.29466e-06
-1.51507e-06
-3.27662e-06
-1.63012e-06
-3.25097e-06
-1.74222e-06
-3.21611e-06
-1.85005e-06
-3.17033e-06
-1.95194e-06
-3.11189e-06
-2.04589e-06
-3.03906e-06
-2.1296e-06
-2.95032e-06
-2.20038e-06
-2.84442e-06
-2.2554e-06
-2.7206e-06
-2.29167e-06
-2.57869e-06
-2.30628e-06
-2.4193e-06
-2.29659e-06
-2.24391e-06
-2.26048e-06
-2.05492e-06
-2.19665e-06
-1.85564e-06
-2.10481e-06
-1.65015e-06
-1.98597e-06
-1.44309e-06
-1.84248e-06
-1.23932e-06
-1.67803e-06
-1.04362e-06
-1.49751e-06
-8.60284e-07
-1.30662e-06
-6.92831e-07
-1.11152e-06
-5.43799e-07
-9.18316e-07
-4.1465e-07
-7.32677e-07
-3.05809e-07
-5.59486e-07
-2.16784e-07
-4.02682e-07
-1.46358e-07
-2.65233e-07
-9.27868e-08
-1.49248e-07
-5.39895e-08
-5.61718e-08
-2.76971e-08
1.29773e-08
-1.1555e-08
5.73649e-08