/*--------------------------------*- C++ -*----------------------------------*\
  =========                 |
  \\      /  F ield         | OpenFOAM: The Open Source CFD Toolbox
   \\    /   O peration     | Website:  https://openfoam.org
    \\  /    A nd           | Version:  9
     \\/     M anipulation  |
\*---------------------------------------------------------------------------*/
FoamFile
{
    format      ascii;
    class       volScalarField;
    location    "1.75";
    object      p;
}
// * * * * * * * * * * * * * * * * * * * * * * * * * * * * * * * * * * * * * //

dimensions      [0 2 -2 0 0 0 0];

internalField   nonuniform List<scalar> 
1250
(
1.77948e-08
6.64155e-06
6.31226e-06
-1.95077e-06
-1.83425e-05
-4.24296e-05
-7.34415e-05
-0.000110583
-0.000153177
-0.000200697
-0.000252767
-0.000309136
-0.000369651
-0.000434234
-0.000502846
-0.000575477
-0.000652115
-0.00073274
-0.000817309
-0.000905747
-0.000997935
-0.00109371
-0.00119283
-0.00129501
-0.00139987
-0.00150693
-0.00161563
-0.00172527
-0.00183504
-6.63453e-06
-2.13056e-08
-1.52065e-06
-1.03428e-05
-2.61077e-05
-4.86168e-05
-7.74112e-05
-0.000111945
-0.000151715
-0.000196293
-0.000245364
-0.000298686
-0.000356092
-0.000417476
-0.000482769
-0.000551923
-0.000624902
-0.000701658
-0.000782135
-0.000866246
-0.000953873
-0.00104485
-0.00113898
-0.00123596
-0.00133547
-0.00143706
-0.00154022
-0.00164431
-0.00174858
-6.22137e-06
1.39304e-06
-2.8462e-07
-9.3042e-06
-2.47622e-05
-4.64472e-05
-7.39831e-05
-0.000106917
-0.000144831
-0.00018738
-0.00023427
-0.00028529
-0.000340281
-0.000399135
-0.000461775
-0.000528144
-0.000598196
-0.00067188
-0.000749137
-0.000829886
-0.000914019
-0.00100139
-0.00109182
-0.00118505
-0.00128079
-0.00137864
-0.00147815
-0.00157872
-0.00167968
2.52417e-06
1.0279e-05
8.24161e-06
-1.12734e-06
-1.66246e-05
-3.79587e-05
-6.47571e-05
-9.66066e-05
-0.000133145
-0.000174069
-0.000219136
-0.000268162
-0.00032101
-0.000377585
-0.000437818
-0.000501659
-0.000569065
-0.000639995
-0.000714402
-0.000792221
-0.000873369
-0.000957731
-0.00104516
-0.00113545
-0.00122835
-0.00132355
-0.00142063
-0.00151908
-0.00161825
2.01466e-05
2.64719e-05
2.33335e-05
1.3169e-05
-2.76573e-06
-2.412e-05
-5.05214e-05
-8.15908e-05
-0.000117018
-0.000156547
-0.000199983
-0.00024718
-0.000298032
-0.000352468
-0.000410438
-0.00047191
-0.000536859
-0.000605264
-0.000677103
-0.00075234
-0.000830931
-0.000912808
-0.000997873
-0.00108599
-0.00117697
-0.00127058
-0.00136648
-0.00146423
-0.00156324
4.64954e-05
4.99232e-05
4.48875e-05
3.34046e-05
1.6598e-05
-5.15266e-06
-3.14857e-05
-6.2075e-05
-9.66576e-05
-0.000135037
-0.000177069
-0.000222654
-0.000271729
-0.000324255
-0.000380214
-0.000439606
-0.000502435
-0.000568714
-0.000638461
-0.000711689
-0.000788406
-0.000868608
-0.000952272
-0.00103934
-0.00112971
-0.00122325
-0.00131971
-0.00141871
-0.00151975
8.09285e-05
8.02021e-05
7.25215e-05
5.91949e-05
4.10949e-05
1.85948e-05
-7.97995e-06
-3.83615e-05
-7.23565e-05
-0.000109833
-0.00015071
-0.000194944
-0.000242521
-0.00029345
-0.000347757
-0.000405483
-0.00046668
-0.00053141
-0.000599749
-0.000671777
-0.000747578
-0.000827233
-0.000910813
-0.000998364
-0.00108989
-0.00118537
-0.00128467
-0.00138747
-0.00149335
0.000122564
0.00011661
0.000105603
8.99718e-05
7.0188e-05
4.66223e-05
1.95406e-05
-1.0877e-05
-4.45227e-05
-8.13436e-05
-0.000121332
-0.000164514
-0.000210936
-0.000260666
-0.000313788
-0.0003704
-0.000430616
-0.00049457
-0.000562416
-0.000634323
-0.000710477
-0.000791069
-0.000876288
-0.000966306
-0.00106126
-0.00116125
-0.00126627
-0.00137608
-0.00149034
0.000170435
0.000158253
0.000143344
0.000124992
0.0001032
7.83062e-05
5.04903e-05
1.98186e-05
-1.37061e-05
-5.01281e-05
-8.95266e-05
-0.000132009
-0.000177698
-0.000226733
-0.000279269
-0.000335481
-0.000395567
-0.000459754
-0.000528298
-0.000601487
-0.000679633
-0.000763067
-0.000852126
-0.000947133
-0.00104838
-0.0011561
-0.00127044
-0.0013912
-0.00151815
0.000223354
0.000204128
0.000184794
0.000163369
0.000139302
0.000112864
8.41213e-05
5.29957e-05
1.93627e-05
-1.69381e-05
-5.60911e-05
-9.82977e-05
-0.000143771
-0.00019274
-0.00024545
-0.000302171
-0.000363211
-0.000428915
-0.000499673
-0.000575921
-0.00065813
-0.000746803
-0.000842453
-0.000945578
-0.00105664
-0.00117605
-0.00130408
-0.00144058
-0.00158541
0.000280041
0.000253019
0.000228816
0.00020403
0.000177476
0.000149323
0.000119488
8.77189e-05
5.37352e-05
1.72425e-05
-2.20675e-05
-6.45093e-05
-0.000110403
-0.000160084
-0.00021391
-0.000272276
-0.000335622
-0.000404445
-0.000479304
-0.000560816
-0.000649648
-0.000746508
-0.000852113
-0.000967167
-0.00109232
-0.00122817
-0.0013751
-0.00153304
-0.00170189
0.000339037
0.000303535
0.000274074
0.000245702
0.000216499
0.000186496
0.000155421
0.000122815
8.82149e-05
5.1166e-05
1.12191e-05
-3.2073e-05
-7.91588e-05
-0.000130503
-0.000186602
-0.000248002
-0.000315313
-0.000389219
-0.000470483
-0.000559942
-0.0006585
-0.000767102
-0.000886704
-0.00101823
-0.00116256
-0.00132044
-0.00149242
-0.00167843
-0.00187843
0.000398793
0.000354076
0.000319029
0.000286896
0.000254923
0.000222959
0.000190503
0.00015685
0.000121326
8.32923e-05
4.2134e-05
-2.75026e-06
-5.19597e-05
-0.000106117
-0.000165886
-0.000232001
-0.000305277
-0.000386626
-0.000477059
-0.000577676
-0.000689654
-0.000814211
-0.000952574
-0.00110592
-0.00127532
-0.00146175
-0.00166584
-0.00188753
-0.00212682
0.00045729
0.00040283
0.000361917
0.000325889
0.000291055
0.000257033
0.000223048
0.000188108
0.000151296
0.000111764
6.87068e-05
2.13431e-05
-3.11049e-05
-8.94476e-05
-0.000154555
-0.000227384
-0.000309001
-0.00040059
-0.000503455
-0.000619003
-0.000748725
-0.00089415
-0.00105679
-0.0012381
-0.00143937
-0.00166175
-0.00190597
-0.00217194
-0.00245967
0.000512518
0.000447755
0.000400735
0.000360714
0.000322952
0.000286776
0.00025109
0.000214575
0.000176039
0.000134393
8.86163e-05
3.77192e-05
-1.92869e-05
-8.34357e-05
-0.000155842
-0.000237733
-0.000330472
-0.000435564
-0.000554654
-0.000689502
-0.000841951
-0.00101387
-0.00120709
-0.00142333
-0.00166411
-0.00193075
-0.00222403
-0.00254381
-0.00289005
0.000562105
0.000486553
0.000433238
0.000389157
0.00034841
0.000309973
0.000272377
0.000233936
0.000193147
0.000148653
9.91846e-05
4.35141e-05
-1.95944e-05
-9.14386e-05
-0.000173423
-0.000267095
-0.000374165
-0.000496511
-0.000636168
-0.000795293
-0.000976116
-0.00118087
-0.00141173
-0.00167067
-0.00195944
-0.00227947
-0.00263158
-0.00301554
-0.00343118
0.000603429
0.000516687
0.000456935
0.000408752
0.000364964
0.000324134
0.000284367
0.000243571
0.000199893
0.00015168
9.73811e-05
3.54946e-05
-3.55023e-05
-0.000117217
-0.000211395
-0.000319953
-0.000445005
-0.000588855
-0.000753975
-0.000942959
-0.00115846
-0.00140309
-0.00167936
-0.00198951
-0.00233547
-0.00271877
-0.00314021
-0.00359937
-0.0040959
0.00063363
0.000535382
0.0004691
0.000416792
0.000369897
0.000326503
0.000284241
0.000240564
0.000193244
0.00014029
7.98414e-05
1.00806e-05
-7.08455e-05
-0.000164904
-0.000274232
-0.000401176
-0.000548307
-0.000718405
-0.000914425
-0.00113943
-0.00139652
-0.0016887
-0.00201881
-0.00238932
-0.00280231
-0.00325933
-0.00376108
-0.00430689
-0.00489615
0.000649614
0.000539645
0.000466787
0.00041034
0.000360255
0.00031408
0.000268917
0.000221732
0.000169881
0.000111007
4.28978e-05
-3.66193e-05
-0.000129776
-0.000238953
-0.000366735
-0.000515955
-0.000689692
-0.000891254
-0.00112412
-0.00139184
-0.00169798
-0.00204593
-0.00243882
-0.00287934
-0.00336964
-0.00391118
-0.00450446
-0.00514851
-0.0058423
0.00064808
0.000526285
0.000446853
0.000386259
0.000332873
0.000283639
0.000235086
0.000183651
0.000126242
6.01e-05
-1.73749e-05
-0.000108757
-0.000216708
-0.000344074
-0.000493948
-0.000669701
-0.000874976
-0.00111365
-0.00138974
-0.00170734
-0.00207043
-0.0024828
-0.0029478
-0.00346828
-0.00404637
-0.00468333
-0.00537926
-0.00613292
-0.00694254
0.000625554
0.000491948
0.000405992
0.000341246
0.000284413
0.000231776
0.000179248
0.000122701
5.85632e-05
-1.63602e-05
-0.0001051
-0.000210677
-0.000336235
-0.000485143
-0.000661056
-0.000867938
-0.00111004
-0.00139183
-0.00171792
-0.00209288
-0.00252115
-0.00300682
-0.00355345
-0.00416391
-0.00484023
-0.00558331
-0.00639249
-0.00726637
0.000578436
0.000433166
0.000340784
0.000271874
0.000211409
0.000154954
9.7767e-05
3.51258e-05
-3.70533e-05
-0.000122437
-0.000224527
-0.000346838
-0.000493049
-0.000667105
-0.000873276
-0.00111617
-0.00140067
-0.00173188
-0.00211496
-0.00255501
-0.00305682
-0.00362474
-0.00426242
-0.00497265
-0.0057572
-0.00661644
-0.00754889
-0.00855239
0.000503056
0.000346406
0.000247742
0.00017465
0.000110322
4.95601e-05
-1.30668e-05
-8.29036e-05
-0.000164573
-0.000262249
-0.000379943
-0.000521714
-0.000691823
-0.000894847
-0.00113572
-0.00141971
-0.00175239
-0.00213948
-0.0025867
-0.00309958
-0.00368326
-0.00434222
-0.00508005
-0.00589932
-0.00680132
-0.00778572
-0.00885008
-0.00999117
0.000395738
0.000228133
0.00012338
4.6076e-05
-2.23923e-05
-8.80241e-05
-0.000156967
-0.000235211
-0.000327945
-0.00043988
-0.000575579
-0.000739689
-0.000937106
-0.00117308
-0.00145323
-0.00178356
-0.0021703
-0.00261977
-0.00313823
-0.00373158
-0.00440518
-0.00516352
-0.00601001
-0.00694676
-0.00797437
-0.00909159
-0.0102948
-0.0115795
0.000252871
7.48829e-05
-3.5723e-05
-0.000117282
-0.000190212
-0.000261347
-0.00033757
-0.000425531
-0.000531009
-0.000659281
-0.000815502
-0.00100495
-0.00123319
-0.00150618
-0.00183029
-0.00221221
-0.00265885
-0.00317712
-0.00377371
-0.00445483
-0.00522592
-0.00609132
-0.00705406
-0.00811558
-0.00927556
-0.0105316
-0.0118786
-0.0133106
7.09899e-05
-0.000116666
-0.000232843
-0.000318711
-0.000396469
-0.000473803
-0.000558344
-0.000657413
-0.000777396
-0.000924166
-0.0011035
-0.00132134
-0.00158396
-0.00189808
-0.00227078
-0.00270948
-0.00322172
-0.00381493
-0.00449617
-0.00527183
-0.00614725
-0.00712646
-0.00821187
-0.00940403
-0.0107014
-0.0121002
-0.0135938
-0.0151742
-0.000153144
-0.000349608
-0.000471033
-0.000561275
-0.000644264
-0.000728545
-0.0008225
-0.000934127
-0.00107043
-0.0012379
-0.00144297
-0.00169227
-0.00199283
-0.00235209
-0.00277791
-0.00327837
-0.00386161
-0.00453549
-0.00530734
-0.00618354
-0.0071692
-0.00826781
-0.00948091
-0.0108079
-0.0122459
-0.0137892
-0.0154297
-0.0171572
-0.000422458
-0.000626735
-0.000753041
-0.000847732
-0.000936382
-0.0010284
-0.0011329
-0.00125857
-0.00141303
-0.00160341
-0.00183681
-0.0021206
-0.00246253
-0.00287082
-0.00335404
-0.00392093
-0.00458012
-0.00533984
-0.00620749
-0.00718933
-0.00829
-0.00951222
-0.0108564
-0.0123207
-0.0139002
-0.0155878
-0.017373
-0.0192436
-0.000739486
-0.00095045
-0.00108123
-0.00118045
-0.00127521
-0.00137576
-0.00149196
-0.00163315
-0.00180759
-0.00202305
-0.00228731
-0.00260848
-0.00299506
-0.00345601
-0.0040006
-0.00463812
-0.00537766
-0.00622763
-0.0071954
-0.00828687
-0.00950602
-0.0108546
-0.0123316
-0.0139335
-0.0156537
-0.0174828
-0.0194083
-0.0214159
-0.00110629
-0.0013227
-0.00145751
-0.00156132
-0.00166264
-0.00177254
-0.00190159
-0.00205975
-0.00225593
-0.00249854
-0.00279606
-0.00315731
-0.00359156
-0.00410847
-0.00471793
-0.00542976
-0.00625332
-0.00719712
-0.00826829
-0.00947217
-0.0108119
-0.0122878
-0.0138976
-0.0156357
-0.0174935
-0.0194593
-0.0215187
-0.0236551
-0.00152439
-0.00174489
-0.00188324
-0.00199171
-0.00210003
-0.00222007
-0.00236306
-0.00253959
-0.00275917
-0.00303087
-0.00336385
-0.00376766
-0.00425226
-0.004828
-0.00550532
-0.00629444
-0.00720492
-0.00824514
-0.00942185
-0.0107396
-0.0122004
-0.0138033
-0.015544
-0.0174149
-0.0194054
-0.0215015
-0.0236865
-0.0259418
-0.00199468
-0.00221783
-0.00235921
-0.00247236
-0.00258811
-0.00271904
-0.002877
-0.00307319
-0.00331771
-0.00362026
-0.00399066
-0.00443916
-0.0049764
-0.00561333
-0.00636088
-0.00722955
-0.00822893
-0.00936715
-0.0106503
-0.0120821
-0.0136632
-0.0153908
-0.0172589
-0.0192577
-0.0213742
-0.0235924
-0.0258934
-0.0282568
-0.00251743
-0.0027417
-0.00288554
-0.00300339
-0.00312694
-0.00326943
-0.00344332
-0.00366034
-0.00393115
-0.00426606
-0.00467555
-0.00517051
-0.00576222
-0.00646215
-0.00728161
-0.00823127
-0.0093206
-0.0105573
-0.0119467
-0.0134913
-0.0151902
-0.017039
-0.0190295
-0.0211497
-0.0233843
-0.0257152
-0.0281216
-0.0305814
-0.00309216
-0.00331599
-0.00346168
-0.0035842
-0.00371586
-0.00387052
-0.00406115
-0.0043
-0.00459825
-0.00496678
-0.00541669
-0.00595946
-0.00660695
-0.00737107
-0.0082634
-0.00929464
-0.010474
-0.0118086
-0.0133027
-0.0149577
-0.0167708
-0.0187358
-0.0208423
-0.0230762
-0.0254199
-0.0278532
-0.0303538
-0.0328982
-0.0037177
-0.00393947
-0.00408638
-0.00421348
-0.00435349
-0.00452081
-0.00472888
-0.00499038
-0.00531697
-0.00572008
-0.00621135
-0.00680283
-0.00750686
-0.00833571
-0.00930111
-0.0104137
-0.0116822
-0.0131129
-0.0147093
-0.0164708
-0.0183933
-0.0204684
-0.0226835
-0.0250224
-0.0274655
-0.0299906
-0.032574
-0.0351911
-0.00439214
-0.00461022
-0.00475768
-0.00488921
-0.00503773
-0.00521809
-0.0054441
-0.00572885
-0.00608443
-0.00652274
-0.00705593
-0.00769654
-0.00845731
-0.00935076
-0.0103887
-0.0115814
-0.0129372
-0.0144615
-0.0161563
-0.0180198
-0.0200458
-0.0222239
-0.0245394
-0.026974
-0.0295062
-0.0321123
-0.0347673
-0.0374456
-0.00511285
-0.00532559
-0.00547289
-0.00560866
-0.00576574
-0.00595936
-0.00620366
-0.00651204
-0.00689697
-0.00737075
-0.007946
-0.00863566
-0.00945279
-0.0104101
-0.0115192
-0.0127902
-0.0142306
-0.0158448
-0.0176336
-0.0195933
-0.0217161
-0.0239893
-0.0263965
-0.0289172
-0.0315282
-0.0342046
-0.0369202
-0.0396492
-0.00587649
-0.00608228
-0.0062287
-0.00636842
-0.006534
-0.00674096
-0.0070037
-0.00733584
-0.00775017
-0.00825936
-0.00887639
-0.00961453
-0.0104871
-0.0115067
-0.0126851
-0.0140316
-0.0155531
-0.0172529
-0.0191302
-0.0211798
-0.023392
-0.0257521
-0.0282418
-0.0308388
-0.0335185
-0.0362548
-0.039021
-0.0417909
-0.00667907
-0.00687635
-0.00702112
-0.00716444
-0.00733835
-0.00755858
-0.00783969
-0.00819548
-0.00863898
-0.00918314
-0.00984124
-0.0106268
-0.0115533
-0.0126333
-0.0138782
-0.0152968
-0.0168952
-0.0186754
-0.0206353
-0.0227679
-0.0250616
-0.0275001
-0.030063
-0.0327268
-0.0354654
-0.0382519
-0.0410592
-0.0438612
-0.00751603
-0.00770328
-0.00784562
-0.00799211
-0.00817404
-0.00840729
-0.00870651
-0.0090856
-0.00955773
-0.0101361
-0.0108342
-0.0116657
-0.012644
-0.0137819
-0.01509
-0.0165768
-0.0182473
-0.0201023
-0.0221382
-0.0243465
-0.0267136
-0.0292218
-0.0318489
-0.0345701
-0.0373584
-0.0401861
-0.043026
-0.0458523
-0.00838225
-0.00855803
-0.00869714
-0.00884629
-0.00903582
-0.00928169
-0.00959855
-0.0100003
-0.0105003
-0.0111117
-0.0118483
-0.0127238
-0.0137516
-0.0149441
-0.0163118
-0.0178623
-0.0195995
-0.0215232
-0.0236283
-0.0259046
-0.0283372
-0.0309064
-0.0335889
-0.0363587
-0.039188
-0.0420487
-0.0449137
-0.0477576
-0.0092722
-0.00943516
-0.00957023
-0.00972145
-0.00991804
-0.0101759
-0.0105098
-0.0109334
-0.01146
-0.0121031
-0.0128764
-0.0137935
-0.0148679
-0.0161117
-0.0175347
-0.0191439
-0.0209422
-0.0229282
-0.0250954
-0.0274322
-0.029922
-0.0325439
-0.0352735
-0.0380835
-0.0409459
-0.0438323
-0.0467159
-0.0495717
-0.01018
-0.0103289
-0.0104591
-0.0106117
-0.0108147
-0.0110839
-0.0114338
-0.0118782
-0.0124303
-0.0131033
-0.0139111
-0.0148673
-0.015985
-0.0172761
-0.0187499
-0.0204125
-0.0222661
-0.0243078
-0.02653
-0.0289196
-0.0314588
-0.0341254
-0.036894
-0.0397367
-0.042625
-0.0455306
-0.048427
-0.0512899
-0.011358
-0.0115112
-0.0117197
-0.0119992
-0.0123642
-0.012828
-0.0134038
-0.0141048
-0.0149447
-0.0159369
-0.0170945
-0.0184287
-0.0199484
-0.0216591
-0.0235617
-0.0256525
-0.0279226
-0.0303576
-0.0329386
-0.0356423
-0.0384426
-0.0413111
-0.0442189
-0.0471381
-0.0500425
-0.0529086
)
;

boundaryField
{
    movingWall
    {
        type            zeroGradient;
    }
    fixedWalls
    {
        type            zeroGradient;
    }
    frontAndBack
    {
        type            empty;
    }
    procBoundary0to1
    {
        type            processor;
        value           nonuniform List<scalar> 
45
(
-0.00194403
-0.00185221
-0.00178027
-0.00171752
-0.00166301
-0.00162244
-0.00160207
-0.00160891
-0.00165127
-0.00173867
-0.00188185
-0.00209268
-0.002384
-0.00276941
-0.00326292
-0.00387851
-0.00462955
-0.00552817
-0.00658452
-0.00780609
-0.00820236
-0.00820236
-0.0096237
-0.0112048
-0.01294
-0.0148201
-0.0168321
-0.0189603
-0.0211861
-0.0234898
-0.0258507
-0.0282479
-0.0306614
-0.0330721
-0.0354627
-0.0378175
-0.0401228
-0.042367
-0.0445401
-0.0466338
-0.0486415
-0.0505576
-0.0523778
-0.0540982
-0.0557162
)
;
    }
    procBoundary0to3
    {
        type            processor;
        value           nonuniform List<scalar> 
29
(
-0.0110997
-0.0112334
-0.0112334
-0.0122606
-0.0124137
-0.0126269
-0.0129159
-0.0132947
-0.0137765
-0.0143743
-0.015101
-0.0159703
-0.0169953
-0.0181889
-0.0195618
-0.0211225
-0.0228754
-0.0248209
-0.0269541
-0.029265
-0.0317382
-0.0343537
-0.0370875
-0.0399126
-0.0428005
-0.0457223
-0.0486501
-0.0515584
-0.0544244
)
;
    }
}


// ************************************************************************* //
