/*--------------------------------*- C++ -*----------------------------------*\
  =========                 |
  \\      /  F ield         | OpenFOAM: The Open Source CFD Toolbox
   \\    /   O peration     | Website:  https://openfoam.org
    \\  /    A nd           | Version:  9
     \\/     M anipulation  |
\*---------------------------------------------------------------------------*/
FoamFile
{
    format      ascii;
    class       surfaceScalarField;
    location    "1.75";
    object      phi;
}
// * * * * * * * * * * * * * * * * * * * * * * * * * * * * * * * * * * * * * //

dimensions      [0 3 -1 0 0 0 0];

internalField   nonuniform List<scalar> 
2427
(
1.21653e-10
-1.21793e-10
5.74008e-10
-4.52355e-10
1.21076e-09
-6.36756e-10
1.89094e-09
-6.80168e-10
2.52482e-09
-6.33883e-10
3.06104e-09
-5.36209e-10
3.47343e-09
-4.12395e-10
3.75153e-09
-2.78097e-10
3.89355e-09
-1.4202e-10
3.90178e-09
-8.22988e-12
3.77943e-09
1.22356e-10
3.5289e-09
2.50532e-10
3.15078e-09
3.7812e-10
2.6434e-09
5.07375e-10
2.00281e-09
6.40597e-10
1.2229e-09
7.79904e-10
2.95803e-10
9.27103e-10
-7.87828e-10
1.08363e-09
-2.0384e-09
1.25057e-09
-3.46705e-09
1.42865e-09
-5.08531e-09
1.61826e-09
-6.90484e-09
1.81953e-09
-8.93711e-09
2.03227e-09
-1.11931e-08
2.25601e-09
-1.36831e-08
2.48995e-09
-1.6416e-08
2.73292e-09
-1.93993e-08
2.98327e-09
-2.2638e-08
3.23874e-09
3.49691e-09
4.56996e-10
-5.78786e-10
1.48187e-09
-1.47722e-09
2.78123e-09
-1.93612e-09
4.12082e-09
-2.01976e-09
5.32947e-09
-1.84254e-09
6.29454e-09
-1.50128e-09
6.94897e-09
-1.06682e-09
7.25738e-09
-5.86504e-10
7.20388e-09
-8.8523e-11
6.78386e-09
4.11794e-10
5.99567e-09
9.1055e-10
4.8376e-09
1.40861e-09
3.30469e-09
1.91104e-09
1.38747e-09
2.42459e-09
-9.28398e-10
2.95647e-09
-3.6619e-09
3.51341e-09
-6.83602e-09
4.10122e-09
-1.04769e-08
4.72448e-09
-1.46128e-08
5.38648e-09
-1.92733e-08
6.08922e-09
-2.44885e-08
6.83345e-09
-3.02877e-08
7.61868e-09
-3.66987e-08
8.44326e-09
-4.37469e-08
9.30425e-09
-5.14543e-08
1.01974e-08
-5.98383e-08
1.11169e-08
-6.89104e-08
1.20554e-08
-7.8675e-08
1.30033e-08
1.39505e-08
6.48382e-10
-1.22717e-09
1.94948e-09
-2.77831e-09
3.50266e-09
-3.48929e-09
5.01989e-09
-3.53699e-09
6.29176e-09
-3.11441e-09
7.17541e-09
-2.38493e-09
7.58024e-09
-1.47164e-09
7.45296e-09
-4.5923e-10
6.76482e-09
5.99624e-10
5.49955e-09
1.67706e-09
3.64691e-09
2.76319e-09
1.19579e-09
3.85974e-09
-1.86884e-09
4.97567e-09
-5.56777e-09
6.12353e-09
-9.92815e-09
7.31684e-09
-1.49831e-08
8.56835e-09
-2.07708e-08
9.8889e-09
-2.73332e-08
1.12869e-08
-3.47147e-08
1.2768e-08
-4.29606e-08
1.43351e-08
-5.21154e-08
1.59883e-08
-6.22215e-08
1.77248e-08
-7.33176e-08
1.95394e-08
-8.5437e-08
2.14236e-08
-9.86057e-08
2.33661e-08
-1.12841e-07
2.53522e-08
-1.28149e-07
2.73636e-08
-1.44524e-07
2.93778e-08
3.13708e-08
6.91115e-10
-1.91828e-09
2.00775e-09
-4.09495e-09
3.48146e-09
-4.96299e-09
4.79164e-09
-4.84717e-09
5.71203e-09
-4.0348e-09
6.08828e-09
-2.76117e-09
5.81983e-09
-1.20319e-09
4.84381e-09
5.16786e-10
3.12118e-09
2.32226e-09
6.25719e-10
4.17252e-09
-2.66413e-09
6.05305e-09
-6.77144e-09
7.96704e-09
-1.17242e-08
9.92845e-09
-1.75573e-08
1.19566e-08
-2.43125e-08
1.40721e-08
-3.20384e-08
1.62943e-08
-4.07888e-08
1.86392e-08
-5.06208e-08
2.11189e-08
-6.15933e-08
2.37405e-08
-7.37648e-08
2.65066e-08
-8.7191e-08
2.94145e-08
-1.01923e-07
3.24568e-08
-1.18005e-07
3.56213e-08
-1.35471e-07
3.88902e-08
-1.54346e-07
4.22405e-08
-1.74637e-07
4.56432e-08
-1.96337e-07
4.90634e-08
-2.19418e-07
5.24593e-08
5.57862e-08
6.25878e-10
-2.54416e-09
1.73745e-09
-5.20653e-09
2.84509e-09
-6.07064e-09
3.61902e-09
-5.6211e-09
3.83237e-09
-4.24815e-09
3.33227e-09
-2.26108e-09
2.01803e-09
1.11048e-10
-1.76236e-10
2.71105e-09
-3.29582e-09
5.44185e-09
-7.37601e-09
8.25271e-09
-1.245e-08
1.11271e-08
-1.85544e-08
1.40714e-08
-2.57321e-08
1.71062e-08
-3.40339e-08
2.02583e-08
-4.3518e-08
2.35562e-08
-5.42493e-08
2.70255e-08
-6.6297e-08
3.0687e-08
-7.97332e-08
3.45551e-08
-9.46295e-08
3.86368e-08
-1.11055e-07
4.2932e-08
-1.29073e-07
4.74325e-08
-1.48739e-07
5.21228e-08
-1.70097e-07
5.69792e-08
-1.93177e-07
6.197e-08
-2.17991e-07
6.70551e-08
-2.44533e-07
7.21852e-08
-2.72772e-07
7.7302e-08
-3.0265e-07
8.23378e-08
8.72206e-08
4.81967e-10
-3.02613e-09
1.20691e-09
-5.93147e-09
1.70297e-09
-6.56669e-09
1.65449e-09
-5.57263e-09
8.49651e-10
-3.44331e-09
-8.52201e-10
-5.59227e-10
-3.54374e-09
2.80259e-09
-7.28872e-09
6.45603e-09
-1.21353e-08
1.02884e-08
-1.81264e-08
1.42438e-08
-2.53068e-08
1.83075e-08
-3.37276e-08
2.24922e-08
-4.34479e-08
2.68265e-08
-5.45358e-08
3.13462e-08
-6.7067e-08
3.60874e-08
-8.1123e-08
4.10815e-08
-9.67888e-08
4.63528e-08
-1.1415e-07
5.1916e-08
-1.33288e-07
5.77755e-08
-1.54282e-07
6.39252e-08
-1.77197e-07
7.03476e-08
-2.02088e-07
7.70144e-08
-2.28995e-07
8.38858e-08
-2.57935e-07
9.09101e-08
-2.88904e-07
9.80239e-08
-3.2187e-07
1.05151e-07
-3.56771e-07
1.12204e-07
-3.93514e-07
1.19081e-07
1.25676e-07
2.77828e-10
-3.30396e-09
4.65515e-10
-6.11916e-09
1.38052e-10
-6.23923e-09
-9.83154e-10
-4.45142e-09
-3.08176e-09
-1.34471e-09
-6.2755e-09
2.63451e-09
-1.06424e-08
7.16945e-09
-1.62388e-08
1.20525e-08
-2.31133e-08
1.71629e-08
-3.13153e-08
2.24458e-08
-4.0901e-08
2.78933e-08
-5.19365e-08
3.35277e-08
-6.44983e-08
3.93883e-08
-7.86724e-08
4.55204e-08
-9.45526e-08
5.19676e-08
-1.12237e-07
5.87661e-08
-1.31826e-07
6.59415e-08
-1.53416e-07
7.35061e-08
-1.77099e-07
8.14582e-08
-2.02955e-07
8.97814e-08
-2.31052e-07
9.84443e-08
-2.61438e-07
1.07401e-07
-2.9414e-07
1.16588e-07
-3.29159e-07
1.25929e-07
-3.66465e-07
1.3533e-07
-4.05995e-07
1.44682e-07
-4.4765e-07
1.53859e-07
-4.91291e-07
1.62721e-07
1.71125e-07
2.54709e-11
-3.32943e-09
-4.52376e-10
-5.64131e-09
-1.78744e-09
-4.90417e-09
-4.20482e-09
-2.03404e-09
-7.8438e-09
2.29427e-09
-1.27904e-08
7.58116e-09
-1.91015e-08
1.34805e-08
-2.68223e-08
1.97733e-08
-3.59993e-08
2.63399e-08
-4.66877e-08
3.31342e-08
-5.89551e-08
4.01607e-08
-7.2883e-08
4.74556e-08
-8.85658e-08
5.50711e-08
-1.06108e-07
6.30628e-08
-1.25622e-07
7.14813e-08
-1.47221e-07
8.03656e-08
-1.7102e-07
8.97399e-08
-1.97124e-07
9.96104e-08
-2.25631e-07
1.09965e-07
-2.56622e-07
1.20772e-07
-2.90158e-07
1.31981e-07
-3.26277e-07
1.4352e-07
-3.64989e-07
1.55299e-07
-4.06268e-07
1.67208e-07
-4.50055e-07
1.79117e-07
-4.96248e-07
1.90875e-07
-5.44704e-07
2.02315e-07
-5.95235e-07
2.13252e-07
2.23499e-07
-2.71048e-10
-3.05838e-09
-1.52651e-09
-4.38585e-09
-4.03367e-09
-2.39701e-09
-7.94589e-09
1.87818e-09
-1.3347e-08
7.69537e-09
-2.02819e-08
1.45161e-08
-2.87803e-08
2.19788e-08
-3.8873e-08
2.98659e-08
-5.06026e-08
3.80695e-08
-6.40293e-08
4.65609e-08
-7.92325e-08
5.53638e-08
-9.63096e-08
6.45327e-08
-1.15373e-07
7.41346e-08
-1.36546e-07
8.4236e-08
-1.59958e-07
9.48933e-08
-1.85739e-07
1.06146e-07
-2.14012e-07
1.18013e-07
-2.44891e-07
1.3049e-07
-2.78476e-07
1.4355e-07
-3.14843e-07
1.57139e-07
-3.54043e-07
1.71181e-07
-3.96097e-07
1.85574e-07
-4.4099e-07
2.00192e-07
-4.88667e-07
2.14885e-07
-5.39031e-07
2.2948e-07
-5.91937e-07
2.43781e-07
-6.47193e-07
2.57572e-07
-7.04561e-07
2.7062e-07
2.82694e-07
-6.059e-10
-2.45248e-09
-2.74225e-09
-2.24951e-09
-6.57053e-09
1.43128e-09
-1.21582e-08
7.46585e-09
-1.95221e-08
1.50592e-08
-2.8658e-08
2.3652e-08
-3.95633e-08
3.28841e-08
-5.22514e-08
4.2554e-08
-6.67601e-08
5.25782e-08
-8.31542e-08
6.2955e-08
-1.01525e-07
7.37346e-08
-1.21986e-07
8.49938e-08
-1.44668e-07
9.68167e-08
-1.69713e-07
1.09281e-07
-1.97266e-07
1.22446e-07
-2.27469e-07
1.36349e-07
-2.60455e-07
1.50999e-07
-2.96343e-07
1.66377e-07
-3.35226e-07
1.82433e-07
-3.77174e-07
1.99087e-07
-4.22222e-07
2.16229e-07
-4.70368e-07
2.33719e-07
-5.21566e-07
2.51391e-07
-5.75727e-07
2.69046e-07
-6.3271e-07
2.86463e-07
-6.92325e-07
3.03396e-07
-7.54331e-07
3.19578e-07
-8.18436e-07
3.34725e-07
3.48563e-07
-9.78515e-10
-1.47396e-09
-4.09075e-09
8.6273e-10
-9.37684e-09
6.71737e-09
-1.68046e-08
1.48936e-08
-2.6313e-08
2.45676e-08
-3.78416e-08
3.51806e-08
-5.13511e-08
4.63936e-08
-6.68353e-08
5.80383e-08
-8.43262e-08
7.00691e-08
-1.03893e-07
8.25224e-08
-1.25641e-07
9.54817e-08
-1.49697e-07
1.09051e-07
-1.76213e-07
1.23332e-07
-2.05345e-07
1.38413e-07
-2.37255e-07
1.54356e-07
-2.72095e-07
1.71189e-07
-3.10002e-07
1.88907e-07
-3.51095e-07
2.0747e-07
-3.9546e-07
2.26799e-07
-4.43152e-07
2.46779e-07
-4.94185e-07
2.67261e-07
-5.48527e-07
2.88062e-07
-6.061e-07
3.08964e-07
-6.66773e-07
3.29719e-07
-7.30361e-07
3.50051e-07
-7.96624e-07
3.6966e-07
-8.65273e-07
3.88226e-07
-9.35965e-07
4.05418e-07
4.20917e-07
-1.38742e-09
-8.6545e-11
-5.56475e-09
5.04006e-09
-1.24357e-08
1.35883e-08
-2.18538e-08
2.43118e-08
-3.36708e-08
3.63846e-08
-4.77637e-08
4.92735e-08
-6.40528e-08
6.26828e-08
-8.25109e-08
7.64963e-08
-1.03164e-07
9.0722e-08
-1.26086e-07
1.05445e-07
-1.51394e-07
1.20789e-07
-1.79234e-07
1.3689e-07
-2.09771e-07
1.53869e-07
-2.4318e-07
1.71822e-07
-2.79633e-07
1.90809e-07
-3.1929e-07
2.10846e-07
-3.62291e-07
2.31908e-07
-4.08746e-07
2.53925e-07
-4.58731e-07
2.76784e-07
-5.1228e-07
3.00328e-07
-5.6938e-07
3.24362e-07
-6.29968e-07
3.4865e-07
-6.93925e-07
3.72921e-07
-7.61077e-07
3.9687e-07
-8.31191e-07
4.20165e-07
-9.03981e-07
4.4245e-07
-9.79108e-07
4.63353e-07
-1.05619e-06
4.82496e-07
4.99523e-07
-1.82932e-09
1.74277e-09
-7.15814e-09
1.03689e-08
-1.57311e-08
2.21612e-08
-2.72762e-08
3.5857e-08
-4.15488e-08
5.06571e-08
-5.83576e-08
6.60824e-08
-7.75802e-08
8.19054e-08
-9.91669e-08
9.8083e-08
-1.23137e-07
1.14692e-07
-1.49572e-07
1.31879e-07
-1.78599e-07
1.49817e-07
-2.10381e-07
1.68672e-07
-2.451e-07
1.88588e-07
-2.82943e-07
2.09666e-07
-3.24093e-07
2.31958e-07
-3.68711e-07
2.55464e-07
-4.16934e-07
2.80131e-07
-4.68863e-07
3.05854e-07
-5.24555e-07
3.32476e-07
-5.8402e-07
3.59793e-07
-6.47213e-07
3.87555e-07
-7.14032e-07
4.15469e-07
-7.84317e-07
4.43206e-07
-8.57847e-07
4.704e-07
-9.34344e-07
4.96662e-07
-1.01347e-06
5.21579e-07
-1.09485e-06
5.44732e-07
-1.17805e-06
5.65698e-07
5.84092e-07
-2.30717e-09
4.04994e-09
-8.86524e-09
1.6927e-08
-1.9247e-08
3.2543e-08
-3.30414e-08
4.96513e-08
-4.98987e-08
6.75144e-08
-6.95549e-08
8.57386e-08
-9.18422e-08
1.04193e-07
-1.16688e-07
1.22929e-07
-1.44107e-07
1.42111e-07
-1.74184e-07
1.61957e-07
-2.07062e-07
1.82694e-07
-2.42917e-07
2.04527e-07
-2.81945e-07
2.27617e-07
-3.24346e-07
2.52067e-07
-3.70306e-07
2.77917e-07
-4.19987e-07
3.05145e-07
-4.73517e-07
3.33661e-07
-5.3098e-07
3.63317e-07
-5.92411e-07
3.93907e-07
-6.5779e-07
4.25171e-07
-7.27035e-07
4.56799e-07
-8.00003e-07
4.88438e-07
-8.7649e-07
5.19693e-07
-9.56229e-07
5.50139e-07
-1.03889e-06
5.79326e-07
-1.12411e-06
6.06791e-07
-1.21144e-06
6.32067e-07
-1.30044e-06
6.54696e-07
6.74266e-07
-2.81713e-09
6.86707e-09
-1.06776e-08
2.47874e-08
-2.29643e-08
4.48297e-08
-3.91151e-08
6.58021e-08
-5.86678e-08
8.70671e-08
-8.12815e-08
1.08352e-07
-1.06741e-07
1.29653e-07
-1.34952e-07
1.5114e-07
-1.65923e-07
1.73082e-07
-1.99747e-07
1.9578e-07
-2.36576e-07
2.19523e-07
-2.76602e-07
2.44554e-07
-3.20034e-07
2.71049e-07
-3.67078e-07
2.9911e-07
-4.1792e-07
3.2876e-07
-4.72719e-07
3.59943e-07
-5.31587e-07
3.92529e-07
-5.94589e-07
4.26319e-07
-6.6173e-07
4.61049e-07
-7.32956e-07
4.96397e-07
-8.08145e-07
5.31988e-07
-8.8711e-07
5.67403e-07
-9.69601e-07
6.02183e-07
-1.0553e-06
6.3584e-07
-1.14384e-06
6.67868e-07
-1.2348e-06
6.97753e-07
-1.32772e-06
7.24987e-07
-1.42211e-06
7.49081e-07
7.69603e-07
-3.35647e-09
1.02235e-08
-1.25847e-08
3.40156e-08
-2.68601e-08
5.91052e-08
-4.5458e-08
8.44e-08
-6.77969e-08
1.09406e-07
-9.34556e-08
1.34011e-07
-1.22172e-07
1.58369e-07
-1.53828e-07
1.82796e-07
-1.88427e-07
2.07682e-07
-2.2607e-07
2.33423e-07
-2.6692e-07
2.60374e-07
-3.11182e-07
2.88815e-07
-3.59072e-07
3.18939e-07
-4.10801e-07
3.50839e-07
-4.66553e-07
3.84512e-07
-5.26474e-07
4.19864e-07
-5.90658e-07
4.56713e-07
-6.59142e-07
4.94804e-07
-7.31901e-07
5.33807e-07
-8.08839e-07
5.73334e-07
-8.89791e-07
6.12941e-07
-9.74526e-07
6.52138e-07
-1.06274e-06
6.904e-07
-1.15408e-06
7.27179e-07
-1.24813e-06
7.61914e-07
-1.34442e-06
7.94045e-07
-1.44246e-06
8.23029e-07
-1.54173e-06
8.48349e-07
8.69563e-07
-3.92206e-09
1.41456e-08
-1.45741e-08
4.46676e-08
-3.09077e-08
7.54388e-08
-5.20249e-08
1.05517e-07
-7.72193e-08
1.346e-07
-1.05987e-07
1.62779e-07
-1.38017e-07
1.90399e-07
-1.7317e-07
2.17949e-07
-2.11445e-07
2.45957e-07
-2.52949e-07
2.74926e-07
-2.97856e-07
3.05281e-07
-3.46379e-07
3.37339e-07
-3.98743e-07
3.71303e-07
-4.55157e-07
4.07252e-07
-5.15795e-07
4.4515e-07
-5.80788e-07
4.84856e-07
-6.50206e-07
5.26131e-07
-7.24054e-07
5.68653e-07
-8.02269e-07
6.12022e-07
-8.84713e-07
6.55778e-07
-9.71174e-07
6.99402e-07
-1.06137e-06
7.42336e-07
-1.15496e-06
7.83988e-07
-1.25153e-06
8.23748e-07
-1.35062e-06
8.61006e-07
-1.45173e-06
8.9516e-07
-1.55434e-06
9.25634e-07
-1.65789e-06
9.51894e-07
9.73486e-07
-4.50981e-09
1.86554e-08
-1.66307e-08
5.67885e-08
-3.50756e-08
9.38837e-08
-5.87642e-08
1.29206e-07
-8.686e-08
1.62696e-07
-1.18775e-07
1.94693e-07
-1.54149e-07
2.25773e-07
-1.92822e-07
2.56621e-07
-2.34789e-07
2.87925e-07
-2.80162e-07
3.203e-07
-3.29126e-07
3.54244e-07
-3.81899e-07
3.90113e-07
-4.38709e-07
4.28112e-07
-4.99757e-07
4.683e-07
-5.65207e-07
5.106e-07
-6.35165e-07
5.54815e-07
-7.09674e-07
6.0064e-07
-7.88703e-07
6.47681e-07
-8.72143e-07
6.95463e-07
-9.59813e-07
7.43447e-07
-1.05145e-06
7.91041e-07
-1.14673e-06
8.37612e-07
-1.24524e-06
8.82505e-07
-1.34655e-06
9.25052e-07
-1.45014e-06
9.64593e-07
-1.55546e-06
1.00049e-06
-1.66197e-06
1.03214e-06
-1.76907e-06
1.05899e-06
1.08059e-06
-5.11467e-09
2.37701e-08
-1.87368e-08
7.04106e-08
-3.93279e-08
1.14475e-07
-6.56176e-08
1.55495e-07
-9.6636e-08
1.93715e-07
-1.31709e-07
2.29766e-07
-1.7043e-07
2.64494e-07
-2.12616e-07
2.98807e-07
-2.58259e-07
3.33569e-07
-3.07476e-07
3.69517e-07
-3.60457e-07
4.07225e-07
-4.17427e-07
4.47083e-07
-4.78608e-07
4.89293e-07
-5.44193e-07
5.33885e-07
-6.14325e-07
5.80733e-07
-6.89085e-07
6.29575e-07
-7.68479e-07
6.80035e-07
-8.52436e-07
7.31638e-07
-9.40802e-07
7.83829e-07
-1.03334e-06
8.35989e-07
-1.12975e-06
8.87448e-07
-1.22964e-06
9.37501e-07
-1.33256e-06
9.85428e-07
-1.43802e-06
1.03051e-06
-1.54546e-06
1.07203e-06
-1.65429e-06
1.10933e-06
-1.76393e-06
1.14177e-06
-1.87374e-06
1.16881e-06
1.18997e-06
-5.73072e-09
2.95008e-08
-2.0872e-08
8.55519e-08
-4.36239e-08
1.37227e-07
-7.25205e-08
1.84392e-07
-1.06456e-07
2.2765e-07
-1.44671e-07
2.67981e-07
-1.8671e-07
3.06533e-07
-2.32371e-07
3.44468e-07
-2.81641e-07
3.82839e-07
-3.3464e-07
4.22516e-07
-3.91563e-07
4.64147e-07
-4.52632e-07
5.08152e-07
-5.18064e-07
5.54725e-07
-5.88036e-07
6.03856e-07
-6.62666e-07
6.55363e-07
-7.42004e-07
7.08912e-07
-8.26014e-07
7.64045e-07
-9.14581e-07
8.20204e-07
-1.0075e-06
8.76749e-07
-1.10449e-06
9.32977e-07
-1.20518e-06
9.88138e-07
-1.30914e-06
1.04146e-06
-1.41586e-06
1.09215e-06
-1.52479e-06
1.13944e-06
-1.63535e-06
1.18258e-06
-1.74689e-06
1.22087e-06
-1.85878e-06
1.25366e-06
-1.97037e-06
1.2804e-06
-6.35116e-09
3.5852e-08
-2.30135e-08
1.02214e-07
-4.79188e-08
1.62132e-07
-7.94027e-08
2.15876e-07
-1.16223e-07
2.6447e-07
-1.57533e-07
3.09291e-07
-2.02833e-07
3.51833e-07
-2.51898e-07
3.93534e-07
-3.04712e-07
4.35653e-07
-3.61394e-07
4.79198e-07
-4.2214e-07
5.24894e-07
-4.8717e-07
5.73182e-07
-5.56686e-07
6.2424e-07
-6.30843e-07
6.78014e-07
-7.09733e-07
7.34253e-07
-7.93365e-07
7.92544e-07
-8.81661e-07
8.52342e-07
-9.74455e-07
9.12999e-07
-1.07149e-06
9.73785e-07
-1.17243e-06
1.03391e-06
-1.27684e-06
1.09255e-06
-1.38425e-06
1.14886e-06
-1.49408e-06
1.20199e-06
-1.60575e-06
1.25111e-06
-1.71859e-06
1.29543e-06
-1.83195e-06
1.33423e-06
-1.94514e-06
1.36685e-06
1.39275e-06
-6.96844e-09
4.28204e-08
-2.51363e-08
1.20382e-07
-5.21643e-08
1.8916e-07
-8.61889e-08
2.499e-07
-1.25831e-07
3.04113e-07
-1.70162e-07
3.53621e-07
-2.18633e-07
4.00303e-07
-2.70999e-07
4.459e-07
-3.27239e-07
4.91892e-07
-3.87469e-07
5.39428e-07
-4.51882e-07
5.89307e-07
-5.20688e-07
6.41988e-07
-5.94072e-07
6.97625e-07
-6.72165e-07
7.56107e-07
-7.5502e-07
8.17109e-07
-8.42607e-07
8.8013e-07
-9.34798e-07
9.44533e-07
-1.03137e-06
1.00958e-06
-1.13202e-06
1.07444e-06
-1.23635e-06
1.13824e-06
-1.34387e-06
1.20007e-06
-1.45403e-06
1.25902e-06
-1.56623e-06
1.31418e-06
-1.6798e-06
1.36468e-06
-1.79405e-06
1.40969e-06
-1.90828e-06
1.44846e-06
-2.02175e-06
1.48032e-06
1.50476e-06
-7.57436e-09
5.03948e-08
-2.72136e-08
1.40021e-07
-5.6309e-08
2.18255e-07
-9.28001e-08
2.86392e-07
-1.35174e-07
3.46487e-07
-1.82419e-07
4.00866e-07
-2.3394e-07
4.51825e-07
-2.89473e-07
5.01433e-07
-3.48985e-07
5.51404e-07
-4.1259e-07
6.03033e-07
-4.80473e-07
6.57189e-07
-5.52829e-07
7.14344e-07
-6.29821e-07
7.74617e-07
-7.11548e-07
8.37834e-07
-7.98024e-07
9.03585e-07
-8.89172e-07
9.71277e-07
-9.84812e-07
1.04017e-06
-1.08467e-06
1.10943e-06
-1.18837e-06
1.17814e-06
-1.29546e-06
1.24533e-06
-1.4054e-06
1.31001e-06
-1.51758e-06
1.3712e-06
-1.63133e-06
1.42793e-06
-1.74594e-06
1.47929e-06
-1.86067e-06
1.52442e-06
-1.97476e-06
1.56255e-06
-2.08745e-06
1.59302e-06
1.61532e-06
-8.16019e-09
5.85549e-08
-2.92173e-08
1.61079e-07
-6.02995e-08
2.49338e-07
-9.91546e-08
3.25247e-07
-1.4414e-07
3.91473e-07
-1.94162e-07
4.50888e-07
-2.48583e-07
5.06246e-07
-3.07114e-07
5.59965e-07
-3.69713e-07
6.14003e-07
-4.36484e-07
6.69804e-07
-5.076e-07
7.28305e-07
-5.83238e-07
7.89982e-07
-6.63533e-07
8.54912e-07
-7.48547e-07
9.22848e-07
-8.38252e-07
9.9329e-07
-9.32517e-07
1.06554e-06
-1.03111e-06
1.13877e-06
-1.1337e-06
1.21202e-06
-1.23985e-06
1.28429e-06
-1.34904e-06
1.35452e-06
-1.46067e-06
1.42164e-06
-1.57407e-06
1.4846e-06
-1.68852e-06
1.54238e-06
-1.80326e-06
1.59403e-06
-1.9175e-06
1.63866e-06
-2.03045e-06
1.67549e-06
-2.14131e-06
1.70388e-06
1.72334e-06
-8.71685e-09
6.72718e-08
-3.11183e-08
1.8348e-07
-6.4081e-08
2.823e-07
-1.05169e-07
3.66335e-07
-1.52617e-07
4.3892e-07
-2.05251e-07
5.03522e-07
-2.62389e-07
5.63384e-07
-3.2372e-07
6.21295e-07
-3.89185e-07
6.79468e-07
-4.58879e-07
7.39497e-07
-5.32955e-07
8.02382e-07
-6.11568e-07
8.68595e-07
-6.9482e-07
9.38164e-07
-7.82733e-07
1.01076e-06
-8.7523e-07
1.08579e-06
-9.72128e-07
1.16244e-06
-1.07314e-06
1.23978e-06
-1.17786e-06
1.31674e-06
-1.28581e-06
1.39223e-06
-1.39639e-06
1.4651e-06
-1.50895e-06
1.5342e-06
-1.62277e-06
1.59842e-06
-1.73706e-06
1.65667e-06
-1.85101e-06
1.70798e-06
-1.9638e-06
1.75145e-06
-2.0746e-06
1.7863e-06
-2.18262e-06
1.8119e-06
1.82779e-06
-9.23512e-09
7.65069e-08
-3.28873e-08
2.07132e-07
-6.75987e-08
3.17012e-07
-1.10762e-07
4.09499e-07
-1.60493e-07
4.88651e-07
-2.15545e-07
5.58574e-07
-2.7519e-07
6.23029e-07
-3.39091e-07
6.85196e-07
-4.07173e-07
7.4755e-07
-4.79511e-07
8.11835e-07
-5.56241e-07
8.79112e-07
-6.37486e-07
9.4984e-07
-7.23313e-07
1.02399e-06
-8.13698e-07
1.10115e-06
-9.08514e-07
1.1806e-06
-1.00752e-06
1.26145e-06
-1.11037e-06
1.34263e-06
-1.21661e-06
1.42298e-06
-1.32568e-06
1.5013e-06
-1.43693e-06
1.57635e-06
-1.54965e-06
1.64692e-06
-1.66305e-06
1.71182e-06
-1.77631e-06
1.76994e-06
-1.88858e-06
1.82025e-06
-1.999e-06
1.86186e-06
-2.10672e-06
1.89402e-06
-2.21095e-06
1.91612e-06
1.92778e-06
-9.70582e-09
8.62127e-08
-3.44955e-08
2.31922e-07
-7.07988e-08
3.53315e-07
-1.15852e-07
4.54552e-07
-1.67661e-07
5.4046e-07
-2.24908e-07
6.15821e-07
-2.86822e-07
6.84943e-07
-3.53036e-07
7.51411e-07
-4.23455e-07
8.17969e-07
-4.98133e-07
8.86513e-07
-5.77177e-07
9.58156e-07
-6.6068e-07
1.03334e-06
-7.48666e-07
1.11198e-06
-8.41066e-07
1.19354e-06
-9.37698e-07
1.27723e-06
-1.03827e-06
1.36202e-06
-1.14236e-06
1.44672e-06
-1.24947e-06
1.53009e-06
-1.35896e-06
1.6108e-06
-1.47015e-06
1.68754e-06
-1.58225e-06
1.75902e-06
-1.69444e-06
1.824e-06
-1.80584e-06
1.88133e-06
-1.91557e-06
1.92998e-06
-2.02276e-06
1.96905e-06
-2.12655e-06
1.99782e-06
-2.22618e-06
2.01575e-06
2.02252e-06
-1.012e-08
9.63327e-08
-3.59148e-08
2.57717e-07
-7.36293e-08
3.91029e-07
-1.20361e-07
5.01283e-07
-1.74017e-07
5.94116e-07
-2.33212e-07
6.75016e-07
-2.97131e-07
7.48861e-07
-3.65376e-07
8.19656e-07
-4.37826e-07
8.90419e-07
-5.14509e-07
9.63196e-07
-5.95503e-07
1.03915e-06
-6.80862e-07
1.1187e-06
-7.70567e-07
1.20168e-06
-8.64499e-07
1.28748e-06
-9.62423e-07
1.37516e-06
-1.06398e-06
1.46358e-06
-1.16871e-06
1.55145e-06
-1.27604e-06
1.63741e-06
-1.38528e-06
1.72004e-06
-1.49567e-06
1.79794e-06
-1.60641e-06
1.86975e-06
-1.7166e-06
1.9342e-06
-1.82535e-06
1.99009e-06
-1.93176e-06
2.03639e-06
-2.03495e-06
2.07224e-06
-2.13409e-06
2.09696e-06
-2.22843e-06
2.11009e-06
2.1114e-06
-1.04692e-08
1.06802e-07
-3.71189e-08
2.84366e-07
-7.60415e-08
4.29952e-07
-1.24217e-07
5.49459e-07
-1.79465e-07
6.49364e-07
-2.40338e-07
7.35889e-07
-3.05974e-07
8.14498e-07
-3.75944e-07
8.89626e-07
-4.50097e-07
9.64572e-07
-5.2843e-07
1.04153e-06
-6.10985e-07
1.12171e-06
-6.97777e-07
1.20549e-06
-7.88741e-07
1.29265e-06
-8.83706e-07
1.38244e-06
-9.82383e-07
1.47384e-06
-1.08436e-06
1.56556e-06
-1.18911e-06
1.65621e-06
-1.29601e-06
1.7443e-06
-1.40431e-06
1.82834e-06
-1.51322e-06
1.90685e-06
-1.62187e-06
1.9784e-06
-1.72936e-06
2.04168e-06
-1.83475e-06
2.09548e-06
-1.93715e-06
2.13879e-06
-2.0357e-06
2.17078e-06
-2.12958e-06
2.19085e-06
-2.21812e-06
2.19862e-06
2.194e-06
-1.07458e-08
1.17548e-07
-3.80834e-08
3.11704e-07
-7.79907e-08
4.69859e-07
-1.27354e-07
5.98822e-07
-1.83917e-07
7.05928e-07
-2.46175e-07
7.98147e-07
-3.13223e-07
8.81546e-07
-3.84593e-07
9.60996e-07
-4.601e-07
1.04008e-06
-5.39708e-07
1.12114e-06
-6.23419e-07
1.20542e-06
-7.11206e-07
1.29328e-06
-8.02955e-07
1.38439e-06
-8.98445e-07
1.47793e-06
-9.97332e-07
1.57272e-06
-1.09915e-06
1.66738e-06
-1.20332e-06
1.76038e-06
-1.30916e-06
1.85014e-06
-1.41589e-06
1.93507e-06
-1.52265e-06
2.01362e-06
-1.62857e-06
2.08432e-06
-1.73269e-06
2.14581e-06
-1.83411e-06
2.1969e-06
-1.93192e-06
2.23661e-06
-2.0253e-06
2.26416e-06
-2.11348e-06
2.27903e-06
-2.19586e-06
2.28099e-06
2.27006e-06
-1.09427e-08
1.2849e-07
-3.8787e-08
3.39548e-07
-7.94373e-08
5.10509e-07
-1.29712e-07
6.49097e-07
-1.87295e-07
7.63511e-07
-2.5063e-07
8.61481e-07
-3.18765e-07
9.49681e-07
-3.91193e-07
1.03342e-06
-4.67692e-07
1.11658e-06
-5.48185e-07
1.20163e-06
-6.32636e-07
1.28987e-06
-7.20968e-07
1.38161e-06
-8.13023e-07
1.47645e-06
-9.08528e-07
1.57344e-06
-1.00709e-06
1.67128e-06
-1.10819e-06
1.76847e-06
-1.21119e-06
1.86338e-06
-1.31537e-06
1.95432e-06
-1.41992e-06
2.03961e-06
-1.52394e-06
2.11764e-06
-1.62653e-06
2.1869e-06
-1.72674e-06
2.24602e-06
-1.82366e-06
2.29383e-06
-1.91643e-06
2.32937e-06
-2.00425e-06
2.35198e-06
-2.08644e-06
2.36123e-06
-2.16247e-06
2.35702e-06
2.33952e-06
-1.10543e-08
1.39545e-07
-3.92114e-08
3.67705e-07
-8.03474e-08
5.51645e-07
-1.31242e-07
6.99991e-07
-1.89534e-07
8.21803e-07
-2.5362e-07
9.25567e-07
-3.22505e-07
1.01857e-06
-3.95638e-07
1.10656e-06
-4.72754e-07
1.19369e-06
-5.53735e-07
1.28261e-06
-6.385e-07
1.37463e-06
-7.26928e-07
1.47004e-06
-8.1881e-07
1.56833e-06
-9.13826e-07
1.66845e-06
-1.01153e-06
1.76899e-06
-1.11137e-06
1.86831e-06
-1.21265e-06
1.96467e-06
-1.31462e-06
2.05629e-06
-1.41643e-06
2.14142e-06
-1.51718e-06
2.21839e-06
-1.61593e-06
2.28565e-06
-1.71176e-06
2.34185e-06
-1.80378e-06
2.38585e-06
-1.89117e-06
2.41676e-06
-1.97319e-06
2.434e-06
-2.04925e-06
2.43729e-06
-2.1189e-06
2.42666e-06
2.40247e-06
-1.1076e-08
1.50621e-07
-3.9342e-08
3.95972e-07
-8.06939e-08
5.92997e-07
-1.31903e-07
7.512e-07
-1.9058e-07
8.80481e-07
-2.55082e-07
9.90068e-07
-3.24368e-07
1.08785e-06
-3.97843e-07
1.18003e-06
-4.75196e-07
1.27105e-06
-5.56263e-07
1.36368e-06
-6.40917e-07
1.45929e-06
-7.28991e-07
1.55812e-06
-8.2023e-07
1.65957e-06
-9.14268e-07
1.76249e-06
-1.01062e-06
1.86534e-06
-1.10867e-06
1.96636e-06
-1.20773e-06
2.06372e-06
-1.30698e-06
2.15554e-06
-1.40556e-06
2.24e-06
-1.50257e-06
2.31539e-06
-1.59707e-06
2.38015e-06
-1.68816e-06
2.43294e-06
-1.77498e-06
2.47267e-06
-1.85678e-06
2.49855e-06
-1.93289e-06
2.51011e-06
-2.00281e-06
2.50721e-06
-2.06619e-06
2.49004e-06
2.45914e-06
-1.10045e-08
1.61625e-07
-3.91683e-08
4.24135e-07
-8.04568e-08
6.34286e-07
-1.31666e-07
8.02409e-07
-1.90394e-07
9.39209e-07
-2.54966e-07
1.05464e-06
-3.24299e-07
1.15718e-06
-3.97748e-07
1.25348e-06
-4.74955e-07
1.34825e-06
-5.55707e-07
1.44443e-06
-6.39829e-07
1.54341e-06
-7.27109e-07
1.6454e-06
-8.17249e-07
1.74971e-06
-9.0984e-07
1.85508e-06
-1.00436e-06
1.95985e-06
-1.10016e-06
2.06217e-06
-1.19651e-06
2.16007e-06
-1.29259e-06
2.25162e-06
-1.38752e-06
2.33494e-06
-1.4804e-06
2.40827e-06
-1.57032e-06
2.47007e-06
-1.65641e-06
2.51903e-06
-1.73786e-06
2.55412e-06
-1.81397e-06
2.57467e-06
-1.88418e-06
2.58032e-06
-1.94808e-06
2.5711e-06
-2.00541e-06
2.54738e-06
2.50985e-06
-1.08381e-08
1.72463e-07
-3.86841e-08
4.51981e-07
-7.96238e-08
6.75226e-07
-1.3051e-07
8.53295e-07
-1.8895e-07
9.97649e-07
-2.53244e-07
1.11893e-06
-3.22265e-07
1.22621e-06
-3.95321e-07
1.32654e-06
-4.72e-07
1.42493e-06
-5.52039e-07
1.52447e-06
-6.35218e-07
1.62659e-06
-7.21279e-07
1.73146e-06
-8.09882e-07
1.83831e-06
-9.00583e-07
1.94578e-06
-9.92822e-07
2.05209e-06
-1.08594e-06
2.15528e-06
-1.17917e-06
2.25331e-06
-1.27169e-06
2.34414e-06
-1.36262e-06
2.42587e-06
-1.45107e-06
2.49672e-06
-1.53617e-06
2.55517e-06
-1.61708e-06
2.59994e-06
-1.69307e-06
2.63012e-06
-1.76352e-06
2.64511e-06
-1.82795e-06
2.64474e-06
-1.88604e-06
2.62919e-06
-1.93766e-06
2.599e-06
2.55504e-06
-1.05765e-08
1.8304e-07
-3.78873e-08
4.79292e-07
-7.819e-08
7.15528e-07
-1.28429e-07
9.03534e-07
-1.86238e-07
1.05546e-06
-2.49902e-07
1.1826e-06
-3.18254e-07
1.29456e-06
-3.9055e-07
1.39883e-06
-4.66326e-07
1.50071e-06
-5.45267e-07
1.60341e-06
-6.27103e-07
1.70842e-06
-7.11537e-07
1.81589e-06
-7.98192e-07
1.92497e-06
-8.8659e-07
2.03418e-06
-9.76149e-07
2.14165e-06
-1.06619e-06
2.24532e-06
-1.15593e-06
2.34305e-06
-1.24456e-06
2.43277e-06
-1.33121e-06
2.51252e-06
-1.41501e-06
2.58053e-06
-1.49513e-06
2.63529e-06
-1.5708e-06
2.67561e-06
-1.64135e-06
2.70066e-06
-1.70624e-06
2.71e-06
-1.76508e-06
2.70359e-06
-1.81767e-06
2.68178e-06
-1.86397e-06
2.6453e-06
2.59519e-06
-1.02209e-08
1.93261e-07
-3.67806e-08
5.05852e-07
-7.61586e-08
7.54906e-07
-1.25425e-07
9.528e-07
-1.82261e-07
1.1123e-06
-2.44945e-07
1.24528e-06
-3.12274e-07
1.36189e-06
-3.83452e-07
1.47001e-06
-4.57958e-07
1.57521e-06
-5.35426e-07
1.68088e-06
-6.1554e-07
1.78854e-06
-6.97963e-07
1.89831e-06
-7.82285e-07
2.00929e-06
-8.68004e-07
2.1199e-06
-9.54519e-07
2.22817e-06
-1.04114e-06
2.33193e-06
-1.12709e-06
2.42901e-06
-1.21156e-06
2.51725e-06
-1.29372e-06
2.59467e-06
-1.37272e-06
2.65953e-06
-1.44779e-06
2.71036e-06
-1.51822e-06
2.74604e-06
-1.58341e-06
2.76586e-06
-1.64292e-06
2.76951e-06
-1.69646e-06
2.75713e-06
-1.74391e-06
2.72923e-06
-1.78532e-06
2.68671e-06
2.63079e-06
-9.77403e-09
2.03035e-07
-3.53708e-08
5.31449e-07
-7.35406e-08
7.93076e-07
-1.21512e-07
1.00077e-06
-1.77037e-07
1.16782e-06
-2.38396e-07
1.30664e-06
-3.04355e-07
1.42785e-06
-3.74063e-07
1.53972e-06
-4.46946e-07
1.6481e-06
-5.22585e-07
1.75652e-06
-6.00618e-07
1.86657e-06
-6.80671e-07
1.97837e-06
-7.62308e-07
2.09093e-06
-8.45007e-07
2.2026e-06
-9.28157e-07
2.31132e-06
-1.01107e-06
2.41484e-06
-1.09297e-06
2.51092e-06
-1.17309e-06
2.59736e-06
-1.2506e-06
2.67218e-06
-1.32472e-06
2.73365e-06
-1.39473e-06
2.78036e-06
-1.45999e-06
2.8113e-06
-1.51999e-06
2.82586e-06
-1.57436e-06
2.82389e-06
-1.62291e-06
2.80568e-06
-1.66561e-06
2.77193e-06
-1.7026e-06
2.7237e-06
2.66237e-06
-9.23991e-09
2.12275e-07
-3.36692e-08
5.55878e-07
-7.03542e-08
8.29761e-07
-1.16717e-07
1.04713e-06
-1.70598e-07
1.2217e-06
-2.30295e-07
1.36634e-06
-2.94544e-07
1.49209e-06
-3.62445e-07
1.60762e-06
-4.33367e-07
1.71902e-06
-5.06838e-07
1.82999e-06
-5.82454e-07
1.94219e-06
-6.59808e-07
2.05572e-06
-7.3844e-07
2.16956e-06
-8.17818e-07
2.28197e-06
-8.97327e-07
2.39082e-06
-9.76282e-07
2.4938e-06
-1.05394e-06
2.58858e-06
-1.12955e-06
2.67296e-06
-1.20232e-06
2.74496e-06
-1.27154e-06
2.80287e-06
-1.33655e-06
2.84537e-06
-1.39677e-06
2.87152e-06
-1.45178e-06
2.88087e-06
-1.50131e-06
2.87341e-06
-1.54523e-06
2.8496e-06
-1.58359e-06
2.81029e-06
-1.61662e-06
2.75673e-06
2.69041e-06
-8.62399e-09
2.20899e-07
-3.16908e-08
5.78945e-07
-6.6625e-08
8.64695e-07
-1.11073e-07
1.09158e-06
-1.62988e-07
1.27362e-06
-2.20695e-07
1.42405e-06
-2.82908e-07
1.55431e-06
-3.48679e-07
1.67339e-06
-4.1732e-07
1.78766e-06
-4.88307e-07
1.90097e-06
-5.61196e-07
2.01508e-06
-6.3555e-07
2.13007e-06
-7.10893e-07
2.2449e-06
-7.86685e-07
2.35777e-06
-8.62319e-07
2.46646e-06
-9.37124e-07
2.5686e-06
-1.01039e-06
2.66184e-06
-1.08138e-06
2.74396e-06
-1.14939e-06
2.81297e-06
-1.21374e-06
2.86722e-06
-1.27384e-06
2.90546e-06
-1.3292e-06
2.92688e-06
-1.37947e-06
2.93114e-06
-1.42445e-06
2.91839e-06
-1.4641e-06
2.88925e-06
-1.49855e-06
2.84474e-06
-1.52807e-06
2.78625e-06
2.7154e-06
-7.93298e-09
2.28832e-07
-2.94544e-08
6.00466e-07
-6.23851e-08
8.97626e-07
-1.04627e-07
1.13382e-06
-1.54264e-07
1.32325e-06
-2.09667e-07
1.47945e-06
-2.69531e-07
1.61417e-06
-3.32864e-07
1.73673e-06
-3.98922e-07
1.85372e-06
-4.67133e-07
1.96918e-06
-5.37012e-07
2.08496e-06
-6.08097e-07
2.20116e-06
-6.79899e-07
2.31671e-06
-7.51881e-07
2.42975e-06
-8.23446e-07
2.53802e-06
-8.93949e-07
2.63911e-06
-9.62711e-07
2.73061e-06
-1.02905e-06
2.81029e-06
-1.09229e-06
2.87621e-06
-1.15185e-06
2.92677e-06
-1.20717e-06
2.96079e-06
-1.25787e-06
2.97758e-06
-1.30366e-06
2.97693e-06
-1.34442e-06
2.95915e-06
-1.38018e-06
2.92501e-06
-1.41111e-06
2.87568e-06
-1.43754e-06
2.81268e-06
2.73776e-06
-7.17483e-09
2.36007e-07
-2.69828e-08
6.20274e-07
-5.76727e-08
9.28316e-07
-9.74304e-08
1.17358e-06
-1.44495e-07
1.37032e-06
-1.97292e-07
1.53224e-06
-2.5451e-07
1.67139e-06
-3.15115e-07
1.79733e-06
-3.78312e-07
1.91692e-06
-4.43477e-07
2.03435e-06
-5.10091e-07
2.15157e-06
-5.77668e-07
2.26874e-06
-6.45713e-07
2.38475e-06
-7.13695e-07
2.49773e-06
-7.81037e-07
2.60537e-06
-8.47123e-07
2.70519e-06
-9.11315e-07
2.7948e-06
-9.72979e-07
2.87196e-06
-1.03151e-06
2.93475e-06
-1.08637e-06
2.98163e-06
-1.13709e-06
3.01152e-06
-1.18335e-06
3.02384e-06
-1.22494e-06
3.01852e-06
-1.26179e-06
2.99601e-06
-1.29401e-06
2.95722e-06
-1.3218e-06
2.90347e-06
-1.34553e-06
2.83641e-06
2.75787e-06
-6.35815e-09
-2.43018e-08
-5.25327e-08
9.56547e-07
-8.95462e-08
1.2106e-06
-1.33758e-07
1.41453e-06
-1.83664e-07
1.58215e-06
-2.37957e-07
1.72568e-06
-2.95564e-07
1.85494e-06
-3.5564e-07
1.97699e-06
-4.17516e-07
2.09623e-06
-4.80637e-07
2.21469e-06