/*--------------------------------*- C++ -*----------------------------------*\
  =========                 |
  \\      /  F ield         | OpenFOAM: The Open Source CFD Toolbox
   \\    /   O peration     | Website:  https://openfoam.org
    \\  /    A nd           | Version:  9
     \\/     M anipulation  |
\*---------------------------------------------------------------------------*/
FoamFile
{
    format      ascii;
    class       volVectorField;
    location    "1.75";
    object      U;
}
// * * * * * * * * * * * * * * * * * * * * * * * * * * * * * * * * * * * * * //

dimensions      [0 1 -1 0 0 0 0];

internalField   nonuniform List<vector> 
1250
(
(1.94279e-06 -1.88208e-06 0)
(2.87302e-05 -1.55634e-05 0)
(8.70116e-05 -2.37103e-05 0)
(0.000155325 -2.59255e-05 0)
(0.000222428 -2.46096e-05 0)
(0.00028177 -2.14922e-05 0)
(0.000329649 -1.76109e-05 0)
(0.000364365 -1.3552e-05 0)
(0.000385419 -9.60832e-06 0)
(0.000392918 -5.89551e-06 0)
(0.00038719 -2.41381e-06 0)
(0.000368546 8.85994e-07 0)
(0.000337154 4.08123e-06 0)
(0.000292966 7.25839e-06 0)
(0.000235701 1.05012e-05 0)
(0.000164851 1.38843e-05 0)
(7.97095e-05 1.74704e-05 0)
(-2.05923e-05 2.13097e-05 0)
(-0.00013705 2.54412e-05 0)
(-0.000270749 2.98941e-05 0)
(-0.00042283 3.46895e-05 0)
(-0.000594461 3.98414e-05 0)
(-0.000786806 4.53579e-05 0)
(-0.001001 5.12403e-05 0)
(-0.0012381 5.7483e-05 0)
(-0.00149909 6.40716e-05 0)
(-0.0017848 7.09773e-05 0)
(-0.00209586 7.8149e-05 0)
(-0.00243265 8.55351e-05 0)
(1.59076e-05 -2.88669e-05 0)
(8.62491e-05 -8.56445e-05 0)
(0.000209152 -0.00011658 0)
(0.000346613 -0.000123783 0)
(0.000477297 -0.000115064 0)
(0.000588024 -9.6819e-05 0)
(0.000670205 -7.34976e-05 0)
(0.000718964 -4.79555e-05 0)
(0.000731978 -2.18368e-05 0)
(0.000708408 4.07579e-06 0)
(0.000648064 2.95386e-05 0)
(0.000550866 5.46724e-05 0)
(0.000416522 7.97952e-05 0)
(0.000244331 0.000105313 0)
(3.31054e-05 0.000131646 0)
(-0.000218834 0.000159189 0)
(-0.000513602 0.000188276 0)
(-0.000853677 0.000219177 0)
(-0.0012418 0.000252093 0)
(-0.0016809 0.000287155 0)
(-0.00217397 0.000324435 0)
(-0.002724 0.000363943 0)
(-0.00333388 0.000405634 0)
(-0.00400629 0.000449399 0)
(-0.00474363 0.000495069 0)
(-0.00554789 0.000542398 0)
(-0.00642057 0.000591052 0)
(-0.00736245 0.000640582 0)
(-0.00837358 0.000690506 0)
(2.45346e-05 -8.80976e-05 0)
(0.000118143 -0.000209052 0)
(0.000269396 -0.00026849 0)
(0.000430015 -0.000277413 0)
(0.000573693 -0.00025067 0)
(0.000684189 -0.000201009 0)
(0.000750329 -0.000137971 0)
(0.000765197 -6.80543e-05 0)
(0.000724969 4.76218e-06 0)
(0.000627629 7.84064e-05 0)
(0.000472018 0.000152127 0)
(0.000257172 0.000226074 0)
(-1.81501e-05 0.000300924 0)
(-0.000355713 0.000377612 0)
(-0.000757912 0.000457141 0)
(-0.00122778 0.00054046 0)
(-0.0017689 0.000628383 0)
(-0.00238533 0.000721553 0)
(-0.00308141 0.000820425 0)
(-0.00386167 0.000925262 0)
(-0.00473063 0.00103614 0)
(-0.00569268 0.00115297 0)
(-0.00675192 0.00127545 0)
(-0.00791199 0.00140311 0)
(-0.00917589 0.00153528 0)
(-0.0105458 0.00167106 0)
(-0.0120231 0.0018093 0)
(-0.0136076 0.00194856 0)
(-0.0152981 0.00208729 0)
(2.70958e-05 -0.000157864 0)
(0.000124701 -0.000346396 0)
(0.000273898 -0.000428468 0)
(0.000420911 -0.000428727 0)
(0.000537052 -0.000370894 0)
(0.00060489 -0.000274788 0)
(0.000612252 -0.000155397 0)
(0.000551263 -2.31044e-05 0)
(0.000417123 0.000115598 0)
(0.000206811 0.000257232 0)
(-8.18918e-05 0.000400533 0)
(-0.000451101 0.000545717 0)
(-0.000903306 0.000693897 0)
(-0.00144162 0.000846644 0)
(-0.00206989 0.00100565 0)
(-0.00279266 0.00117251 0)
(-0.00361508 0.00134858 0)
(-0.00454274 0.0015349 0)
(-0.0055815 0.00173214 0)
(-0.00673727 0.00194062 0)
(-0.00801583 0.00216027 0)
(-0.00942256 0.00239067 0)
(-0.0109623 0.00263103 0)
(-0.012639 0.00288015 0)
(-0.0144557 0.00313645 0)
(-0.016414 0.00339789 0)
(-0.018514 0.00366194 0)
(-0.0207541 0.00392558 0)
(-0.0231303 0.00418553 0)
(2.56101e-05 -0.000225638 0)
(0.000111803 -0.000472527 0)
(0.000232783 -0.000563996 0)
(0.000334696 -0.000540478 0)
(0.000388671 -0.000435793 0)
(0.000377341 -0.000277168 0)
(0.000288645 -8.49777e-05 0)
(0.000114576 0.000126716 0)
(-0.000150132 0.000349114 0)
(-0.000509274 0.000577552 0)
(-0.000966109 0.000810399 0)
(-0.00152402 0.00104808 0)
(-0.00218694 0.00129227 0)
(-0.00295954 0.00154526 0)
(-0.00384728 0.00180949 0)
(-0.00485635 0.00208723 0)
(-0.00599352 0.00238033 0)
(-0.00726592 0.00269016 0)
(-0.00868077 0.00301749 0)
(-0.0102452 0.00336249 0)
(-0.0119659 0.00372473 0)
(-0.0138488 0.00410316 0)
(-0.0158991 0.00449609 0)
(-0.0181205 0.00490119 0)
(-0.0205152 0.00531545 0)
(-0.0230835 0.00573512 0)
(-0.0258237 0.0061557 0)
(-0.0287313 0.00657189 0)
(-0.0317994 0.00697803 0)
(2.14833e-05 -0.000282554 0)
(8.41919e-05 -0.000568237 0)
(0.000154815 -0.000649654 0)
(0.00018441 -0.000583258 0)
(0.000146021 -0.000413373 0)
(2.34645e-05 -0.000174614 0)
(-0.000194306 0.000107576 0)
(-0.000514766 0.000415873 0)
(-0.00094322 0.000739622 0)
(-0.00148401 0.00107336 0)
(-0.00214139 0.00141541 0)
(-0.00292006 0.00176665 0)
(-0.0038255 0.00212949 0)
(-0.0048641 0.00250704 0)
(-0.00604307 0.00290251 0)
(-0.00737032 0.0033188 0)
(-0.00885426 0.00375818 0)
(-0.0105035 0.00422218 0)
(-0.0123264 0.00471146 0)
(-0.0143312 0.00522578 0)
(-0.0165251 0.00576399 0)
(-0.0189143 0.00632401 0)
(-0.0215035 0.00690281 0)
(-0.0242956 0.00749637 0)
(-0.0272915 0.00809967 0)
(-0.0304895 0.00870664 0)
(-0.033885 0.0093101 0)
(-0.0374699 0.0099018 0)
(-0.0412334 0.010473 0)
(1.55083e-05 -0.000321797 0)
(4.50625e-05 -0.000617182 0)
(4.6562e-05 -0.000662886 0)
(-1.98434e-05 -0.000530565 0)
(-0.000177238 -0.000274622 0)
(-0.000439518 6.33737e-05 0)
(-0.000815915 0.00045351 0)
(-0.00131279 0.000875865 0)
(-0.00193513 0.00131857 0)
(-0.00268763 0.00177591 0)
(-0.00357548 0.00224662 0)
(-0.00460474 0.00273236 0)
(-0.00578255 0.00323647 0)
(-0.00711708 0.00376297 0)
(-0.00861736 0.00431587 0)
(-0.0102931 0.00489858 0)
(-0.0121543 0.00551366 0)
(-0.0142108 0.00616253 0)
(-0.0164723 0.00684545 0)
(-0.0189473 0.00756138 0)
(-0.0216435 0.00830805 0)
(-0.0245667 0.00908183 0)
(-0.0277208 0.00987781 0)
(-0.0311072 0.0106897 0)
(-0.0347246 0.0115098 0)
(-0.0385685 0.012329 0)
(-0.042631 0.0131368 0)
(-0.0468996 0.0139213 0)
(-0.0513589 0.0146701 0)
(8.11417e-06 -0.000338024 0)
(-3.54939e-06 -0.00060555 0)
(-8.74037e-05 -0.000583988 0)
(-0.000270662 -0.000358787 0)
(-0.00057076 6.51417e-06 0)
(-0.000998329 0.000464302 0)
(-0.00155998 0.00098111 0)
(-0.00226045 0.00153533 0)
(-0.00310407 0.0021147 0)
(-0.0040958 0.00271395 0)
(-0.0052417 0.00333277 0)
(-0.00654925 0.00397398 0)
(-0.00802727 0.00464209 0)
(-0.00968579 0.00534214 0)
(-0.0115357 0.00607885 0)
(-0.0135885 0.00685605 0)
(-0.0158556 0.00767629 0)
(-0.0183482 0.00854063 0)
(-0.0210765 0.00944847 0)
(-0.0240495 0.0103976 0)
(-0.0272746 0.011384 0)
(-0.0307568 0.0124019 0)
(-0.0344985 0.013444 0)
(-0.0384991 0.014501 0)
(-0.0427544 0.0155619 0)
(-0.0472565 0.0166138 0)
(-0.0519934 0.0176423 0)
(-0.0569478 0.0186313 0)
(-0.0620993 0.0195641 0)
(-4.54978e-07 -0.000326692 0)
(-6.04002e-05 -0.000521453 0)
(-0.000243994 -0.000395662 0)
(-0.000562734 -4.69309e-05 0)
(-0.00102686 0.000453367 0)
(-0.00164276 0.00105291 0)
(-0.00241371 0.00171592 0)
(-0.00334236 0.00242024 0)
(-0.00443218 0.0031542 0)
(-0.00568824 0.00391382 0)
(-0.0071175 0.00470036 0)
(-0.00872885 0.00551823 0)
(-0.0105329 0.00637334 0)
(-0.0125415 0.00727179 0)
(-0.0147675 0.00821897 0)
(-0.0172239 0.00921888 0)
(-0.0199235 0.0102738 0)
(-0.0228785 0.0113839 0)
(-0.0260995 0.0125474 0)
(-0.0295954 0.0137601 0)
(-0.0333728 0.015016 0)
(-0.0374354 0.0163065 0)
(-0.0417836 0.0176209 0)
(-0.046414 0.0189465 0)
(-0.0513191 0.0202682 0)
(-0.0564869 0.0215688 0)
(-0.0619007 0.0228292 0)
(-0.0675383 0.0240288 0)
(-0.073374 0.0251464 0)
(-1.01889e-05 -0.000283713 0)
(-0.000124851 -0.000354214 0)
(-0.000421154 -8.23397e-05 0)
(-0.000892255 0.000423886 0)
(-0.00153972 0.00108697 0)
(-0.00236477 0.00185153 0)
(-0.00336673 0.00268103 0)
(-0.00454577 0.00355412 0)
(-0.00590431 0.00446089 0)
(-0.00744747 0.00539958 0)
(-0.00918312 0.00637371 0)
(-0.0111216 0.00738972 0)
(-0.0132753 0.00845513 0)
(-0.015658 0.00957716 0)
(-0.0182842 0.0107617 0)
(-0.0211685 0.0120126 0)
(-0.0243248 0.0133314 0)
(-0.0277658 0.0147171 0)
(-0.0315022 0.016166 0)
(-0.0355424 0.0176716 0)
(-0.0398918 0.0192247 0)
(-0.044552 0.0208136 0)
(-0.0495209 0.0224235 0)
(-0.0547918 0.0240374 0)
(-0.0603531 0.0256357 0)
(-0.0661886 0.0271962 0)
(-0.0722767 0.028695 0)
(-0.0785898 0.0301062 0)
(-0.0850973 0.0314045 0)
(-2.10662e-05 -0.000205335 0)
(-0.000196498 -9.39865e-05 0)
(-0.000617492 0.00037022 0)
(-0.0012564 0.00107086 0)
(-0.00210474 0.0019264 0)
(-0.00315775 0.00288036 0)
(-0.00441025 0.00389726 0)
(-0.00585961 0.00495816 0)
(-0.00750707 0.00605624 0)
(-0.00935778 0.00719298 0)
(-0.0114205 0.00837486 0)
(-0.0137072 0.00961082 0)
(-0.0162319 0.0109102 0)
(-0.0190102 0.0122812 0)
(-0.0220583 0.01373 0)
(-0.0253921 0.01526 0)
(-0.0290262 0.0168716 0)
(-0.0329736 0.018562 0)
(-0.0372446 0.0203247 0)
(-0.0418466 0.0221505 0)
(-0.046783 0.0240264 0)
(-0.0520531 0.0259364 0)
(-0.0576515 0.0278616 0)
(-0.0635678 0.0297796 0)
(-0.0697861 0.0316659 0)
(-0.0762855 0.033493 0)
(-0.0830394 0.0352316 0)
(-0.0900152 0.0368511 0)
(-0.0971776 0.0383215 0)
(-3.30612e-05 -8.801e-05 0)
(-0.000275018 0.000268426 0)
(-0.000831912 0.00097516 0)
(-0.00165283 0.00190972 0)
(-0.00271797 0.00298892 0)
(-0.00401585 0.00415754 0)
(-0.00553631 0.00538323 0)
(-0.00727368 0.00665128 0)
(-0.00922793 0.00795941 0)
(-0.0114043 0.00931341 0)
(-0.0138124 0.0107235 0)
(-0.0164658 0.0122015 0)
(-0.0193803 0.0137587 0)
(-0.0225732 0.0154041 0)
(-0.0260621 0.0171441 0)
(-0.0298637 0.018981 0)
(-0.0339934 0.0209136 0)
(-0.0384638 0.0229363 0)
(-0.0432843 0.0250398 0)
(-0.0484607 0.0272107 0)
(-0.0539941 0.0294321 0)
(-0.0598808 0.0316829 0)
(-0.0661117 0.0339391 0)
(-0.0726723 0.036173 0)
(-0.0795421 0.0383542 0)
(-0.0866954 0.04045 0)
(-0.0941008 0.0424258 0)
(-0.101721 0.0442459 0)
(-0.109516 0.0458766 0)
(-4.60324e-05 7.20746e-05 0)
(-0.000359995 0.000741842 0)
(-0.0010634 0.00174469 0)
(-0.00207938 0.00295479 0)
(-0.00337567 0.0042901 0)
(-0.00493345 0.00569925 0)
(-0.00673719 0.00715543 0)
(-0.00877801 0.00865013 0)
(-0.0110546 0.0101872 0)
(-0.0135721 0.0117779 0)
(-0.0163415 0.0134368 0)
(-0.0193776 0.0151792 0)
(-0.0226979 0.0170181 0)
(-0.0263213 0.0189635 0)
(-0.0302665 0.0210211 0)
(-0.034551 0.023192 0)
(-0.03919 0.0254724 0)
(-0.0441956 0.0278536 0)
(-0.0495757 0.0303225 0)
(-0.0553339 0.0328611 0)
(-0.0614686 0.0354473 0)
(-0.0679725 0.0380549 0)
(-0.0748325 0.0406539 0)
(-0.0820295 0.0432109 0)
(-0.0895387 0.0456897 0)
(-0.0973293 0.048052 0)
(-0.105365 0.050258 0)
(-0.113605 0.0522677 0)
(-0.122006 0.0540437 0)
(-6.02556e-05 0.000278375 0)
(-0.000451519 0.00133445 0)
(-0.00131101 0.00269003 0)
(-0.00253381 0.00421905 0)
(-0.00407399 0.00584374 0)
(-0.00590478 0.00751965 0)
(-0.00800496 0.0092281 0)
(-0.0103623 0.010969 0)
(-0.0129742 0.0127539 0)
(-0.0158461 0.0146008 0)
(-0.0189898 0.0165294 0)
(-0.0224216 0.0185584 0)
(-0.0261607 0.0207029 0)
(-0.0302273 0.0229733 0)
(-0.0346408 0.0253745 0)
(-0.0394191 0.0279053 0)
(-0.0445768 0.0305589 0)
(-0.0501249 0.0333227 0)
(-0.0560693 0.0361789 0)
(-0.062411 0.0391044 0)
(-0.069145 0.0420714 0)
(-0.07626 0.0450476 0)
(-0.0837388 0.0479969 0)
(-0.0915576 0.0508798 0)
(-0.0996867 0.0536544 0)
(-0.108091 0.0562767 0)
(-0.11673 0.0587023 0)
(-0.125558 0.0608871 0)
(-0.134529 0.0627909 0)
(-7.55703e-05 0.000533959 0)
(-0.000549041 0.00205379 0)
(-0.00157344 0.00382135 0)
(-0.00301353 0.00571398 0)
(-0.00480864 0.00766188 0)
(-0.00692355 0.00963083 0)
(-0.0093311 0.0116132 0)
(-0.0120157 0.0136197 0)
(-0.0149734 0.0156713 0)
(-0.01821 0.0177938 0)
(-0.0217382 0.0200128 0)
(-0.0255758 0.0223506 0)
(-0.0297434 0.0248243 0)
(-0.0342621 0.0274442 0)
(-0.0391519 0.0302136 0)
(-0.0444304 0.0331287 0)
(-0.0501114 0.0361789 0)
(-0.0562039 0.0393469 0)
(-0.0627116 0.0426094 0)
(-0.0696321 0.0459374 0)
(-0.0769567 0.049297 0)
(-0.08467 0.0526493 0)
(-0.09275 0.055952 0)
(-0.101168 0.0591592 0)
(-0.109891 0.0622232 0)
(-0.118877 0.0650949 0)
(-0.128084 0.0677256 0)
(-0.137461 0.0700676 0)
(-0.146961 0.0720787 0)
(-9.18948e-05 0.000842055 0)
(-0.000652025 0.00290684 0)
(-0.00184916 0.00514768 0)
(-0.00351554 0.00744951 0)
(-0.00557477 0.00975461 0)
(-0.00798277 0.0120427 0)
(-0.0107063 0.0143205 0)
(-0.0137262 0.0166116 0)
(-0.0170376 0.0189485 0)
(-0.0206463 0.0213659 0)
(-0.0245662 0.0238956 0)
(-0.0288163 0.0265641 0)
(-0.0334184 0.0293897 0)
(-0.0383943 0.0323825 0)
(-0.043764 0.0355435 0)
(-0.0495445 0.0388655 0)
(-0.0557479 0.0423331 0)
(-0.0623811 0.0459237 0)
(-0.0694447 0.0496078 0)
(-0.0769327 0.0533501 0)
(-0.0848322 0.0571097 0)
(-0.0931234 0.0608412 0)
(-0.101779 0.0644954 0)
(-0.110767 0.0680205 0)
(-0.120048 0.071363 0)
(-0.129577 0.0744691 0)
(-0.139307 0.0772862 0)
(-0.149185 0.0797638 0)
(-0.159161 0.0818581 0)
(-0.000109153 0.00120549 0)
(-0.00075984 0.00389972 0)
(-0.00213632 0.00667674 0)
(-0.00403633 0.00943385 0)
(-0.00636686 0.01213 0)
(-0.00907463 0.0147629 0)
(-0.0121201 0.0173568 0)
(-0.0154809 0.0199512 0)
(-0.0191509 0.0225916 0)
(-0.0231362 0.0253227 0)
(-0.0274517 0.0281833 0)
(-0.0321176 0.0312034 0)
(-0.0371563 0.0344028 0)
(-0.0425902 0.0377904 0)
(-0.0484387 0.0413645 0)
(-0.0547176 0.0451133 0)
(-0.061437 0.0490162 0)
(-0.068601 0.0530443 0)
(-0.0762066 0.0571616 0)
(-0.0842439 0.0613254 0)
(-0.0926953 0.0654879 0)
(-0.101536 0.0695966 0)
(-0.110735 0.0735957 0)
(-0.120254 0.0774272 0)
(-0.13005 0.0810324 0)
(-0.140073 0.0843532 0)
(-0.150274 0.0873335 0)
(-0.160594 0.0899206 0)
(-0.170983 0.0920694 0)
(-0.000127229 0.0016267 0)
(-0.000871686 0.00503752 0)
(-0.00243271 0.00841468 0)
(-0.00457182 0.0116732 0)
(-0.00717864 0.0147938 0)
(-0.0101904 0.0177965 0)
(-0.0135613 0.0207268 0)
(-0.0172657 0.0236425 0)
(-0.0212962 0.026604 0)
(-0.0256593 0.0296669 0)
(-0.0303709 0.0328774 0)
(-0.0354519 0.0362693 0)
(-0.0409255 0.0398629 0)
(-0.0468136 0.0436655 0)
(-0.0531349 0.0476716 0)
(-0.0599033 0.0518644 0)
(-0.0671263 0.0562171 0)
(-0.0748048 0.0606938 0)
(-0.0829319 0.0652511 0)
(-0.091493 0.069839 0)
(-0.100466 0.0744022 0)
(-0.109821 0.0788809 0)
(-0.119521 0.0832128 0)
(-0.129525 0.0873341 0)
(-0.139783 0.0911809 0)
(-0.150243 0.0946913 0)
(-0.16085 0.0978063 0)
(-0.171544 0.100471 0)
(-0.18227 0.102641 0)
(-0.000145968 0.00210766 0)
(-0.0009866 0.00632414 0)
(-0.00273577 0.010366 0)
(-0.00511738 0.0141718 0)
(-0.00800309 0.0177494 0)
(-0.0113205 0.0211461 0)
(-0.0150175 0.024432 0)
(-0.0190651 0.0276861 0)
(-0.0234551 0.0309855 0)
(-0.028194 0.0343976 0)
(-0.0332985 0.0379762 0)
(-0.0387902 0.0417585 0)
(-0.0446923 0.045765 0)
(-0.0510261 0.0500004 0)
(-0.0578089 0.0544547 0)
(-0.0650523 0.0591053 0)
(-0.0727606 0.0639182 0)
(-0.0809309 0.0688502 0)
(-0.0895518 0.0738498 0)
(-0.0986041 0.0788593 0)
(-0.10806 0.0838155 0)
(-0.117886 0.0886516 0)
(-0.128039 0.0932987 0)
(-0.138471 0.0976872 0)
(-0.14913 0.101749 0)
(-0.15996 0.105418 0)
(-0.1709 0.108633 0)
(-0.181887 0.111338 0)
(-0.192863 0.113488 0)
(-0.000165184 0.00264981 0)
(-0.00110345 0.00776214 0)
(-0.00304258 0.0125331 0)
(-0.00566782 0.0169314 0)
(-0.00883248 0.0209977 0)
(-0.0124544 0.0248113 0)
(-0.0164753 0.0284711 0)
(-0.0208629 0.0320799 0)
(-0.0256079 0.0357329 0)
(-0.0307171 0.0395106 0)
(-0.0362077 0.0434739 0)
(-0.0421015 0.0476635 0)
(-0.0484214 0.0520993 0)
(-0.0551876 0.0567827 0)
(-0.0624154 0.0616982 0)
(-0.0701134 0.0668165 0)
(-0.0782825 0.072096 0)
(-0.0869153 0.0774851 0)
(-0.0959958 0.0829242 0)
(-0.1055 0.0883472 0)
(-0.115394 0.0936831 0)
(-0.125638 0.098858 0)
(-0.136186 0.103797 0)
(-0.146983 0.108424 0)
(-0.157974 0.112667 0)
(-0.169096 0.116457 0)
(-0.180284 0.119731 0)
(-0.191473 0.122431 0)
(-0.202604 0.124514 0)
(-0.000184652 0.00325393 0)
(-0.00122096 0.00935255 0)
(-0.00334988 0.0149165 0)
(-0.00621746 0.0199513 0)
(-0.00965846 0.0245367 0)
(-0.013581 0.0287892 0)
(-0.0179205 0.03284 0)
(-0.0226416 0.0368184 0)
(-0.027734 0.0408397 0)
(-0.0332046 0.0449976 0)
(-0.0390705 0.0493609 0)
(-0.0453537 0.0539725 0)
(-0.0520761 0.0588515 0)
(-0.0592564 0.0639948 0)
(-0.0669073 0.0693809 0)
(-0.075034 0.0749727 0)
(-0.0836334 0.0807203 0)
(-0.0926931 0.0865634 0)
(-0.102192 0.0924336 0)
(-0.112101 0.0982563 0)
(-0.12238 0.103953 0)
(-0.132984 0.109442 0)
(-0.143861 0.114642 0)
(-0.154953 0.119473 0)
(-0.166196 0.123857 0)
(-0.177524 0.127724 0)
(-0.188868 0.131007 0)
(-0.200164 0.133654 0)
(-0.00020412 0.00392011 0)
(-0.00133772 0.0110947 0)
(-0.00365412 0.0175142 0)
(-0.00676018 0.0232282 0)
(-0.0104721 0.0283618 0)
(-0.0146883 0.0330735 0)
(-0.0193382 0.0375312 0)
(-0.0243833 0.041893 0)
(-0.0298121 0.0462958 0)
(-0.0356313 0.0508471 0)
(-0.0418581 0.0556232 0)
(-0.0485137 0.0606694 0)
(-0.0556189 0.0660024 0)
(-0.0631902 0.0716142 0)
(-0.071237 0.0774761 0)
(-0.0797609 0.0835426 0)
(-0.088754 0.0897549 0)
(-0.0981991 0.0960435 0)
(-0.108069 0.102331 0)
(-0.118329 0.108534 0)
(-0.128935 0.114565 0)
(-0.139834 0.120337 0)
(-0.150968 0.125762 0)
(-0.162274 0.130755 0)
(-0.173685 0.135234 0)
(-0.185128 0.139126 0)
(-0.19653 0.142365 0)
(-0.207824 0.144897 0)
(-0.000223309 0.00464763 0)
(-0.00145218 0.0129861 0)
(-0.00395153 0.0203221 0)
(-0.00728952 0.0267562 0)
(-0.011264 0.0324652 0)
(-0.0157641 0.0376553 0)
(-0.020713 0.0425341 0)
(-0.0260693 0.0472918 0)
(-0.0318202 0.0520875 0)
(-0.0379719 0.0570436 0)
(-0.0445411 0.0622434 0)
(-0.0515481 0.0677336 0)
(-0.0590119 0.0735282 0)
(-0.0669461 0.0796131 0)
(-0.0753568 0.0859517 0)
(-0.0842411 0.0924896 0)
(-0.0935861 0.099158 0)
(-0.103369 0.105878 0)
(-0.113558 0.112563 0)
(-0.12411 0.11912 0)
(-0.134977 0.125455 0)
(-0.146099 0.131473 0)
(-0.157413 0.137079 0)
(-0.16885 0.142185 0)
(-0.180337 0.146706 0)
(-0.191799 0.150566 0)
(-0.203157 0.153698 0)
(-0.214339 0.156051 0)
(-0.000241917 0.00543492 0)
(-0.00156273 0.0150225 0)
(-0.00423815 0.0233332 0)
(-0.00779877 0.0305264 0)
(-0.0120247 0.0368365 0)
(-0.0167957 0.0425223 0)
(-0.0220293 0.0478353 0)
(-0.0276808 0.0529995 0)
(-0.0337362 0.0581981 0)
(-0.0402007 0.0635679 0)
(-0.0470903 0.0691995 0)
(-0.0544236 0.0751404 0)
(-0.0622174 0.0814005 0)
(-0.0704821 0.0879591 0)
(-0.0792198 0.0947709 0)
(-0.0884228 0.101772 0)
(-0.0980728 0.108882 0)
(-0.108142 0.116014 0)
(-0.118591 0.12307 0)
(-0.129372 0.12995 0)
(-0.14043 0.136551 0)
(-0.1517 0.142771 0)
(-0.163112 0.148509 0)
(-0.174592 0.153674 0)
(-0.186062 0.158177 0)
(-0.197443 0.161941 0)
(-0.208652 0.1649 0)
(-0.219617 0.167004 0)
(-0.000259627 0.00627952 0)
(-0.00166768 0.0171974 0)
(-0.0045099 0.0265383 0)
(-0.0082811 0.034527 0)
(-0.0127443 0.0414622 0)
(-0.0177705 0.0476595 0)
(-0.0232714 0.0534181 0)
(-0.0291992 0.0589978 0)
(-0.0355382 0.064607 0)
(-0.0422925 0.0703975 0)
(-0.0494766 0.0764662 0)
(-0.0571075 0.0828608 0)
(-0.0651987 0.0895867 0)
(-0.0737573 0.0966154 0)
(-0.0827809 0.103892 0)
(-0.0922565 0.111342 0)
(-0.10216 0.118876 0)
(-0.112458 0.126394 0)
(-0.123106 0.133791 0)
(-0.134049 0.140956 0)
(-0.145224 0.147779 0)
(-0.156563 0.154151 0)
(-0.167989 0.159967 0)
(-0.179423 0.16513 0)
(-0.190782 0.16955 0)
(-0.201984 0.173151 0)
(-0.212944 0.175867 0)
(-0.223588 0.17765 0)
(-0.000276111 0.00717806 0)
(-0.00176532 0.0195025 0)
(-0.0047627 0.0299255 0)
(-0.00872966 0.0387438 0)
(-0.0134132 0.0463257 0)
(-0.0186759 0.0530488 0)
(-0.0244239 0.0592627 0)
(-0.0306061 0.0652653 0)
(-0.0372048 0.0712908 0)
(-0.0442226 0.0775061 0)
(-0.0516723 0.0840144 0)
(-0.0595682 0.0908624 0)
(-0.0679208 0.0980502 0)
(-0.0767329 0.105541 0)
(-0.0859974 0.113269 0)
(-0.0956959 0.12115 0)
(-0.105799 0.129083 0)
(-0.116267 0.136957 0)
(-0.127047 0.144658 0)
(-0.138081 0.152065 0)
(-0.149299 0.159062 0)
(-0.160627 0.165531 0)
(-0.171982 0.171365 0)
(-0.183282 0.176461 0)
(-0.194439 0.180731 0)
(-0.205369 0.184098 0)
(-0.215986 0.186499 0)
(-0.226216 0.187892 0)
(-0.000291045 0.00812624 0)
(-0.00185396 0.0219274 0)
(-0.0049925 0.0334802 0)
(-0.00913776 0.0431594 0)
(-0.014022 0.051408 0)
(-0.0194998 0.0586694 0)
(-0.0254719 0.0653467 0)
(-0.0318838 0.0717776 0)
(-0.0387154 0.0782229 0)
(-0.0459676 0.0848646 0)
(-0.0536507 0.0918116 0)
(-0.0617761 0.0991092 0)
(-0.0703507 0.106751 0)
(-0.0793728 0.114691 0)
(-0.0888302 0.122854 0)
(-0.0986992 0.131142 0)
(-0.108944 0.139445 0)
(-0.119519 0.14764 0)
(-0.130366 0.155603 0)
(-0.14142 0.163205 0)
(-0.152606 0.170321 0)
(-0.163843 0.176829 0)
(-0.175045 0.182617 0)
(-0.186126 0.18758 0)
(-0.196995 0.191631 0)
(-0.207567 0.194693 0)
(-0.217757 0.196709 0)
(-0.227493 0.197644 0)
(-0.000304107 0.00911884 0)
(-0.00193195 0.0244599 0)
(-0.0051954 0.0371857 0)
(-0.00949894 0.0477539 0)
(-0.0145616 0.056687 0)
(-0.0202305 0.0644977 0)
(-0.0264012 0.0716449 0)
(-0.0330155 0.0785076 0)
(-0.0400508 0.0853739 0)
(-0.0475055 0.0924409 0)
(-0.0553871 0.0998226 0)
(-0.0637038 0.107562 0)
(-0.0724584 0.115647 0)
(-0.0816444 0.12402 0)
(-0.0912445 0.132595 0)
(-0.101229 0.141263 0)
(-0.111557 0.1499 0)
(-0.122176 0.158377 0)
(-0.133023 0.166556 0)
(-0.144026 0.174301 0)
(-0.155105 0.18148 0)
(-0.166175 0.187965 0)
(-0.177147 0.193642 0)
(-0.187929 0.198405 0)
(-0.198433 0.202166 0)
(-0.208571 0.204855 0)
(-0.218263 0.206421 0)
(-0.22744 0.206837 0)
(-0.000314996 0.0101498 0)
(-0.00199774 0.0270858 0)
(-0.00536774 0.0410226 0)
(-0.00980716 0.0525051 0)
(-0.0150235 0.0621386 0)
(-0.0208572 0.0705078 0)
(-0.0271987 0.0781297 0)
(-0.0339859 0.0854259 0)
(-0.0411933 0.0927121 0)
(-0.0488164 0.1002 0)
(-0.0568595 0.10801 0)
(-0.065327 0.11618 0)
(-0.0742173 0.124691 0)
(-0.0835194 0.133477 0)
(-0.0932102 0.142438 0)
(-0.103255 0.151453 0)
(-0.113607 0.160389 0)
(-0.124207 0.169103 0)
(-0.134987 0.177448 0)
(-0.14587 0.185282 0)
(-0.156772 0.192465 0)
(-0.167604 0.198865 0)
(-0.178272 0.204365 0)
(-0.188686 0.20886 0)
(-0.198756 0.212266 0)
(-0.208399 0.214519 0)
(-0.217536 0.215575 0)
(-0.226107 0.215419 0)
(-0.000323433 0.0112121 0)
(-0.00204991 0.0297892 0)
(-0.00550614 0.0449695 0)
(-0.0100569 0.0573884 0)
(-0.0154001 0.0677359 0)
(-0.0213702 0.0766715 0)
(-0.0278525 0.0847715 0)
(-0.0347811 0.0925009 0)
(-0.0421271 0.100204 0)
(-0.0498825 0.108107 0)
(-0.0580481 0.116333 0)
(-0.0666242 0.12492 0)
(-0.0756049 0.133838 0)
(-0.0849738 0.143011 0)
(-0.0947029 0.152329 0)
(-0.104752 0.161657 0)
(-0.115068 0.170849 0)
(-0.125588 0.179754 0)
(-0.136237 0.188215 0)
(-0.146936 0.196081 0)
(-0.157594 0.203207 0)
(-0.168122 0.20946 0)
(-0.178424 0.214719 0)
(-0.188409 0.218883 0)
(-0.19799 0.221873 0)
(-0.207087 0.223631 0)
(-0.21563 0.224127 0)
(-0.223563 0.223356 0)
(-0.000329175 0.0122983 0)
(-0.00208718 0.0325526 0)
(-0.00560763 0.0490033 0)
(-0.0102432 0.062377 0)
(-0.0156845 0.0734505 0)
(-0.0217606 0.0829587 0)
(-0.0283521 0.0915385 0)
(-0.035389 0.099699 0)
(-0.0428384 0.107813 0)
(-0.0506886 0.116121 0)
(-0.0589365 0.124751 0)
(-0.0675781 0.133736 0)
(-0.0766027 0.14304 0)
(-0.085989 0.152573 0)
(-0.0957039 0.162214 0)
(-0.105702 0.171816 0)
(-0.115925 0.181222 0)
(-0.126305 0.190268 0)
(-0.136764 0.198792 0)
(-0.147217 0.206634 0)
(-0.157573 0.213645 0)
(-0.167738 0.219689 0)
(-0.177619 0.224647 0)
(-0.187126 0.228421 0)
(-0.196176 0.23094 0)
(-0.204694 0.232155 0)
(-0.212617 0.232049 0)
(-0.2199 0.230632 0)
(-0.000332016 0.0134 0)
(-0.0021085 0.0353573 0)
(-0.00566966 0.0530988 0)
(-0.0103619 0.0674425 0)
(-0.0158709 0.0792518 0)
(-0.0220212 0.0893375 0)
(-0.0286889 0.0983976 0)
(-0.0357995 0.106986 0)
(-0.043316 0.115502 0)
(-0.0512226 0.124204 0)
(-0.0595117 0.133222 0)
(-0.068175 0.142585 0)
(-0.0771969 0.152248 0)
(-0.0865515 0.162111 0)
(-0.0962006 0.172039 0)
(-0.106094 0.181875 0)
(-0.116169 0.191449 0)
(-0.126354 0.200589 0)
(-0.136566 0.209122 0)
(-0.146719 0.216884 0)
(-0.15672 0.223723 0)
(-0.166474 0.229501 0)
(-0.175891 0.234102 0)
(-0.184883 0.237435 0)
(-0.193371 0.239436 0)
(-0.20129 0.24007 0)
(-0.208585 0.239332 0)
(-0.21522 0.237249 0)
(-0.000331799 0.0145085 0)
(-0.00211302 0.0381832 0)
(-0.0056902 0.0572296 0)
(-0.0104096 0.072555 0)
(-0.0159546 0.0851081 0)
(-0.022146 0.0957749 0)
(-0.0288557 0.105314 0)
(-0.0360046 0.114325 0)
(-0.0435511 0.123235 0)
(-0.051475 0.132316 0)
(-0.059764 0.141703 0)
(-0.0684053 0.151421 0)
(-0.0773786 0.161415 0)
(-0.0866533 0.171575 0)
(-0.0961869 0.181753 0)
(-0.105925 0.191781 0)
(-0.1158 0.201478 0)
(-0.125738 0.210661 0)
(-0.135654 0.219152 0)
(-0.145459 0.226782 0)
(-0.15506 0.233394 0)
(-0.164364 0.238854 0)
(-0.173282 0.24305 0)
(-0.181733 0.245898 0)
(-0.189645 0.247344 0)
(-0.196959 0.247367 0)
(-0.20363 0.245979 0)
(-0.209635 0.243224 0)
(-0.000328418 0.0156145 0)
(-0.00210015 0.0410096 0)
(-0.00566776 0.0613683 0)
(-0.0103838 0.0776835 0)
(-0.0159321 0.0909863 0)
(-0.0221307 0.102237 0)
(-0.0288474 0.112254 0)
(-0.0359985 0.12168 0)
(-0.0435376 0.130972 0)
(-0.0514396 0.140416 0)
(-0.0596874 0.150151 0)
(-0.0682636 0.160199 0)
(-0.0771434 0.170495 0)
(-0.0862919 0.180917 0)
(-0.0956626 0.191308 0)
(-0.105197 0.201485 0)
(-0.114826 0.211258 0)
(-0.124471 0.220438 0)
(-0.134046 0.228837 0)
(-0.143462 0.236284 0)
(-0.152627 0.242622 0)
(-0.16145 0.247718 0)
(-0.169848 0.251467 0)
(-0.177745 0.253794 0)
(-0.185075 0.254659 0)
(-0.191789 0.254054 0)
(-0.197855 0.252009 0)
(-0.203257 0.248584 0)
(-0.000321823 0.0167086 0)
(-0.00206954 0.0438151 0)
(-0.00560145 0.0654864 0)
(-0.010283 0.0827959 0)
(-0.0158011 0.0968529 0)
(-0.0219723 0.108688 0)
(-0.0286607 0.11918 0)
(-0.0357778 0.129014 0)
(-0.0432721 0.138675 0)
(-0.0511133 0.148465 0)
(-0.0592796 0.158526 0)
(-0.0677487 0.168875 0)
(-0.0764917 0.179442 0)
(-0.08547 0.190092 0)
(-0.0946332 0.200655 0)
(-0.10392 0.21094 0)
(-0.113259 0.220747 0)
(-0.12257 0.229876 0)
(-0.131767 0.238138 0)
(-0.140761 0.245357 0)
(-0.149463 0.251377 0)
(-0.157786 0.256071 0)
(-0.165651 0.25934 0)
(-0.172989 0.261121 0)
(-0.179743 0.261387 0)
(-0.185876 0.260147 0)
(-0.191363 0.257449 0)
(-0.1962 0.253369 0)
(-0.000312021 0.0177814 0)
(-0.00202114 0.0465779 0)
(-0.00549096 0.0695553 0)
(-0.0101066 0.0878598 0)
(-0.0155607 0.102673 0)
(-0.0216697 0.115095 0)
(-0.0282943 0.126057 0)
(-0.0353414 0.13629 0)
(-0.0427539 0.146307 0)
(-0.0504962 0.156423 0)
(-0.0585415 0.166786 0)
(-0.0668633 0.17741 0)
(-0.0754286 0.188214 0)
(-0.0841951 0.199056 0)
(-0.09311 0.209754 0)
(-0.102109 0.220106 0)
(-0.111121 0.229904 0)
(-0.120063 0.238941 0)
(-0.128851 0.247023 0)
(-0.137398 0.253974 0)
(-0.145617 0.259641 0)
(-0.153427 0.263901 0)
(-0.160756 0.266666 0)
(-0.167541 0.267885 0)
(-0.173736 0.267545 0)
(-0.179311 0.265674 0)
(-0.184254 0.262335 0)
(-0.18857 0.257624 0)
(-0.000299076 0.0188233 0)
(-0.00195513 0.0492764 0)
(-0.0053366 0.0735461 0)
(-0.00985474 0.0928427 0)
(-0.0152113 0.108414 0)
(-0.0212233 0.12142 0)
(-0.027749 0.13285 0)
(-0.0346903 0.143472 0)
(-0.0419847 0.153829 0)
(-0.0495911 0.164253 0)
(-0.0574779 0.174892 0)
(-0.0656139 0.185761 0)
(-0.0739629 0.196772 0)
(-0.0824795 0.207771 0)
(-0.0911087 0.218566 0)
(-0.0997855 0.228947 0)
(-0.108436 0.238695 0)
(-0.116981 0.247601 0)
(-0.125336 0.255467 0)
(-0.133417 0.262117 0)
(-0.141142 0.267402 0)
(-0.148436 0.271205 0)
(-0.155232 0.273451 0)
(-0.161479 0.2741 0)
(-0.167137 0.273157 0)
(-0.172187 0.270667 0)
(-0.176626 0.26671 0)
(-0.180468 0.2614 0)
(-0.000283107 0.0198249 0)
(-0.00187199 0.0518891 0)
(-0.00513927 0.0774302 0)
(-0.00952883 0.0977122 0)
(-0.0147544 0.11404 0)
(-0.0206351 0.127631 0)
(-0.0270272 0.139522 0)
(-0.0338278 0.150525 0)
(-0.040969 0.161207 0)
(-0.048404 0.171916 0)
(-0.0560963 0.182808 0)
(-0.0640107 0.193893 0)
(-0.0721076 0.205078 0)
(-0.0803395 0.216199 0)
(-0.0886499 0.227057 0)
(-0.096973 0.237429 0)
(-0.105236 0.247094 0)
(-0.11336 0.255835 0)
(-0.121264 0.263453 0)
(-0.128867 0.269775 0)
(-0.136094 0.274655 0)
(-0.142874 0.277987 0)
(-0.14915 0.279706 0)
(-0.154878 0.279788 0)
(-0.160028 0.278254 0)
(-0.164589 0.275165 0)
(-0.168567 0.27062 0)
(-0.171985 0.264747 0)
(-0.000264289 0.0207775 0)
(-0.00177245 0.054395 0)
(-0.00490046 0.0811794 0)
(-0.00913103 0.102436 0)
(-0.0141928 0.119518 0)
(-0.0199086 0.133691 0)
(-0.0261332 0.14604 0)
(-0.0327594 0.157413 0)
(-0.0397135 0.168405 0)
(-0.0469434 0.179379 0)
(-0.0544074 0.190498 0)
(-0.0620667 0.201771 0)
(-0.069879 0.213099 0)
(-0.077795 0.22431 0)
(-0.0857573 0.235196 0)
(-0.0937006 0.245528 0)
(-0.101553 0.255077 0)
(-0.109238 0.263624 0)
(-0.116679 0.270969 0)
(-0.1238 0.276942 0)
(-0.130529 0.281404 0)
(-0.136805 0.284258 0)
(-0.142578 0.285452 0)
(-0.147811 0.284976 0)
(-0.152484 0.282869 0)
(-0.156595 0.279208 0)
(-0.160157 0.27411 0)
(-0.163198 0.267717 0)
(-0.000242845 0.0216724 0)
(-0.00165748 0.0567743 0)
(-0.00462219 0.0847665 0)
(-0.00866438 0.106984 0)
(-0.0135306 0.124816 0)
(-0.0190488 0.139569 0)
(-0.025073 0.152371 0)
(-0.0314922 0.164104 0)
(-0.0382271 0.175391 0)
(-0.0452199 0.18661 0)
(-0.0524244 0.197931 0)
(-0.059798 0.209364 0)
(-0.0672963 0.220804 0)
(-0.0748687 0.232075 0)
(-0.0824579 0.242958 0)
(-0.0899996 0.25322 0)
(-0.097424 0.262626 0)
(-0.104658 0.270956 0)
(-0.111629 0.278009 0)
(-0.118266 0.283619 0)
(-0.124505 0.287656 0)
(-0.13029 0.290033 0)
(-0.13558 0.29071 0)
(-0.140347 0.289694 0)
(-0.144577 0.287039 0)
(-0.148277 0.28284 0)
(-0.151466 0.277227 0)
(-0.154178 0.270358 0)
(-0.000219046 0.0225018 0)
(-0.00152828 0.0590079 0)
(-0.00430699 0.0881657 0)
(-0.00813275 0.111326 0)
(-0.0127728 0.1299 0)
(-0.0180618 0.145232 0)
(-0.0238542 0.158483 0)
(-0.0300354 0.170567 0)
(-0.0365207 0.182133 0)
(-0.0432467 0.193576 0)
(-0.0501627 0.205076 0)
(-0.057223 0.216642 0)
(-0.064381 0.228167 0)
(-0.0715858 0.239468 0)
(-0.0787808 0.250322 0)
(-0.0859033 0.260489 0)
(-0.0928867 0.26973 0)
(-0.0996617 0.277823 0)
(-0.10616 0.284571 0)
(-0.112317 0.289812 0)
(-0.118076 0.293424 0)
(-0.123388 0.295331 0)
(-0.128219 0.295507 0)
(-0.132548 0.293973 0)
(-0.136371 0.290801 0)
(-0.139698 0.2861 0)
(-0.142556 0.280015 0)
(-0.144981 0.272715 0)
(-0.000193211 0.0232587 0)
(-0.00138627 0.0610782 0)
(-0.00395792 0.0913523 0)
(-0.00754075 0.115432 0)
(-0.0119256 0.134743 0)
(-0.0169553 0.15065 0)
(-0.0224859 0.164344 0)