/*--------------------------------*- C++ -*----------------------------------*\
  =========                 |
  \\      /  F ield         | OpenFOAM: The Open Source CFD Toolbox
   \\    /   O peration     | Website:  https://openfoam.org
    \\  /    A nd           | Version:  9
     \\/     M anipulation  |
\*---------------------------------------------------------------------------*/
FoamFile
{
    format      ascii;
    class       volScalarField;
    location    "3";
    object      p;
}
// * * * * * * * * * * * * * * * * * * * * * * * * * * * * * * * * * * * * * //

dimensions      [0 2 -2 0 0 0 0];

internalField   nonuniform List<scalar> 
1250
(
-0.0156168
-0.0157747
-0.0169651
-0.0170956
-0.0172705
-0.0175405
-0.0179452
-0.0185097
-0.0192535
-0.0201922
-0.0213382
-0.0227013
-0.0242883
-0.0261013
-0.0281376
-0.0303888
-0.0328404
-0.0354726
-0.0382609
-0.0411769
-0.0441897
-0.0472676
-0.050379
-0.053494
-0.0565852
-0.0596288
-0.0626047
-0.0654969
-0.0682935
-0.0709858
-0.0735686
-0.0760389
-0.0783959
-0.0806402
-0.0827731
-0.0847966
-0.0182896
-0.0183922
-0.0185541
-0.0188201
-0.0192265
-0.0197979
-0.0205527
-0.0215055
-0.0226678
-0.0240487
-0.0256538
-0.0274848
-0.029538
-0.0318042
-0.0342684
-0.0369101
-0.0397041
-0.0426218
-0.0456322
-0.0487035
-0.0518044
-0.0549054
-0.0579798
-0.0610044
-0.0639599
-0.066831
-0.0696064
-0.0722782
-0.0748415
-0.0772938
-0.0796345
-0.0818644
-0.0839849
-0.085998
-0.0879057
-0.0897101
-0.091413
-0.0930157
-0.0945194
-0.0959247
-0.0972321
-0.0984417
-0.0995535
-0.0195804
-0.0196548
-0.0198025
-0.0200629
-0.0204692
-0.0210452
-0.0218083
-0.0227721
-0.0239472
-0.0253417
-0.0269605
-0.0288045
-0.0308693
-0.0331452
-0.0356165
-0.0382621
-0.0410567
-0.0439712
-0.0469748
-0.0500357
-0.053123
-0.0562077
-0.0592636
-0.0622681
-0.0652028
-0.0680529
-0.0708076
-0.0734597
-0.0760045
-0.07844
-0.0807657
-0.0829825
-0.0850917
-0.0870955
-0.0889957
-0.0907943
-0.0924927
-0.0940924
-0.0955941
-0.0969985
-0.0983058
-0.099516
-0.100629
-0.101644
-0.102562
-0.10338
-0.1041
-0.10472
-0.105241
-0.0208288
-0.0208737
-0.0210067
-0.0212602
-0.0216644
-0.0222425
-0.0230112
-0.023983
-0.0251674
-0.0265716
-0.0281998
-0.0300522
-0.0321238
-0.0344043
-0.0368776
-0.0395223
-0.0423127
-0.0452199
-0.0482129
-0.0512603
-0.0543315
-0.057398
-0.0604343
-0.0634182
-0.066332
-0.0691614
-0.0718963
-0.0745296
-0.0770572
-0.0794771
-0.081789
-0.0839939
-0.0860931
-0.0880886
-0.0899823
-0.0917757
-0.0934705
-0.0950676
-0.0965679
-0.0979717
-0.0992792
-0.10049
-0.101604
-0.102621
-0.10354
-0.104361
-0.105083
-0.105706
-0.106229
-0.0220249
-0.0220414
-0.022159
-0.0224037
-0.0228037
-0.0233817
-0.0241534
-0.02513
-0.0263204
-0.0277306
-0.0293642
-0.0312206
-0.0332945
-0.035575
-0.0380457
-0.040685
-0.0434672
-0.0463633
-0.0493425
-0.0523739
-0.055427
-0.058474
-0.0614898
-0.064453
-0.0673461
-0.0701555
-0.0728714
-0.0754871
-0.0779987
-0.0804043
-0.0827038
-0.084898
-0.0869884
-0.0889766
-0.0908646
-0.0926538
-0.0943455
-0.0959406
-0.0974398
-0.0988434
-0.100151
-0.101363
-0.102479
-0.103497
-0.104418
-0.105241
-0.105965
-0.10659
-0.107115
-0.0231618
-0.0231499
-0.0232516
-0.0234865
-0.02388
-0.0244556
-0.0252275
-0.0262061
-0.0273991
-0.0288119
-0.030447
-0.0323035
-0.0343754
-0.0366516
-0.0391155
-0.0417455
-0.0445157
-0.0473975
-0.0503603
-0.0533734
-0.056407
-0.0594335
-0.0624285
-0.0653709
-0.0682439
-0.0710341
-0.0737321
-0.0763314
-0.0788282
-0.0812209
-0.0835092
-0.085694
-0.0877766
-0.0897587
-0.0916418
-0.0934274
-0.0951167
-0.0967104
-0.098209
-0.0996126
-0.100921
-0.102134
-0.103251
-0.104271
-0.105194
-0.106019
-0.106745
-0.107372
-0.107899
-0.0242327
-0.0241931
-0.024278
-0.0245015
-0.0248874
-0.0254579
-0.0262274
-0.0272051
-0.0283976
-0.0298095
-0.0314425
-0.0332952
-0.0353612
-0.0376292
-0.0400826
-0.0426996
-0.0454547
-0.0483194
-0.0512634
-0.0542565
-0.0572693
-0.0602747
-0.0632486
-0.0661706
-0.0690241
-0.0717961
-0.0744773
-0.0770615
-0.079545
-0.0819261
-0.0842045
-0.086381
-0.088457
-0.0904338
-0.092313
-0.0940958
-0.0957833
-0.0973761
-0.0988745
-0.100279
-0.101588
-0.102802
-0.103921
-0.104943
-0.105867
-0.106694
-0.107422
-0.108051
-0.10858
-0.0252322
-0.0251658
-0.0252332
-0.0254439
-0.0258201
-0.0263835
-0.0271479
-0.0281217
-0.0293107
-0.0307184
-0.032346
-0.0341913
-0.0362478
-0.038504
-0.0409432
-0.0435441
-0.0462811
-0.0491261
-0.0520494
-0.0550209
-0.058012
-0.0609958
-0.0639488
-0.0668508
-0.0696855
-0.0724403
-0.075106
-0.0776764
-0.0801479
-0.0825187
-0.0847886
-0.0869581
-0.0890285
-0.0910011
-0.0928772
-0.094658
-0.0963444
-0.0979368
-0.0994355
-0.10084
-0.102151
-0.103367
-0.104487
-0.105511
-0.106438
-0.107267
-0.107997
-0.108628
-0.109159
-0.0261555
-0.0260633
-0.026113
-0.0263098
-0.0266742
-0.0272281
-0.0279848
-0.028952
-0.0301344
-0.0315348
-0.0331536
-0.0349881
-0.0370317
-0.0392726
-0.0416946
-0.0442762
-0.0469925
-0.0498156
-0.0527163
-0.0556651
-0.0586336
-0.0615955
-0.0645277
-0.0674103
-0.0702271
-0.0729658
-0.0756172
-0.0781752
-0.080636
-0.0829979
-0.0852605
-0.0874243
-0.0894902
-0.0914596
-0.0933335
-0.0951131
-0.096799
-0.0983916
-0.099891
-0.101297
-0.102609
-0.103827
-0.104949
-0.105975
-0.106904
-0.107735
-0.108468
-0.109101
-0.109634
-0.0269991
-0.0268823
-0.0269141
-0.0270959
-0.0274467
-0.0279887
-0.0287351
-0.0296928
-0.0308657
-0.0322556
-0.0338624
-0.035683
-0.0377103
-0.0399328
-0.0423345
-0.044894
-0.047587
-0.0503862
-0.0532627
-0.0561875
-0.0591328
-0.0620727
-0.0649843
-0.067848
-0.0706478
-0.0733715
-0.0760098
-0.0785567
-0.0810082
-0.0833626
-0.0856192
-0.0877784
-0.089841
-0.0918082
-0.0936809
-0.09546
-0.0971462
-0.0987396
-0.10024
-0.101648
-0.102962
-0.104182
-0.105307
-0.106335
-0.107267
-0.1081
-0.108835
-0.10947
-0.110005
-0.0277605
-0.0276205
-0.0276343
-0.0278
-0.0281356
-0.0286635
-0.0293969
-0.0303422
-0.0315025
-0.0328789
-0.0344706
-0.036274
-0.038282
-0.0404831
-0.0428613
-0.0453961
-0.0480634
-0.0508366
-0.0536874
-0.0565872
-0.0595086
-0.0624263
-0.0653175
-0.0681628
-0.0709465
-0.0736562
-0.0762827
-0.0788198
-0.0812634
-0.0836116
-0.0858635
-0.0880194
-0.0900799
-0.0920459
-0.0939183
-0.0956979
-0.0973851
-0.0989801
-0.100483
-0.101893
-0.103209
-0.104432
-0.105559
-0.10659
-0.107525
-0.108361
-0.109098
-0.109735
-0.110272
-0.0284384
-0.0282766
-0.0282726
-0.0284213
-0.0287398
-0.0292514
-0.0299691
-0.0308991
-0.0320438
-0.0334037
-0.0349771
-0.0367602
-0.0387457
-0.0409223
-0.0432742
-0.0457817
-0.0484211
-0.0511663
-0.0539897
-0.0568634
-0.0597603
-0.0626555
-0.0655264
-0.0683539
-0.0711223
-0.073819
-0.0764349
-0.0789634
-0.0814005
-0.0837438
-0.0859923
-0.0881462
-0.0902057
-0.0921717
-0.0940448
-0.0958258
-0.0975149
-0.0991122
-0.100618
-0.10203
-0.10335
-0.104576
-0.105706
-0.106741
-0.0290321
-0.0288502
-0.0288286
-0.0289596
-0.0292595
-0.0297525
-0.0304519
-0.0313636
-0.0324897
-0.0338297
-0.0353818
-0.0371414
-0.0391013
-0.0412504
-0.0435733
-0.0460507
-0.0486597
-0.051375
-0.0541694
-0.0570157
-0.0598874
-0.0627596
-0.0656104
-0.0684205
-0.0711741
-0.0738588
-0.0764651
-0.0789864
-0.0814181
-0.0837579
-0.0860044
-0.0881575
-0.0902173
-0.0921844
-0.0940595
-0.0958428
-0.0975348
-0.0991353
-0.100644
-0.102061
-0.103384
-0.104613
-0.105748
-0.106786
-0.0295421
-0.029342
-0.0293032
-0.0294157
-0.0296957
-0.0301678
-0.0308462
-0.0317366
-0.0328408
-0.0341579
-0.0356853
-0.0374183
-0.0393494
-0.0414679
-0.0437588
-0.0462034
-0.0487796
-0.0514627
-0.0542264
-0.057044
-0.0598895
-0.0627384
-0.0655688
-0.0683617
-0.0711012
-0.0737747
-0.0763724
-0.0788875
-0.0813153
-0.0836528
-0.0858986
-0.0880522
-0.0901136
-0.0920831
-0.0939612
-0.0957481
-0.0974439
-0.0990486
-0.100562
-0.101983
-0.103311
-0.104545
-0.105683
-0.106726
-0.0299698
-0.0297532
-0.0296978
-0.0297914
-0.03005
-0.0304993
-0.0311539
-0.0320201
-0.0330991
-0.0343899
-0.0358892
-0.0375922
-0.0394913
-0.041576
-0.0438318
-0.0462407
-0.0487815
-0.0514302
-0.0541612
-0.0569485
-0.0597666
-0.0625914
-0.0654012
-0.068177
-0.0709027
-0.0735656
-0.0761557
-0.0786657
-0.0810906
-0.0834272
-0.0856737
-0.0878292
-0.0898935
-0.0918667
-0.0937491
-0.0955407
-0.0972416
-0.0988516
-0.10037
-0.101796
-0.10313
-0.104369
-0.105513
-0.10656
-0.0303173
-0.0300862
-0.0300149
-0.0300893
-0.0303253
-0.0307497
-0.0313779
-0.0322166
-0.0332671
-0.0345281
-0.0359959
-0.0376654
-0.039529
-0.0415765
-0.043794
-0.0461642
-0.0486667
-0.0512784
-0.0539745
-0.0567297
-0.059519
-0.0623187
-0.0651073
-0.0678657
-0.0705779
-0.0732307
-0.0758139
-0.0783198
-0.080743
-0.0830799
-0.0853284
-0.0874872
-0.0895558
-0.0915341
-0.0934221
-0.0952198
-0.0969271
-0.0985435
-0.100069
-0.101501
-0.102841
-0.104087
-0.105237
-0.10629
-0.0305874
-0.0303439
-0.0302574
-0.0303125
-0.0305249
-0.0309224
-0.0315216
-0.0323297
-0.0333483
-0.0345757
-0.0360084
-0.0376407
-0.0394652
-0.0414719
-0.0436476
-0.0459758
-0.0484368
-0.0510087
-0.0536674
-0.0563883
-0.0591471
-0.0619204
-0.0646869
-0.0674275
-0.070126
-0.072769
-0.0753459
-0.0778486
-0.0802712
-0.0826097
-0.0848614
-0.087025
-0.0890994
-0.0910842
-0.0929794
-0.0947846
-0.0964996
-0.0981238
-0.0996567
-0.101097
-0.102445
-0.103698
-0.104855
-0.105915
-0.0307835
-0.0305297
-0.030429
-0.0304648
-0.0306528
-0.0310218
-0.0315894
-0.0323636
-0.0333467
-0.0345368
-0.0359303
-0.0375215
-0.039303
-0.0412652
-0.0433953
-0.0456778
-0.0480941
-0.0506229
-0.0532413
-0.0559255
-0.0586517
-0.061397
-0.0641401
-0.0668622
-0.0695467
-0.0721799
-0.0747509
-0.077251
-0.079674
-0.0820152
-0.0842716
-0.0864413
-0.088523
-0.090516
-0.0924199
-0.0942342
-0.0959584
-0.097592
-0.0991341
-0.100584
-0.10194
-0.103202
-0.104367
-0.105435
-0.0309097
-0.0306476
-0.0305338
-0.0305506
-0.0307137
-0.0310525
-0.0315861
-0.0323233
-0.033267
-0.034416
-0.0357662
-0.0373121
-0.0390464
-0.0409598
-0.0430404
-0.0452733
-0.047641
-0.0501232
-0.0526981
-0.0553427
-0.0580338
-0.0607489
-0.0634672
-0.0661696
-0.0688394
-0.0714627
-0.0740279
-0.0765261
-0.0789502
-0.0812952
-0.0835576
-0.0857349
-0.0878255
-0.0898283
-0.0917426
-0.0935676
-0.0953028
-0.0969474
-0.0985004
-0.0999608
-0.101327
-0.102599
-0.103774
-0.104851
-0.0309704
-0.0307022
-0.0305765
-0.0305747
-0.0307124
-0.0310198
-0.031517
-0.0322141
-0.0331148
-0.0342183
-0.0355209
-0.0370171
-0.0386998
-0.04056
-0.0425866
-0.0447656
-0.0470805
-0.0495122
-0.0520399
-0.0546415
-0.0572946
-0.0599772
-0.0626686
-0.0653498
-0.0680039
-0.0706167
-0.0731762
-0.0756727
-0.0780986
-0.0804485
-0.0827181
-0.0849045
-0.0870057
-0.08902
-0.0909465
-0.0927842
-0.0945322
-0.0961895
-0.0977552
-0.099228
-0.100607
-0.10189
-0.103076
-0.104163
-0.0309704
-0.0306981
-0.0305618
-0.0305421
-0.0306543
-0.0309292
-0.0313879
-0.0320419
-0.0328958
-0.0339497
-0.0352
-0.0366417
-0.0382679
-0.0400702
-0.042038
-0.0441584
-0.046416
-0.0487929
-0.0512692
-0.0538241
-0.0564357
-0.0590829
-0.0617449
-0.064403
-0.0670402
-0.0696417
-0.072195
-0.0746899
-0.0771184
-0.079474
-0.0817521
-0.0839491
-0.0860624
-0.0880901
-0.0900307
-0.091883
-0.0936457
-0.0953178
-0.0968981
-0.0983851
-0.0997776
-0.101074
-0.102273
-0.103372
-0.0309148
-0.0306405
-0.030495
-0.0304582
-0.0305451
-0.0307866
-0.031205
-0.0318129
-0.0326164
-0.0336161
-0.0348095
-0.0361917
-0.0377563
-0.0394954
-0.0413993
-0.043456
-0.0456512
-0.0479684
-0.0503889
-0.0528927
-0.0554591
-0.0580673
-0.0606972
-0.06333
-0.0659484
-0.0685373
-0.0710839
-0.0735772
-0.0760084
-0.0783706
-0.0806582
-0.0828673
-0.0849945
-0.0870374
-0.0889941
-0.0908631
-0.0926428
-0.0943318
-0.0959288
-0.0974322
-0.0988405
-0.100152
-0.101365
-0.102478
-0.0308088
-0.0305345
-0.0303812
-0.0303284
-0.0303903
-0.0305981
-0.0309745
-0.0315337
-0.032283
-0.0332243
-0.0343557
-0.0356731
-0.0371706
-0.0388409
-0.0406753
-0.0426628
-0.0447903
-0.0470424
-0.049402
-0.0518501
-0.0543669
-0.0569324
-0.0595267
-0.0621313
-0.0647287
-0.0673037
-0.0698425
-0.0723338
-0.0747679
-0.0771373
-0.0794356
-0.0816581
-0.0838009
-0.0858609
-0.0878359
-0.0897238
-0.0915227
-0.0932309
-0.0948469
-0.0963689
-0.0977952
-0.0991242
-0.100354
-0.101483
-0.0306578
-0.0303854
-0.0302258
-0.0301581
-0.0301958
-0.0303696
-0.0307028
-0.0312109
-0.0319026
-0.0327809
-0.0338453
-0.0350923
-0.0365168
-0.0381125
-0.0398714
-0.0417836
-0.0438375
-0.0460189
-0.048312
-0.0506992
-0.0531616
-0.0556799
-0.0582349
-0.0608081
-0.063382
-0.065941
-0.0684708
-0.0709594
-0.0733964
-0.0757734
-0.0780833
-0.0803206
-0.0824806
-0.0845598
-0.0865552
-0.0884643
-0.0902848
-0.0920148
-0.0936523
-0.0951953
-0.0966421
-0.0979906
-0.0992391
-0.100385
-0.0304671
-0.0301983
-0.030034
-0.0299528
-0.0299672
-0.0301072
-0.0303964
-0.0308513
-0.0314819
-0.032293
-0.0332851
-0.034456
-0.0358015
-0.0373161
-0.0389931
-0.0408237
-0.0427975
-0.0449021
-0.0471228
-0.0494433
-0.051846
-0.0543123
-0.0568237
-0.0593619
-0.0619093
-0.0644498
-0.066969
-0.069454
-0.0718935
-0.0742784
-0.0766007
-0.078854
-0.081033
-0.0831333
-0.0851514
-0.0870841
-0.0889288
-0.0906831
-0.0923446
-0.0939114
-0.0953811
-0.0967519
-0.0980214
-0.0991878
-0.0302418
-0.0299784
-0.0298109
-0.0297178
-0.02971
-0.0298167
-0.0300613
-0.0304613
-0.0310279
-0.0317675
-0.0326822
-0.0337709
-0.035031
-0.0364579
-0.0380461
-0.0397882
-0.0416753
-0.0436963
-0.0458382
-0.048086
-0.0504232
-0.0528324
-0.0552954
-0.0577944
-0.0603118
-0.0628313
-0.0653379
-0.0678178
-0.0702594
-0.0726522
-0.0749875
-0.0772579
-0.0794574
-0.0815808
-0.0836238
-0.0855826
-0.0874542
-0.0892355
-0.090924
-0.0925172
-0.0940128
-0.0954083
-0.0967017
-0.0978906
-0.0299872
-0.0297308
-0.0295616
-0.029458
-0.0294296
-0.0295037
-0.0297038
-0.0300474
-0.0305473
-0.0312114
-0.0320434
-0.0330441
-0.034212
-0.0355442
-0.0370364
-0.0386828
-0.0404759
-0.0424063
-0.0444625
-0.0466311
-0.0488967
-0.051243
-0.0536526
-0.0561079
-0.0585916
-0.0610869
-0.0635784
-0.0660518
-0.0684944
-0.0708949
-0.0732437
-0.0755323
-0.0777538
-0.0799022
-0.0819723
-0.0839598
-0.0858609
-0.0876722
-0.0893906
-0.0910132
-0.0925375
-0.0939607
-0.0952806
-0.0964947
-0.029708
-0.02946
-0.0292908
-0.0291783
-0.0291308
-0.0291737
-0.0293294
-0.0296157
-0.0300466
-0.0306314
-0.0313758
-0.0322822
-0.0333511
-0.0345813
-0.03597
-0.037513
-0.0392046
-0.041037
-0.0430004
-0.0450827
-0.0472703
-0.0495477
-0.0518983
-0.0543051
-0.0567508
-0.0592186
)
;

boundaryField
{
    movingWall
    {
        type            zeroGradient;
    }
    fixedWalls
    {
        type            zeroGradient;
    }
    frontAndBack
    {
        type            empty;
    }
    procBoundary3to0
    {
        type            processor;
        value           nonuniform List<scalar> 
29
(
-0.0142554
-0.0144398
-0.0159615
-0.0159615
-0.016234
-0.016635
-0.0171903
-0.0179204
-0.0188418
-0.0199678
-0.0213091
-0.0228732
-0.0246631
-0.0266769
-0.028907
-0.03134
-0.0339568
-0.0367335
-0.0396422
-0.0426525
-0.0457326
-0.0488508
-0.0519767
-0.0550825
-0.0581434
-0.0611389
-0.064052
-0.0668699
-0.0695833
)
;
    }
    procBoundary3to1
    {
        type            processor;
        value           nonuniform List<scalar> 
23
(
-0.0721865
-0.0746759
-0.0770504
-0.0793102
-0.0814567
-0.0834918
-0.0867129
-0.0867129
-0.0885241
-0.0902321
-0.0918385
-0.0933445
-0.0947511
-0.0960589
-0.0972681
-0.0983789
-0.100567
-0.100567
-0.101483
-0.102299
-0.103017
-0.103635
-0.104153
)
;
    }
    procBoundary3to2
    {
        type            processor;
        value           nonuniform List<scalar> 
45
(
-0.0616924
-0.0641573
-0.0665998
-0.0690075
-0.07137
-0.0736776
-0.0759225
-0.0780977
-0.0801972
-0.0822159
-0.0841493
-0.0859934
-0.0877447
-0.0893999
-0.0909559
-0.09241
-0.0937593
-0.0950014
-0.0294089
-0.0291707
-0.0290028
-0.0288833
-0.0288184
-0.0288314
-0.0289434
-0.029172
-0.0295319
-0.0300339
-0.0306857
-0.0314919
-0.0324549
-0.0335755
-0.0348528
-0.0362845
-0.0378667
-0.0395933
-0.0414563
-0.0434454
-0.0455481
-0.0477502
-0.0500362
-0.0523893
-0.0547926
-0.0616924
-0.057229
)
;
    }
    procBoundary3to5
    {
        type            processor;
        value           nonuniform List<scalar> 
21
(
-0.107678
-0.108517
-0.109257
-0.109897
-0.110436
-0.107678
-0.107727
-0.107671
-0.10751
-0.107245
-0.106876
-0.106404
-0.105828
-0.10515
-0.10437
-0.10349
-0.102508
-0.101428
-0.100249
-0.0989729
-0.0976007
)
;
    }
    procBoundary3to6
    {
        type            processor;
        value           nonuniform List<scalar> 9(-0.105662 -0.106652 -0.10754 -0.108326 -0.109009 -0.109589 -0.110066 -0.110439 -0.110708);
    }
}


// ************************************************************************* //
