/*--------------------------------*- C++ -*----------------------------------*\
  =========                 |
  \\      /  F ield         | OpenFOAM: The Open Source CFD Toolbox
   \\    /   O peration     | Website:  https://openfoam.org
    \\  /    A nd           | Version:  9
     \\/     M anipulation  |
\*---------------------------------------------------------------------------*/
FoamFile
{
    format      ascii;
    class       surfaceScalarField;
    location    "3";
    object      phi;
}
// * * * * * * * * * * * * * * * * * * * * * * * * * * * * * * * * * * * * * //

dimensions      [0 3 -1 0 0 0 0];

internalField   nonuniform List<scalar> 
2422
(
-5.556e-09
3.55494e-07
9.3392e-07
-4.0229e-09
3.59517e-07
-1.83503e-08
9.48248e-07
-4.3808e-08
1.41897e-06
-7.96735e-08
1.78906e-06
-1.24126e-07
2.07957e-06
-1.74863e-07
2.3119e-06
-2.29612e-07
2.50454e-06
-2.86433e-07
2.67118e-06
-3.43818e-07
2.82028e-06
-4.00653e-07
2.95588e-06
-4.56119e-07
3.07884e-06
-5.09598e-07
3.18818e-06
-5.60595e-07
3.28217e-06
-6.08705e-07
3.35895e-06
-6.53596e-07
3.41699e-06
-6.95014e-07
3.45525e-06
-7.32788e-07
3.47328e-06
-7.66841e-07
3.47121e-06
-7.97189e-07
3.44972e-06
-8.23947e-07
3.41e-06
-8.47314e-07
3.35365e-06
-8.67567e-07
3.28259e-06
-8.85042e-07
3.19892e-06
-9.00115e-07
3.10487e-06
-9.1318e-07
3.00263e-06
-9.24632e-07
2.89427e-06
-9.34846e-07
2.78167e-06
-9.44165e-07
2.66646e-06
-9.52889e-07
2.54999e-06
-9.61269e-07
2.43331e-06
-9.69505e-07
2.31719e-06
-9.77748e-07
2.20215e-06
-9.86103e-07
2.08849e-06
1.97634e-06
-2.48932e-09
3.62007e-07
-1.32083e-08
9.58967e-07
-3.38347e-08
1.43959e-06
-6.43024e-08
1.81953e-06
-1.03212e-07
2.11848e-06
-1.48476e-07
2.35716e-06
-1.97892e-07
2.55396e-06
-2.49511e-07
2.7228e-06
-3.01791e-07
2.87256e-06
-3.53594e-07
3.00768e-06
-4.041e-07
3.12934e-06
-4.52713e-07
3.2368e-06
-4.98979e-07
3.32844e-06
-5.42538e-07
3.40251e-06
-5.83112e-07
3.45757e-06
-6.20492e-07
3.49263e-06
-6.54553e-07
3.50734e-06
-6.8525e-07
3.5019e-06
-7.12626e-07
3.4771e-06
-7.36807e-07
3.43418e-06
-7.57995e-07
3.37484e-06
-7.76459e-07
3.30105e-06
-7.92512e-07
3.21498e-06
-8.065e-07
3.11886e-06
-8.18782e-07
3.01491e-06
-8.29708e-07
2.9052e-06
-8.39609e-07
2.79157e-06
-8.48784e-07
2.67564e-06
-8.57489e-07
2.5587e-06
-8.65937e-07
2.44176e-06
-8.74293e-07
2.32555e-06
-8.82681e-07
2.21054e-06
-8.91183e-07
2.09699e-06
-8.99849e-07
1.985e-06
-9.08701e-07
1.87452e-06
-9.1774e-07
1.76542e-06
-9.26953e-07
1.6575e-06
-9.36318e-07
1.55057e-06
-9.45808e-07
1.44439e-06
-9.55395e-07
1.33877e-06
-9.65052e-07
1.23351e-06
-9.74757e-07
1.12847e-06
1.0235e-06
-9.88526e-10
3.62995e-07
-8.06228e-09
9.6604e-07
-2.37726e-08
1.4553e-06
-4.87018e-08
1.84446e-06
-8.18949e-08
2.15167e-06
-1.2151e-07
2.39678e-06
-1.65439e-07
2.59789e-06
-2.11736e-07
2.76909e-06
-2.5883e-07
2.91966e-06
-3.05558e-07
3.05441e-06
-3.51099e-07
3.17488e-06
-3.94874e-07
3.28057e-06
-4.36464e-07
3.37003e-06
-4.75557e-07
3.44161e-06
-5.1192e-07
3.49393e-06
-5.45391e-07
3.5261e-06
-5.75881e-07
3.53783e-06
-6.03377e-07
3.5294e-06
-6.27939e-07
3.50166e-06
-6.49703e-07
3.45595e-06
-6.68866e-07
3.394e-06
-6.85679e-07
3.31786e-06
-7.00434e-07
3.22973e-06
-7.13441e-07
3.13187e-06
-7.25018e-07
3.02649e-06
-7.35473e-07
2.91565e-06
-7.45091e-07
2.80119e-06
-7.54126e-07
2.68467e-06
-7.62795e-07
2.56737e-06
-7.71273e-07
2.45023e-06
-7.79697e-07
2.33397e-06
-7.88163e-07
2.219e-06
-7.96736e-07
2.10557e-06
-8.05454e-07
1.99372e-06
-8.1433e-07
1.8834e-06
-8.23362e-07
1.77445e-06
-8.32538e-07
1.66668e-06
-8.41838e-07
1.55987e-06
-8.51241e-07
1.4538e-06
-8.60725e-07
1.34825e-06
-8.7027e-07
1.24306e-06
-8.79861e-07
1.13806e-06
-8.89487e-07
1.03312e-06
-8.9914e-07
9.28154e-07
-9.08818e-07
8.23077e-07
-9.18521e-07
7.17839e-07
-9.28254e-07
6.12405e-07
-9.38022e-07
5.06752e-07
4.00867e-07
5.30806e-10
3.62464e-07
-2.94171e-09
9.69513e-07
-1.37053e-08
1.46607e-06
-3.29929e-08
1.86374e-06
-6.03272e-08
2.17901e-06
-9.41431e-08
2.4306e-06
-1.32449e-07
2.63619e-06
-1.73319e-07
2.80996e-06
-2.1516e-07
2.9615e-06
-2.56786e-07
3.09604e-06
-2.97366e-07
3.21546e-06
-3.36337e-07
3.31954e-06
-3.73312e-07
3.407e-06
-4.0802e-07
3.47631e-06
-4.40272e-07
3.52618e-06
-4.6995e-07
3.55578e-06
-4.96997e-07
3.56488e-06
-5.21425e-07
3.55383e-06
-5.4331e-07
3.52354e-06
-5.62788e-07
3.47542e-06
-5.80048e-07
3.41126e-06
-5.95323e-07
3.33314e-06
-6.08873e-07
3.24328e-06
-6.20972e-07
3.14397e-06
-6.31896e-07
3.03741e-06
-6.41909e-07
2.92567e-06
-6.51251e-07
2.81053e-06
-6.60134e-07
2.69356e-06
-6.68736e-07
2.57597e-06
-6.77199e-07
2.4587e-06
-6.85631e-07
2.3424e-06
-6.94107e-07
2.22748e-06
-7.02677e-07
2.11414e-06
-7.11368e-07
2.00241e-06
-7.20188e-07
1.89222e-06
-7.29134e-07
1.7834e-06
-7.38197e-07
1.67574e-06
-7.4736e-07
1.56903e-06
-7.56608e-07
1.46304e-06
-7.65927e-07
1.35757e-06
-7.75303e-07
1.25244e-06
-7.84729e-07
1.14748e-06
-7.94201e-07
1.04259e-06
-8.03716e-07
9.37669e-07
-8.13277e-07
8.32638e-07
-8.22891e-07
7.27453e-07
-8.32564e-07
6.22079e-07
-8.42307e-07
5.16495e-07
4.1069e-07
1.9622e-09
3.60502e-07
2.07733e-09
9.69398e-07
-3.70895e-09
1.47185e-06
-1.72949e-08
1.87733e-06
-3.86575e-08
2.20037e-06
-6.65466e-08
2.45848e-06
-9.91122e-08
2.66876e-06
-1.34466e-07
2.84532e-06
-1.71001e-07
2.99803e-06
-2.07504e-07
3.13254e-06
-2.43135e-07
3.25109e-06
-2.7734e-07
3.35375e-06
-3.09759e-07
3.43942e-06
-3.4016e-07
3.50672e-06
-3.68396e-07
3.55442e-06
-3.94382e-07
3.58177e-06
-4.18097e-07
3.58859e-06
-4.3957e-07
3.5753e-06
-4.58889e-07
3.54286e-06
-4.76187e-07
3.49272e-06
-4.91641e-07
3.42672e-06
-5.05459e-07
3.34696e-06
-5.17869e-07
3.25569e-06
-5.29108e-07
3.15521e-06
-5.39408e-07
3.04771e-06
-5.48988e-07
2.93525e-06
-5.58045e-07
2.81959e-06
-5.66751e-07
2.70226e-06
-5.75245e-07
2.58446e-06
-5.8364e-07
2.46709e-06
-5.92018e-07
2.35078e-06
-6.00436e-07
2.2359e-06
-6.0893e-07
2.12263e-06
-6.17519e-07
2.011e-06
-6.26209e-07
1.90091e-06
-6.34997e-07
1.79218e-06
-6.43877e-07
1.68462e-06
-6.52838e-07
1.57799e-06
-6.61872e-07
1.47208e-06
-6.7097e-07
1.36667e-06
-6.80128e-07
1.26159e-06
-6.89344e-07
1.1567e-06
-6.98621e-07
1.05187e-06
-7.07962e-07
9.4701e-07
-7.17376e-07
8.42052e-07
-7.26872e-07
7.36949e-07
-7.36462e-07
6.31669e-07
-7.46159e-07
5.26192e-07
4.20506e-07
3.34927e-09
3.57153e-07
6.9557e-09
9.65791e-07
6.11335e-09
1.47269e-06
-1.70506e-09
1.88515e-06
-1.70287e-08
2.21569e-06
-3.88889e-08
2.48034e-06
-6.56143e-08
2.69548e-06
-9.53745e-08
2.87508e-06
-1.26556e-07
3.02922e-06
-1.57924e-07
3.16391e-06
-1.88622e-07
3.28179e-06
-2.18101e-07
3.38323e-06
-2.46024e-07
3.46735e-06
-2.72191e-07
3.53288e-06
-2.96492e-07
3.57872e-06
-3.18878e-07
3.60415e-06
-3.39352e-07
3.60907e-06
-3.57963e-07
3.59391e-06
-3.74803e-07
3.5597e-06
-3.90002e-07
3.50792e-06
-4.03719e-07
3.44044e-06
-4.16137e-07
3.35937e-06
-4.27449e-07
3.267e-06
-4.37853e-07
3.16561e-06
-4.47536e-07
3.0574e-06
-4.56676e-07
2.94438e-06
-4.65425e-07
2.82834e-06
-4.73916e-07
2.71075e-06
-4.82256e-07
2.5928e-06
-4.90526e-07
2.47536e-06
-4.98787e-07
2.35904e-06
-5.07079e-07
2.24419e-06
-5.15428e-07
2.13098e-06
-5.23846e-07
2.01942e-06
-5.32338e-07
1.9094e-06
-5.40903e-07
1.80075e-06
-5.49539e-07
1.69326e-06
-5.5824e-07
1.58669e-06
-5.67006e-07
1.48084e-06
-5.75835e-07
1.3755e-06
-5.8473e-07
1.27049e-06
-5.93696e-07
1.16567e-06
-6.02742e-07
1.06092e-06
-6.11877e-07
9.56145e-07
-6.21115e-07
8.5129e-07
-6.30469e-07
7.46303e-07
-6.39953e-07
6.41154e-07
-6.49584e-07
5.35822e-07
4.30297e-07
4.67202e-09
3.52481e-07
1.16828e-08
9.58781e-07
1.57057e-08
1.46867e-06
1.36152e-08
1.88724e-06
4.41233e-09
2.2249e-06
-1.13334e-08
2.49609e-06
-3.21348e-08
2.71629e-06
-5.62338e-08
2.89918e-06
-8.20244e-08
3.05501e-06
-1.08249e-07
3.19013e-06
-1.34033e-07
3.30758e-06
-1.58826e-07
3.40802e-06
-1.82308e-07
3.49083e-06
-2.04307e-07
3.55488e-06
-2.24745e-07
3.59915e-06
-2.43605e-07
3.62301e-06
-2.60914e-07
3.62638e-06
-2.76734e-07
3.60973e-06
-2.91162e-07
3.57413e-06
-3.04318e-07
3.52108e-06
-3.16344e-07
3.45246e-06
-3.27394e-07
3.37042e-06
-3.37627e-07
3.27724e-06
-3.47199e-07
3.17518e-06
-3.56258e-07
3.06646e-06
-3.64933e-07
2.95306e-06
-3.73341e-07
2.83675e-06
-3.81573e-07
2.71899e-06
-3.89706e-07
2.60093e-06
-3.97793e-07
2.48345e-06
-4.05875e-07
2.36712e-06
-4.13977e-07
2.25229e-06
-4.22116e-07
2.13912e-06
-4.30299e-07
2.0276e-06
-4.38531e-07
1.91763e-06
-4.46814e-07
1.80903e-06
-4.55149e-07
1.70159e-06
-4.6354e-07
1.59508e-06
-4.71989e-07
1.48929e-06
-4.80505e-07
1.38402e-06
-4.89098e-07
1.27908e-06
-4.97778e-07
1.17435e-06
-5.06561e-07
1.0697e-06
-5.15461e-07
9.65046e-07
-5.24497e-07
8.60325e-07
-5.33684e-07
7.5549e-07
-5.43042e-07
6.50511e-07
-5.52588e-07
5.45368e-07
4.40048e-07
5.92001e-09
3.46561e-07
1.62113e-08
9.48489e-07
2.50078e-08
1.45987e-06
2.86185e-08
1.88363e-06
2.55326e-08
2.22798e-06
1.59603e-08
2.50566e-06
1.15601e-09
2.73109e-06
-1.7227e-08
2.91756e-06
-3.75936e-08
3.07537e-06
-5.86686e-08
3.21121e-06
-7.95582e-08
3.32847e-06
-9.9704e-08
3.42817e-06
-1.18795e-07
3.50992e-06
-1.36684e-07
3.57277e-06
-1.53322e-07
3.61579e-06
-1.68718e-07
3.63841e-06
-1.82919e-07
3.64058e-06
-1.96e-07
3.62281e-06
-2.08059e-07
3.58619e-06
-2.19206e-07
3.53222e-06
-2.29564e-07
3.46282e-06
-2.39257e-07
3.38012e-06
-2.4841e-07
3.28639e-06
-2.57138e-07
3.18391e-06
-2.65546e-07
3.07486e-06
-2.73723e-07
2.96124e-06
-2.81745e-07
2.84477e-06
-2.89669e-07
2.72691e-06
-2.97538e-07
2.6088e-06
-3.05383e-07
2.4913e-06
-3.13225e-07
2.37496e-06
-3.21076e-07
2.26014e-06
-3.28944e-07
2.14699e-06
-3.36834e-07
2.03549e-06
-3.44751e-07
1.92555e-06
-3.52698e-07
1.81698e-06
-3.60684e-07
1.70958e-06
-3.68716e-07
1.60312e-06
-3.76808e-07
1.49738e-06
-3.84972e-07
1.39218e-06
-3.93226e-07
1.28734e-06
-4.01588e-07
1.18271e-06
-4.10077e-07
1.07819e-06
-4.18715e-07
9.73684e-07
-4.27523e-07
8.69133e-07
-4.36522e-07
7.64489e-07
-4.45732e-07
6.59722e-07
-4.55175e-07
5.5481e-07
4.49741e-07
7.08455e-09
3.39476e-07
2.05092e-08
9.35065e-07
3.39479e-08
1.44644e-06
4.31845e-08
1.87439e-06
4.62098e-08
2.22496e-06
4.28406e-08
2.50903e-06
3.40809e-08
2.73985e-06
2.14664e-08
2.93018e-06
6.55392e-09
3.09029e-06
-9.36768e-09
3.22713e-06
-2.53809e-08
3.34448e-06
-4.09146e-08
3.4437e-06
-5.56615e-08
3.52467e-06
-6.94894e-08
3.5866e-06
-8.23782e-08
3.62868e-06
-9.43554e-08
3.65039e-06
-1.05489e-07
3.65171e-06
-1.15864e-07
3.63319e-06
-1.25577e-07
3.5959e-06
-1.34729e-07
3.54138e-06
-1.43421e-07
3.47151e-06
-1.51749e-07
3.38845e-06
-1.59802e-07
3.29444e-06
-1.67656e-07
3.19177e-06
-1.75375e-07
3.08258e-06
-1.83009e-07
2.96887e-06
-1.90594e-07
2.85235e-06
-1.98153e-07
2.73447e-06
-2.05701e-07
2.61635e-06
-2.13245e-07
2.49884e-06
-2.20788e-07
2.38251e-06
-2.28329e-07
2.26769e-06
-2.35871e-07
2.15453e-06
-2.43414e-07
2.04303e-06
-2.50964e-07
1.9331e-06
-2.58528e-07
1.82454e-06
-2.6612e-07
1.71717e-06
-2.73753e-07
1.61075e-06
-2.81448e-07
1.50508e-06
-2.89225e-07
1.39996e-06
-2.97107e-07
1.29522e-06
-3.0512e-07
1.19072e-06
-3.13288e-07
1.08636e-06
-3.21638e-07
9.82034e-07
-3.30194e-07
8.77689e-07
-3.38982e-07
7.73277e-07
-3.48025e-07
6.68765e-07
-3.57345e-07
5.6413e-07
4.59359e-07
8.15833e-09
3.31318e-07
2.45479e-08
9.18675e-07
4.24654e-08
1.42852e-06
5.72187e-08
1.85964e-06
6.63123e-08
2.21586e-06
6.91578e-08
2.50619e-06
6.64828e-08
2.74252e-06
5.96744e-08
2.93698e-06
5.02412e-08
3.09972e-06
3.94778e-08
3.23789e-06
2.8325e-08
3.35563e-06
1.73713e-08
3.45465e-06
6.92483e-09
3.53511e-06
-2.89344e-09
3.59642e-06
-1.20636e-08
3.63785e-06
-2.06526e-08
3.65898e-06
-2.87422e-08
3.6598e-06
-3.64255e-08
3.64087e-06
-4.37969e-08
3.60327e-06
-5.09463e-08
3.54853e-06
-5.79543e-08
3.47852e-06
-6.48894e-08
3.39538e-06
-7.18057e-08
3.30136e-06
-7.87419e-08
3.1987e-06
-8.5722e-08
3.08956e-06
-9.27572e-08
2.97591e-06
-9.98466e-08
2.85944e-06
-1.06981e-07
2.7416e-06
-1.14148e-07
2.62352e-06
-1.21331e-07
2.50602e-06
-1.28517e-07
2.38969e-06
-1.35695e-07
2.27486e-06
-1.42857e-07
2.16169e-06
-1.50004e-07
2.05018e-06
-1.57141e-07
1.94023e-06
-1.6428e-07
1.83168e-06
-1.71438e-07
1.72433e-06
-1.78636e-07
1.61795e-06
-1.85899e-07
1.51234e-06
-1.93256e-07
1.40731e-06
-2.00737e-07
1.3027e-06
-2.08372e-07
1.19836e-06
-2.16192e-07
1.09418e-06
-2.24228e-07
9.9007e-07
-2.32509e-07
8.8597e-07
-2.41064e-07
7.81831e-07
-2.49918e-07
6.77619e-07
-2.59096e-07
5.73309e-07
4.68885e-07
9.13557e-09
3.22182e-07
2.83022e-08
8.99508e-07
5.05055e-08
1.40632e-06
7.06317e-08
1.83951e-06
8.57187e-08
2.20078e-06
9.47641e-08
2.49714e-06
9.81948e-08
2.73909e-06
9.72249e-08
2.93795e-06
9.32948e-08
3.10365e-06
8.76957e-08
3.24349e-06
8.13917e-08
3.36194e-06
7.4995e-08
3.46105e-06
6.8826e-08
3.54128e-06
6.30009e-08
3.60224e-06
5.75075e-08
3.64334e-06
5.22801e-08
3.6642e-06
4.72213e-08
3.66486e-06
4.22295e-08
3.64586e-06
3.72113e-08
3.60829e-06
3.20876e-08
3.55365e-06
2.67971e-08
3.48381e-06
2.12984e-08
3.40088e-06
1.557e-08
3.30709e-06
9.60893e-09
3.20466e-06
3.42884e-09
3.09574e-06
-2.94211e-09
2.98228e-06
-9.46977e-09
2.86597e-06
-1.61153e-08
2.74825e-06
-2.28382e-08
2.63024e-06
-2.96014e-08
2.51279e-06
-3.63744e-08
2.39646e-06
-4.31346e-08
2.28162e-06
-4.98692e-08
2.16843e-06
-5.65749e-08
2.05689e-06
-6.32576e-08
1.94692e-06
-6.99319e-08
1.83836e-06
-7.66193e-08
1.73101e-06
-8.33474e-08
1.62468e-06
-9.01478e-08
1.51914e-06
-9.70551e-08
1.41422e-06
-1.04106e-07
1.30975e-06
-1.11336e-07
1.20559e-06
-1.18782e-07
1.10162e-06
-1.2648e-07
9.97767e-07
-1.34463e-07
-1.42762e-07
-1.51406e-07
-1.60423e-07
1.00118e-08
3.12171e-07
3.17507e-08
8.7777e-07
5.80183e-08
1.38005e-06
8.33396e-08
1.81419e-06
1.04312e-07
2.17981e-06
1.19516e-07
2.48194e-06
1.29056e-07
2.72955e-06
1.33948e-07
2.93306e-06
1.35543e-07
3.10205e-06
1.35116e-07
3.24392e-06
1.33652e-07
3.3634e-06
1.31791e-07
3.46291e-06
1.29869e-07
3.5432e-06
1.28003e-07
3.60411e-06
1.26177e-07
3.64517e-06
1.24308e-07
3.66607e-06
1.22287e-07
3.66688e-06
1.20006e-07
3.64815e-06
1.17373e-07
3.61092e-06
1.14317e-07
3.55671e-06
1.10797e-07
3.48733e-06
1.06795e-07
3.40488e-06
1.02321e-07
3.31156e-06
9.74063e-08
3.20958e-06
9.21004e-08
3.10105e-06
8.64643e-08
2.98791e-06
8.0567e-08
2.87187e-06
7.44784e-08
2.75434e-06
6.8264e-08
2.63646e-06
6.19815e-08
2.51907e-06
5.56774e-08
2.40277e-06
4.93853e-08
2.28792e-06
4.31251e-08
2.17469e-06
3.69032e-08
2.06311e-06
3.07136e-08
1.95311e-06
2.45395e-08
1.84453e-06
1.8355e-08
1.7372e-06
1.21275e-08
1.6309e-06
5.81914e-09
1.52545e-06
-6.1078e-10
1.42065e-06
-7.20434e-09
1.31634e-06
-1.40041e-08
1.21239e-06
-2.10516e-08
1.10867e-06
1.0051e-06
1.07837e-08
3.01387e-07
3.48755e-08
8.53678e-07
6.49595e-08
1.34996e-06
9.52643e-08
1.78389e-06
1.21981e-07
2.15309e-06
1.43274e-07
2.46064e-06
1.58908e-07
2.71392e-06
1.69675e-07
2.9223e-06
1.76812e-07
3.09492e-06
1.81568e-07
3.23916e-06
1.84942e-07
3.36003e-06
1.87603e-07
3.46025e-06
1.89908e-07
3.5409e-06
1.91987e-07
3.60203e-06
1.93819e-07
3.64334e-06
1.95312e-07
3.66458e-06
1.96346e-07
3.66584e-06
1.96806e-07
3.64769e-06
1.96602e-07
3.61113e-06
1.95673e-07
3.55764e-06
1.93989e-07
3.48901e-06
1.9156e-07
3.40731e-06
1.88421e-07
3.3147e-06
1.84636e-07
3.21336e-06
1.80287e-07
3.1054e-06
1.7547e-07
2.99273e-06
1.70283e-07
2.87706e-06
1.64826e-07
2.7598e-06
1.59188e-07
2.64209e-06
1.53449e-07
2.52481e-06
1.4767e-07
2.40855e-06
1.41897e-07
2.29369e-06
1.36156e-07
2.18043e-06
1.30458e-07
2.06881e-06
1.24798e-07
1.95877e-06
1.19157e-07
1.85017e-06
1.13506e-07
1.74285e-06
1.07808e-07
1.6366e-06
1.02019e-07
1.53124e-06
9.60926e-08
1.42658e-06
8.99812e-08
1.32245e-06
8.36368e-08
1.21873e-06
7.70127e-08
1.11529e-06
1.01205e-06
1.14493e-08
2.89938e-07
3.76621e-08
8.27465e-07
7.129e-08
1.31634e-06
1.06334e-07
1.74884e-06
1.38618e-07
2.1208e-06
1.65901e-07
2.43336e-06
1.87593e-07
2.69223e-06
2.04235e-07
2.90565e-06
2.16931e-07
3.08222e-06
2.2688e-07
3.22921e-06
2.35094e-07
3.35181e-06
2.42269e-07
3.45308e-06
2.48793e-07
3.53437e-06
2.54808e-07
3.59602e-06
2.60298e-07
3.63785e-06
2.65166e-07
3.65971e-06
2.69284e-07
3.66173e-06
2.72532e-07
3.64444e-06
2.74816e-07
3.60884e-06
2.76084e-07
3.55637e-06
2.76321e-07
3.48878e-06
2.75553e-07
3.40808e-06
2.73844e-07
3.31641e-06
2.71285e-07
3.21592e-06
2.67988e-07
3.1087e-06
2.64081e-07
2.99664e-06
2.59691e-07
2.88145e-06
2.54946e-07
2.76454e-06
2.49959e-07
2.64708e-06
2.44828e-07
2.52994e-06
2.39633e-07
2.41374e-06
2.34429e-07
2.29889e-06
2.29253e-07
2.1856e-06
2.24119e-07
2.07394e-06
2.19023e-07
1.96386e-06
2.13947e-07
1.85525e-06
2.08859e-07
1.74794e-06
2.03716e-07
1.64175e-06
1.98472e-07
1.53648e-06
1.93074e-07
1.43198e-06
1.87469e-07
1.32806e-06
1.81604e-07
1.2246e-06
1.75427e-07
1.12147e-06
1.01859e-06
1.20074e-08
2.7793e-07
4.00993e-08
7.99373e-07
7.69766e-08
1.27946e-06
1.16484e-07
1.70934e-06
1.54124e-07
2.08316e-06
1.87264e-07
2.40022e-06
2.14954e-07
2.66454e-06
2.37459e-07
2.88315e-06
2.55722e-07
3.06396e-06
2.7088e-07
3.21406e-06
2.8394e-07
3.33875e-06
2.95629e-07
3.44139e-06
3.06367e-07
3.52364e-06
3.16317e-07
3.58606e-06
3.25476e-07
3.62869e-06
3.33742e-07
3.65145e-06
3.40983e-07
3.65449e-06
3.47074e-07
3.63835e-06
3.5192e-07
3.604e-06
3.5547e-07
3.55282e-06
3.57723e-07
3.48652e-06
3.58722e-07
3.40708e-06
3.5855e-07
3.31658e-06
3.57325e-07
3.21715e-06
3.55187e-07
3.11083e-06
3.52291e-07
2.99954e-06
3.48795e-07
2.88494e-06
3.44849e-07
2.76849e-06
3.40591e-07
2.65134e-06
3.3614e-07
2.53439e-06
3.31589e-07
2.41829e-06
3.27009e-07
2.30347e-06
3.22444e-07
2.19017e-06
3.17913e-07
2.07847e-06
3.13418e-07
1.96836e-06
3.08937e-07
1.85973e-06
3.04439e-07
1.75244e-06
2.99878e-07
1.64631e-06
2.95203e-07
1.54116e-06
2.90357e-07
1.43682e-06
2.85282e-07
1.33313e-06
2.7992e-07
1.22996e-06
2.74214e-07
1.12718e-06
1.02469e-06
1.24582e-08
2.65472e-07
4.21796e-08
7.69652e-07
8.19917e-08
1.23965e-06
1.25655e-07
1.66567e-06
1.68403e-07
2.04042e-06
2.07237e-07
2.36139e-06
2.40835e-07
2.63094e-06
2.69174e-07
2.85481e-06
2.93008e-07
3.04012e-06
3.13386e-07
3.19368e-06
3.31305e-07
3.32083e-06
3.47514e-07
3.42518e-06
3.62468e-07
3.50868e-06
3.76362e-07
3.57217e-06
3.89205e-07
3.61585e-06
4.00901e-07
3.63975e-06
4.11314e-07
3.64407e-06
4.20314e-07
3.62935e-06
4.27805e-07
3.59651e-06
4.33737e-07
3.54688e-06
4.38115e-07
3.48215e-06
4.40997e-07
3.4042e-06
4.42483e-07
3.31509e-06
4.42714e-07
3.21692e-06
4.41854e-07
3.11169e-06
4.40084e-07
3.00131e-06
4.37586e-07
2.88744e-06
4.34536e-07
2.77154e-06
4.31095e-07
2.65478e-06
4.27399e-07
2.53809e-06
4.2356e-07
2.42213e-06
4.19661e-07
2.30737e-06
4.15755e-07
2.19407e-06
4.11871e-07
2.08236e-06
4.08011e-07
1.97222e-06
4.04158e-07
1.86358e-06
4.00278e-07
1.75632e-06
3.96324e-07
1.65026e-06
3.92242e-07
1.54524e-06
3.87972e-07
1.44109e-06
3.8345e-07
1.33766e-06
3.78613e-07
1.2348e-06
3.73402e-07
1.13239e-06
1.03034e-06
1.28027e-08
2.52669e-07
4.38987e-08
7.38556e-07
8.6314e-08
1.19723e-06
1.33797e-07
1.61819e-06
1.8137e-07
1.99284e-06
2.25694e-07
2.31706e-06
2.65085e-07
2.59155e-06
2.99208e-07
2.82069e-06
3.28604e-07
3.01073e-06
3.54214e-07
3.16807e-06
3.77006e-07
3.29804e-06
3.97747e-07
3.40444e-06
4.1693e-07
3.4895e-06
4.3478e-07
3.55432e-06
4.51331e-07
3.5993e-06
4.66495e-07
3.62458e-06
4.80137e-07
3.63043e-06
4.92123e-07
3.61736e-06
5.02352e-07
3.58628e-06
5.10775e-07
3.53846e-06
5.174e-07
3.47552e-06
5.22295e-07
3.3993e-06
5.25574e-07
3.31181e-06
5.27396e-07
3.2151e-06
5.27946e-07
3.11114e-06
5.27427e-07
3.00182e-06
5.26045e-07
2.88882e-06
5.23998e-07
2.77358e-06
5.21469e-07
2.65731e-06
5.18614e-07
2.54094e-06
5.1556e-07
2.42519e-06
5.12405e-07
2.31053e-06
5.09213e-07
2.19727e-06
5.06021e-07
2.08555e-06
5.02835e-07
1.9754e-06
4.99643e-07
1.86677e-06
4.9641e-07
1.75955e-06
4.9309e-07
1.65358e-06
4.89626e-07
1.5487e-06
4.85954e-07
1.44476e-06
4.82008e-07
1.3416e-06
4.7772e-07
1.23908e-06
4.73025e-07
1.13708e-06
1.0355e-06
1.30431e-08
2.39626e-07
4.52557e-08
7.06343e-07
8.99285e-08
1.15256e-06
1.40868e-07
1.56725e-06
1.92946e-07
1.94077e-06
2.42521e-07
2.26749e-06
2.87554e-07
2.54652e-06
3.27385e-07
2.78085e-06
3.62322e-07
2.97579e-06
3.93172e-07
3.13722e-06
4.20853e-07
3.27036e-06
4.46144e-07
3.37914e-06
4.69571e-07
3.46607e-06
4.914e-07
3.53249e-06
5.11688e-07
3.57901e-06
5.30366e-07
3.60591e-06
5.473e-07
3.6135e-06
5.62355e-07
3.60231e-06
5.75425e-07
3.57321e-06
5.86458e-07
3.52743e-06
5.95464e-07
3.46651e-06
6.02514e-07
3.39225e-06
6.07733e-07
3.30659e-06
6.11294e-07
3.21153e-06
6.134e-07
3.10904e-06
6.14271e-07
3.00095e-06
6.14136e-07
2.88896e-06
6.13212e-07
2.77451e-06
6.11703e-07
2.65882e-06
6.09783e-07
2.54286e-06
6.07598e-07
2.42737e-06
6.05258e-07
2.31287e-06
6.02841e-07
2.19968e-06
6.00391e-07
2.088e-06
5.97923e-07
1.97787e-06
5.95428e-07
1.86927e-06
5.92875e-07
1.7621e-06
5.90217e-07
1.65624e-06
5.87396e-07
1.55153e-06
5.84347e-07
1.44781e-06
5.80999e-07
1.34495e-06
5.77282e-07
1.2428e-06
5.73126e-07
1.14124e-06
1.04016e-06
1.31823e-08
2.26444e-07
4.62534e-08
6.73272e-07
9.28266e-08
1.10599e-06
1.46835e-07
1.51324e-06
2.03062e-07
1.88454e-06
2.57608e-07
2.21294e-06
3.08094e-07
2.49603e-06
3.53532e-07
2.73542e-06
3.93971e-07
2.93535e-06
4.30059e-07
3.10113e-06
4.62646e-07
3.23777e-06
4.92509e-07
3.34928e-06
5.20203e-07
3.43838e-06
5.46036e-07
3.50666e-06
5.70098e-07
3.55494e-06
5.92339e-07
3.58367e-06
6.12635e-07
3.5932e-06
6.30848e-07
3.58409e-06
6.46869e-07
3.55719e-06
6.60641e-07
3.51366e-06
6.72171e-07
3.45498e-06
6.81531e-07
3.38289e-06
6.88852e-07
3.29927e-06
6.94314e-07
3.20607e-06
6.98135e-07
3.10522e-06
7.00551e-07
2.99854e-06
7.01807e-07
2.8877e-06
7.0214e-07
2.77417e-06
7.01772e-07
2.65919e-06
7.00895e-07
2.54374e-06
6.99672e-07
2.42859e-06
6.98229e-07
2.31431e-06
6.96656e-07
2.20126e-06
6.95008e-07
2.08965e-06
6.93308e-07
1.97957e-06
6.91553e-07
1.87102e-06
6.89715e-07
1.76394e-06
6.8775e-07
1.6582e-06
6.856e-07
1.55368e-06
6.83198e-07
1.45022e-06
6.80473e-07
1.34768e-06
6.7735e-07
1.24592e-06
6.73757e-07
1.14483e-06
1.0443e-06
1.32241e-08
2.1322e-07
4.68976e-08
6.39598e-07
9.50063e-08
1.05788e-06
1.51675e-07
1.45657e-06
2.11659e-07
1.82456e-06
2.70856e-07
2.15374e-06
3.26568e-07
2.44032e-06
3.77477e-07
2.68451e-06
4.23355e-07
2.88947e-06
4.64668e-07
3.05982e-06
5.02175e-07
3.20027e-06
5.36632e-07
3.31482e-06
5.68622e-07
3.40639e-06
5.9849e-07
3.47679e-06
6.26367e-07
3.52707e-06
6.52226e-07
3.55781e-06
6.75957e-07
3.56947e-06
6.97424e-07
3.56263e-06
7.16513e-07
3.5381e-06
7.33161e-07
3.49701e-06
7.47368e-07
3.44078e-06
7.59203e-07
3.37106e-06
7.68798e-07
3.28968e-06
7.76339e-07
3.19853e-06
7.82049e-07
3.09951e-06
7.86179e-07
2.99441e-06
7.88987e-07
2.88489e-06
7.90727e-07
2.77243e-06
7.91636e-07
2.65828e-06
7.91925e-07
2.54345e-06
7.91773e-07
2.42875e-06
7.91321e-07
2.31476e-06
7.90672e-07
2.2019e-06
7.89895e-07
2.09042e-06
7.89021e-07
1.98044e-06
7.88054e-07
1.87199e-06
7.86974e-07
1.76502e-06
7.85738e-07
1.65944e-06
7.84291e-07
1.55512e-06
7.82565e-07
1.45194e-06
7.80487e-07
1.34975e-06
7.77983e-07
1.24843e-06
7.74976e-07
1.14784e-06
1.04788e-06
1.31733e-08
2.00046e-07
4.71975e-08
6.05574e-07
9.64724e-08
1.0086e-06
1.55372e-07
1.39767e-06
2.18693e-07
1.76123e-06
2.82176e-07
2.09026e-06
3.42842e-07
2.37965e-06
3.99047e-07
2.6283e-06
4.50276e-07
2.83824e-06
4.96784e-07
3.01331e-06
5.39216e-07
3.15784e-06
5.78292e-07
3.27575e-06
6.14608e-07
3.37007e-06
6.48549e-07
3.44285e-06
6.80286e-07
3.49533e-06
7.09822e-07
3.52827e-06
7.37066e-07
3.54223e-06
7.61886e-07
3.53781e-06
7.84164e-07
3.51582e-06
8.0383e-07
3.47734e-06
8.20875e-07
3.42373e-06
8.35361e-07
3.35657e-06
8.47416e-07
3.27762e-06
8.57225e-07
3.18872e-06
8.65016e-07
3.09171e-06
8.71046e-07
2.98838e-06
8.75583e-07
2.88036e-06
8.78896e-07
2.76912e-06
8.81237e-07
2.65594e-06
8.82831e-07
2.54185e-06
8.83874e-07
2.4277e-06
8.84522e-07
2.31411e-06
8.84893e-07
2.20153e-06
8.85067e-07
2.09025e-06
8.85089e-07
1.98042e-06
8.8497e-07
1.87211e-06
8.84697e-07
1.76529e-06
8.84232e-07
1.6599e-06
8.83524e-07
1.55583e-06
8.82506e-07
1.45296e-06
8.81106e-07
1.35115e-06
8.79248e-07
1.25029e-06
8.76852e-07
1.15024e-06
1.05089e-06
1.30351e-08
1.87011e-07
4.7165e-08
5.71444e-07
9.72363e-08
9.5853e-07
1.57924e-07
1.33699e-06
2.24128e-07
1.69503e-06
2.91493e-07
2.0229e-06
3.56795e-07
2.31435e-06
4.1808e-07
2.56702e-06
4.74535e-07
2.78179e-06
5.26186e-07
2.96166e-06
5.73538e-07
3.11048e-06
6.17253e-07
3.23203e-06
6.57928e-07
3.3294e-06
6.95983e-07
3.4048e-06
7.31628e-07
3.45969e-06
7.64904e-07
3.49499e-06
7.95741e-07
3.51139e-06
8.24015e-07
3.50953e-06
8.49608e-07
3.49023e-06
8.7244e-07
3.45451e-06
8.92492e-07
3.40368e-06
9.09814e-07
3.33925e-06
9.24525e-07
3.26291e-06
9.36805e-07
3.17644e-06
9.46882e-07
3.08164e-06
9.55014e-07
2.98025e-06
9.61478e-07
2.87389e-06
9.6655e-07
2.76405e-06
9.70495e-07
2.65199e-06
9.73553e-07
2.5388e-06
9.75933e-07
2.42532e-06
9.77808e-07
2.31224e-06
9.79309e-07
2.20003e-06
9.80532e-07
2.08903e-06
9.81532e-07
1.97942e-06
9.82331e-07
1.87131e-06
9.82925e-07
1.7647e-06
9.83284e-07
1.65954e-06
9.83358e-07
1.55576e-06
9.83087e-07
1.45323e-06
9.82398e-07
1.35184e-06
9.81216e-07
1.25147e-06
9.7946e-07
1.15199e-06
1.0533e-06
1.28155e-08
1.74196e-07
4.68153e-08
5.37445e-07
9.73156e-08
9.0803e-07
1.59337e-07
1.27496e-06
2.27945e-07
1.62642e-06
2.98746e-07
1.9521e-06
3.68318e-07
2.24478e-06
4.34418e-07
2.50092e-06
4.95936e-07
2.72027e-06
5.52649e-07
2.90494e-06
6.04897e-07
3.05824e-06
6.53264e-07
3.18367e-06
6.98331e-07
3.28433e-06
7.40541e-07
3.36259e-06
7.80147e-07
3.42008e-06
8.17228e-07
3.45791e-06
8.5174e-07
3.47688e-06
8.83573e-07
3.4777e-06
9.12609e-07
3.46119e-06
9.38759e-07
3.42836e-06
9.61991e-07
3.38045e-06
9.82341e-07
3.3189e-06
9.99915e-07
3.24534e-06
1.01488e-06
3.16147e-06
1.02747e-06
3.06906e-06
1.03792e-06
2.96979e-06
1.04653e-06
2.86529e-06
1.05356e-06
2.75701e-06
1.0593e-06
2.64625e-06
1.06401e-06
2.5341e-06
1.06789e-06
2.42144e-06
1.07113e-06
2.30899e-06
1.0739e-06
2.19727e-06
1.07628e-06
2.08664e-06
1.07836e-06
1.97735e-06
1.08016e-06
1.86951e-06
1.0817e-06
1.76317e-06
1.08294e-06
1.6583e-06
1.08385e-06
1.55485e-06
1.08437e-06
1.45271e-06
1.08444e-06
1.35178e-06
1.08396e-06
1.25194e-06
1.08288e-06
1.15307e-06
1.05507e-06
1.2521e-08
1.61675e-07
4.61655e-08
5.038e-07
9.6734e-08
8.57461e-07
1.5963e-07
1.21207e-06
2.30138e-07
1.55592e-06
3.03889e-07
1.87835e-06
3.77316e-07
2.17135e-06
4.47916e-07
2.43032e-06
5.14285e-07
2.6539e-06
5.75944e-07
2.84329e-06
6.33043e-07
3.00114e-06
6.86062e-07
3.13065e-06
7.35547e-07
3.23484e-06
7.81956e-07
3.31618e-06
8.25578e-07
3.37646e-06
8.66532e-07
3.41696e-06
9.04803e-07
3.43861e-06
9.403e-07
3.4422e-06
9.72907e-07
3.42858e-06
1.00253e-06
3.39874e-06
1.02912e-06
3.35386e-06
1.0527e-06
3.29532e-06
1.07335e-06
3.22468e-06
1.09123e-06
3.14359e-06
1.10656e-06
3.05373e-06
1.11957e-06
2.95678e-06
1.13055e-06
2.85431e-06
1.13978e-06
2.74778e-06
1.14753e-06
2.63849e-06
1.15408e-06
2.52755e-06
1.15965e-06
2.41587e-06
1.16444e-06
2.3042e-06
1.16861e-06
2.19309e-06
1.17229e-06
2.08296e-06
1.17557e-06
1.97407e-06
1.17848e-06
1.8666e-06
1.18104e-06
1.7606e-06
1.18324e-06
1.6561e-06
1.18506e-06
1.55303e-06
1.18643e-06
1.45134e-06
1.18729e-06
1.35092e-06
1.18757e-06
1.25166e-06
1.1872e-06
1.15345e-06
1.05618e-06
1.21583e-08
1.49516e-07
4.5235e-08
4.70723e-07
9.55207e-08
8.07176e-07
1.5883e-07
1.14876e-06
2.30716e-07
1.48403e-06
3.06896e-07
1.80216e-06
3.83711e-07
2.09453e-06
4.58439e-07
2.35559e-06
5.29399e-07
2.58294e-06
5.95844e-07
2.77684e-06
6.57718e-07
2.93926e-06
7.15369e-07
3.073e-06
7.69292e-07
3.18092e-06
8.1994e-07
3.26553e-06
8.67633e-07
3.32877e-06
9.12528e-07
3.37206e-06
9.54645e-07
3.39649e-06
9.93912e-07
3.40293e-06
1.03022e-06
3.39227e-06
1.06347e-06
3.36549e-06
1.0936e-06
3.32373e-06
1.12061e-06
3.26832e-06
1.14456e-06
3.20073e-06
1.1656e-06
3.12255e-06
1.18391e-06
3.03542e-06
1.19974e-06
2.94095e-06
1.21334e-06
2.84071e-06
1.22501e-06
2.73612e-06
1.23501e-06
2.62849e-06
1.24363e-06
2.51894e-06
1.25109e-06
2.40841e-06
1.25762e-06
2.29767e-06
1.26338e-06
2.18733e-06
1.26852e-06
2.07782e-06
1.27313e-06
1.96947e-06
1.27726e-06
1.86246e-06
1.28096e-06
1.7569e-06
1.28422e-06
1.65284e-06
1.28702e-06
1.55024e-06
1.28931e-06
1.44905e-06
1.29103e-06
1.3492e-06
1.29212e-06
1.25057e-06
1.2925e-06
1.15307e-06
1.05659e-06
1.17345e-08
1.37782e-07
4.4045e-08
4.38413e-07
9.37094e-08
7.57511e-07
1.56973e-07
1.08549e-06
2.29701e-07
1.4113e-06
3.07756e-07
1.72411e-06
3.87446e-07
2.01484e-06
4.65874e-07
2.27716e-06
5.41104e-07
2.50771e-06
6.12125e-07
2.70582e-06
6.78659e-07
2.87273e-06
7.409e-07
3.01076e-06
7.99264e-07
3.12256e-06
8.54187e-07
3.21061e-06
9.06005e-07
3.27695e-06
9.54911e-07
3.32316e-06
1.00096e-06
3.35044e-06
1.0441e-06
3.35979e-06
1.08424e-06
3.35213e-06
1.12127e-06
3.32846e-06
1.15512e-06
3.28988e-06
1.18577e-06
3.23767e-06
1.21326e-06
3.17324e-06
1.2377e-06
3.09811e-06
1.25926e-06
3.01386e-06
1.27816e-06
2.92205e-06
1.29466e-06
2.82421e-06
1.30903e-06
2.72175e-06
1.32154e-06
2.61597e-06
1.33248e-06
2.50801e-06
1.34207e-06
2.39881e-06
1.35055e-06
2.28919e-06
1.3581e-06
2.17978e-06
1.36488e-06
2.07105e-06
1.37098e-06
1.96336e-06
1.3765e-06
1.85694e-06
1.38146e-06
1.75194e-06
1.38589e-06
1.64841e-06
1.38976e-06
1.54636e-06
1.39305e-06
1.44576e-06
1.39571e-06
1.34654e-06
1.39766e-06
1.24861e-06
1.39885e-06
1.15188e-06
1.05624e-06
1.12566e-08
1.26525e-07
4.26174e-08
4.07052e-07
9.13377e-08
7.08791e-07
1.54105e-07
1.02273e-06
2.2713e-07
1.33828e-06
3.06477e-07
1.64476e-06
3.88481e-07
1.93284e-06
4.70122e-07
2.19552e-06
5.49241e-07
2.42859e-06
6.24572e-07
2.63049e-06
6.95603e-07
2.8017e-06
7.62358e-07
2.944e-06
8.25148e-07
3.05977e-06
8.84369e-07
3.15139e-06
9.40363e-07
3.22095e-06
9.9335e-07
3.27017e-06
1.04342e-06
3.30037e-06
1.09054e-06
3.31267e-06
1.13464e-06
3.30803e-06
1.17561e-06
3.28749e-06
1.21336e-06
3.25213e-06
1.24786e-06
3.20318e-06
1.27911e-06
3.14199e-06
1.3072e-06
3.07002e-06
1.33228e-06
2.98878e-06
1.35454e-06
2.89979e-06
1.37422e-06
1.39158e-06
1.40688e-06
1.4204e-06
1.43239e-06
1.44307e-06
1.45264e-06
1.46126e-06
1.46905e-06
1.47611e-06
1.48249e-06
1.48822e-06
1.49329e-06
1.49768e-06
1.50136e-06
1.50427e-06
1.50633e-06
1.07316e-08
4.09747e-08
8.84452e-08
1.50275e-07
2.23051e-07
3.03084e-07
3.86799e-07
4.71107e-07
5.53669e-07
6.32979e-07
7.08294e-07
7.79444e-07
8.46616e-07
9.10143e-07
9.70356e-07
1.02749e-06
1.08166e-06
1.13288e-06
1.18107e-06
1.22613e-06
1.26797e-06
1.30651e-06
1.34176e-06
1.37376e-06
1.40263e-06
)
;

boundaryField
{
    movingWall
    {
        type            calculated;