/*--------------------------------*- C++ -*----------------------------------*\
  =========                 |
  \\      /  F ield         | OpenFOAM: The Open Source CFD Toolbox
   \\    /   O peration     | Website:  https://openfoam.org
    \\  /    A nd           | Version:  9
     \\/     M anipulation  |
\*---------------------------------------------------------------------------*/
FoamFile
{
    format      ascii;
    class       volVectorField;
    location    "3";
    object      U;
}
// * * * * * * * * * * * * * * * * * * * * * * * * * * * * * * * * * * * * * //

dimensions      [0 1 -1 0 0 0 0];

internalField   nonuniform List<vector> 
1250
(
(-0.000110545 0.0353044 0)
(-0.00110026 0.0925793 0)
(-5.98544e-05 0.0357838 0)
(-0.000811741 0.0941919 0)
(-0.00279965 0.140737 0)
(-0.00591392 0.177239 0)
(-0.00998951 0.205864 0)
(-0.0148115 0.228781 0)
(-0.0201417 0.247842 0)
(-0.025765 0.264399 0)
(-0.0315093 0.279279 0)
(-0.0372461 0.292865 0)
(-0.0428815 0.305228 0)
(-0.0483458 0.316261 0)
(-0.0535844 0.325781 0)
(-0.0585526 0.333599 0)
(-0.0632132 0.339559 0)
(-0.0675367 0.343552 0)
(-0.0715014 0.34553 0)
(-0.0750946 0.3455 0)
(-0.0783133 0.343528 0)
(-0.081164 0.339726 0)
(-0.0836628 0.334251 0)
(-0.0858341 0.327291 0)
(-0.0877091 0.319054 0)
(-0.0893243 0.309761 0)
(-0.0907187 0.29963 0)
(-0.0919325 0.288868 0)
(-0.0930046 0.277664 0)
(-0.0939714 0.266184 0)
(-0.0948652 0.254563 0)
(-0.0957137 0.24291 0)
(-0.0965394 0.231303 0)
(-0.0973598 0.219798 0)
(-0.0981874 0.208427 0)
(-0.0990306 0.197202 0)
(-9.77615e-06 0.0361096 0)
(-0.000522223 0.0954454 0)
(-0.00206831 0.143044 0)
(-0.00465467 0.18056 0)
(-0.00817556 0.210038 0)
(-0.0124438 0.233586 0)
(-0.0172334 0.253055 0)
(-0.0223307 0.269825 0)
(-0.0275604 0.284765 0)
(-0.0327906 0.298299 0)
(-0.0379261 0.310528 0)
(-0.0428983 0.321365 0)
(-0.0476559 0.330643 0)
(-0.0521586 0.338181 0)
(-0.0563746 0.34383 0)
(-0.0602791 0.347489 0)
(-0.0638552 0.349118 0)
(-0.0670941 0.348734 0)
(-0.0699957 0.34641 0)
(-0.0725686 0.342269 0)
(-0.0748296 0.336475 0)
(-0.0768028 0.329223 0)
(-0.0785179 0.320727 0)
(-0.0800085 0.311211 0)
(-0.0813106 0.300895 0)
(-0.08246 0.289985 0)
(-0.0834914 0.278669 0)
(-0.0844366 0.267108 0)
(-0.0853233 0.255435 0)
(-0.0861753 0.243752 0)
(-0.0870112 0.232134 0)
(-0.0878455 0.220631 0)
(-0.0886882 0.209271 0)
(-0.0895457 0.198064 0)
(-0.0904215 0.187007 0)
(-0.0913164 0.176088 0)
(-0.0922298 0.165289 0)
(-0.0931596 0.154589 0)
(-0.0941032 0.143966 0)
(-0.0950579 0.133399 0)
(-0.0960209 0.12287 0)
(-0.0969896 0.112363 0)
(-0.0979621 0.101864 0)
(3.89469e-05 0.0362833 0)
(-0.000234777 0.0963359 0)
(-0.00133413 0.144863 0)
(-0.00338071 0.183334 0)
(-0.00633039 0.213647 0)
(-0.0100267 0.237835 0)
(-0.0142586 0.257726 0)
(-0.0188159 0.274724 0)
(-0.023521 0.289736 0)
(-0.0282386 0.303227 0)
(-0.032872 0.31533 0)
(-0.0373532 0.325984 0)
(-0.041634 0.335035 0)
(-0.0456784 0.342312 0)
(-0.0494592 0.347675 0)
(-0.0529566 0.351029 0)
(-0.0561577 0.352343 0)
(-0.0590572 0.35164 0)
(-0.0616576 0.349004 0)
(-0.0639689 0.344563 0)
(-0.0660079 0.338489 0)
(-0.0677978 0.330984 0)
(-0.0693662 0.322265 0)
(-0.0707438 0.312559 0)
(-0.0719627 0.302086 0)
(-0.0730545 0.291053 0)
(-0.0740493 0.279645 0)
(-0.0749744 0.268019 0)
(-0.0758535 0.256304 0)
(-0.076706 0.244599 0)
(-0.0775476 0.232974 0)
(-0.0783898 0.221476 0)
(-0.0792404 0.210127 0)
(-0.0801044 0.198935 0)
(-0.0809841 0.187896 0)
(-0.0818799 0.176994 0)
(-0.082791 0.166211 0)
(-0.0837155 0.155524 0)
(-0.0846514 0.144912 0)
(-0.0855965 0.134354 0)
(-0.0865485 0.123832 0)
(-0.0875058 0.113329 0)
(-0.0884669 0.102834 0)
(-0.089431 0.0923351 0)
(-0.0903976 0.0818257 0)
(-0.0913666 0.0713 0)
(-0.0923382 0.0607545 0)
(-0.093313 0.0501866 0)
(-0.0942917 0.039595 0)
(8.44421e-05 0.0363056 0)
(4.66875e-05 0.0968628 0)
(-0.000603203 0.146188 0)
(-0.00210234 0.185547 0)
(-0.00446784 0.216677 0)
(-0.00757689 0.241511 0)
(-0.0112363 0.261841 0)
(-0.0152414 0.279085 0)
(-0.0194133 0.294185 0)
(-0.0236136 0.307646 0)
(-0.0277435 0.319637 0)
(-0.0317358 0.330121 0)
(-0.0355446 0.338962 0)
(-0.0391378 0.346001 0)
(-0.0424927 0.351103 0)
(-0.0455938 0.354184 0)
(-0.0484322 0.355217 0)
(-0.0510057 0.354234 0)
(-0.0533185 0.351323 0)
(-0.0553816 0.346622 0)
(-0.0572116 0.340308 0)
(-0.05883 0.332586 0)
(-0.060262 0.323679 0)
(-0.061535 0.313813 0)
(-0.0626769 0.30321 0)
(-0.0637152 0.292076 0)
(-0.0646753 0.280593 0)
(-0.0655801 0.268915 0)
(-0.0664492 0.257168 0)
(-0.0672985 0.245447 0)
(-0.0681404 0.233819 0)
(-0.0689839 0.222324 0)
(-0.0698352 0.210986 0)
(-0.0706979 0.199808 0)
(-0.0715735 0.188782 0)
(-0.0724622 0.177895 0)
(-0.0733633 0.167124 0)
(-0.0742751 0.156449 0)
(-0.0751963 0.145846 0)
(-0.0761252 0.135296 0)
(-0.0770603 0.124779 0)
(-0.0780007 0.114281 0)
(-0.0789457 0.10379 0)
(-0.079895 0.0932945 0)
(-0.0808488 0.0827885 0)
(-0.0818073 0.0722667 0)
(-0.0827714 0.0617255 0)
(-0.083742 0.0511628 0)
(-0.0847199 0.0405773 0)
(0.000128627 0.0361803 0)
(0.000322182 0.0970298 0)
(0.00011809 0.147016 0)
(-0.00083027 0.187193 0)
(-0.00260157 0.219115 0)
(-0.00511051 0.244599 0)
(-0.00818469 0.265388 0)
(-0.011627 0.282899 0)
(-0.0152583 0.298106 0)
(-0.0189375 0.311553 0)
(-0.0225639 0.323448 0)
(-0.0260698 0.33378 0)
(-0.0294116 0.342431 0)
(-0.0325607 0.349255 0)
(-0.0354983 0.354126 0)
(-0.038213 0.356966 0)
(-0.0406995 0.357753 0)
(-0.0429581 0.356527 0)
(-0.0449947 0.353381 0)
(-0.0468206 0.348459 0)
(-0.0484517 0.341942 0)
(-0.0499077 0.334039 0)
(-0.0512108 0.324975 0)
(-0.0523849 0.314979 0)
(-0.0534537 0.304271 0)
(-0.0544403 0.293056 0)
(-0.0553656 0.281513 0)
(-0.0562484 0.269795 0)
(-0.0571041 0.258024 0)
(-0.0579453 0.246291 0)
(-0.0587817 0.234661 0)
(-0.05962 0.223171 0)
(-0.0604649 0.211841 0)
(-0.0613188 0.200673 0)
(-0.0621829 0.18966 0)
(-0.0630572 0.178783 0)
(-0.0639411 0.168023 0)
(-0.0648336 0.157356 0)
(-0.0657338 0.146762 0)
(-0.0666407 0.136218 0)
(-0.0675537 0.125707 0)
(-0.0684725 0.115215 0)
(-0.0693971 0.104728 0)
(-0.0703278 0.0942382 0)
(-0.0712653 0.0837381 0)
(-0.0722106 0.0732229 0)
(-0.0731645 0.0626893 0)
(-0.0741285 0.0521353 0)
(-0.0751037 0.0415598 0)
(0.000170302 0.0359136 0)
(0.000588753 0.0968423 0)
(0.000824874 0.147347 0)
(0.000426306 0.188264 0)
(-0.000745093 0.220952 0)
(-0.00264337 0.24709 0)
(-0.00512152 0.268356 0)
(-0.00799182 0.286157 0)
(-0.0110763 0.301493 0)
(-0.0142316 0.314947 0)
(-0.0173546 0.326764 0)
(-0.0203772 0.336963 0)
(-0.023257 0.345447 0)
(-0.0259685 0.352082 0)
(-0.0284967 0.356751 0)
(-0.0308338 0.359383 0)
(-0.0329776 0.359961 0)
(-0.0349307 0.358529 0)
(-0.0367002 0.355188 0)
(-0.0382975 0.350082 0)
(-0.0397373 0.343399 0)
(-0.0410372 0.33535 0)
(-0.0422163 0.326161 0)
(-0.0432948 0.316061 0)
(-0.0442922 0.30527 0)
(-0.045227 0.293992 0)
(-0.0461161 0.282404 0)
(-0.0469737 0.270656 0)
(-0.0478117 0.258867 0)
(-0.0486397 0.247126 0)
(-0.0494645 0.235494 0)
(-0.0502911 0.224008 0)
(-0.0511227 0.212685 0)
(-0.0519609 0.201525 0)
(-0.0528065 0.19052 0)
(-0.0536597 0.179652 0)
(-0.05452 0.1689 0)
(-0.0553872 0.158241 0)
(-0.0562607 0.147653 0)
(-0.0571406 0.137115 0)
(-0.0580268 0.126611 0)
(-0.0589198 0.116125 0)
(-0.0598202 0.105645 0)
(-0.060729 0.0951628 0)
(-0.0616473 0.0846714 0)
(-0.0625765 0.0741661 0)
(-0.063518 0.0636437 0)
(-0.0644733 0.0531022 0)
(-0.065444 0.0425406 0)
(0.000209101 0.0355113 0)
(0.000843367 0.0963092 0)
(0.00151038 0.147186 0)
(0.00165921 0.18876 0)
(0.00109016 0.22218 0)
(-0.000191211 0.248973 0)
(-0.00206422 0.270735 0)
(-0.00435445 0.288852 0)
(-0.00688673 0.304343 0)
(-0.00951577 0.317828 0)
(-0.012136 0.329588 0)
(-0.0146783 0.339677 0)
(-0.0171011 0.348017 0)
(-0.0193812 0.354489 0)
(-0.021507 0.358987 0)
(-0.023474 0.361444 0)
(-0.0252827 0.361849 0)
(-0.0269377 0.36025 0)
(-0.0284471 0.35675 0)
(-0.0298219 0.351499 0)
(-0.0310755 0.344686 0)
(-0.0322233 0.336523 0)
(-0.0332811 0.327238 0)
(-0.0342651 0.31706 0)
(-0.0351908 0.306208 0)
(-0.0360724 0.294883 0)
(-0.0369221 0.283263 0)
(-0.0377506 0.271494 0)
(-0.0385662 0.259692 0)
(-0.0393752 0.247945 0)
(-0.0401824 0.236313 0)
(-0.0409909 0.224829 0)
(-0.0418026 0.21351 0)
(-0.0426187 0.202357 0)
(-0.0434396 0.191358 0)
(-0.0442655 0.180496 0)
(-0.0450966 0.16975 0)
(-0.0459329 0.159097 0)
(-0.046775 0.148515 0)
(-0.0476232 0.137984 0)
(-0.0484785 0.127486 0)
(-0.0493419 0.117008 0)
(-0.0502147 0.106537 0)
(-0.0510984 0.0960654 0)
(-0.0519948 0.0855858 0)
(-0.0529054 0.0750938 0)
(-0.0538322 0.0645864 0)
(-0.0547769 0.0540616 0)
(-0.0557412 0.0435183 0)
(0.000244777 0.0349803 0)
(0.00108438 0.0954414 0)
(0.00216964 0.146543 0)
(0.0028587 0.188683 0)
(0.00289171 0.222795 0)
(0.00223177 0.25024 0)
(0.000970542 0.272517 0)
(-0.000732921 0.290978 0)
(-0.00270816 0.306653 0)
(-0.00480906 0.320194 0)
(-0.00692738 0.331922 0)
(-0.00899238 0.341923 0)
(-0.0109627 0.350145 0)
(-0.0128171 0.356483 0)
(-0.0145465 0.36084 0)
(-0.0161495 0.363156 0)
(-0.0176291 0.363423 0)
(-0.0189916 0.361694 0)
(-0.0202457 0.358074 0)
(-0.021402 0.352714 0)
(-0.0224724 0.345805 0)
(-0.0234698 0.33756 0)
(-0.0244067 0.328208 0)
(-0.0252956 0.317975 0)
(-0.0261477 0.307082 0)
(-0.0269729 0.295727 0)
(-0.0277795 0.284086 0)
(-0.0285741 0.272303 0)
(-0.0293618 0.260494 0)
(-0.0301462 0.248743 0)
(-0.0309297 0.23711 0)
(-0.0317139 0.225628 0)
(-0.0324996 0.214312 0)
(-0.0332875 0.203162 0)
(-0.0340779 0.192167 0)
(-0.0348712 0.181309 0)
(-0.0356678 0.170567 0)
(-0.0364687 0.159919 0)
(-0.0372747 0.149343 0)
(-0.0380873 0.138819 0)
(-0.0389078 0.128329 0)
(-0.0397382 0.117861 0)
(-0.0405803 0.107402 0)
(-0.0414362 0.096943 0)
(-0.0423079 0.0864786 0)
(-0.0431976 0.0760037 0)
(-0.0441075 0.0655154 0)
(-0.0450396 0.0550115 0)
(-0.0459958 0.0444909 0)
(0.000277086 0.0343284 0)
(0.00131025 0.0942523 0)
(0.00279816 0.145428 0)
(0.00401641 0.188039 0)
(0.00464753 0.222798 0)
(0.00461096 0.250889 0)
(0.00396664 0.273697 0)
(0.00285546 0.29253 0)
(0.00144122 0.308418 0)
(-0.000129822 0.322044 0)
(-0.00174701 0.333768 0)
(-0.00333756 0.343707 0)
(-0.00485963 0.351836 0)
(-0.00629305 0.358068 0)
(-0.00763128 0.362316 0)
(-0.00887528 0.364524 0)
(-0.0100302 0.36469 0)
(-0.0111039 0.362867 0)
(-0.0121055 0.359162 0)
(-0.0130452 0.353729 0)
(-0.0139333 0.346758 0)
(-0.0147799 0.338462 0)
(-0.0155946 0.329069 0)
(-0.0163858 0.318806 0)
(-0.0171609 0.30789 0)
(-0.0179255 0.296519 0)
(-0.018684 0.284867 0)
(-0.0194394 0.273078 0)
(-0.0201934 0.261266 0)
(-0.0209472 0.249514 0)
(-0.0217011 0.237881 0)
(-0.0224551 0.226399 0)
(-0.0232092 0.215084 0)
(-0.0239634 0.203935 0)
(-0.0247181 0.192941 0)
(-0.0254737 0.182086 0)
(-0.0262314 0.171347 0)
(-0.0269924 0.160703 0)
(-0.0277585 0.150133 0)
(-0.0285317 0.139617 0)
(-0.0293141 0.129137 0)
(-0.0301083 0.11868 0)
(-0.0309168 0.108235 0)
(-0.031742 0.0977931 0)
(-0.0325867 0.0873475 0)
(-0.0334532 0.0768937 0)
(-0.0343441 0.0664286 0)
(-0.0352616 0.0559502 0)
(-0.036208 0.045457 0)
(0.000305844 0.0335644 0)
(0.00151956 0.0927577 0)
(0.0033918 0.143856 0)
(0.00512472 0.186837 0)
(0.00634646 0.222191 0)
(0.00693228 0.250915 0)
(0.00690794 0.27427 0)
(0.00639345 0.293503 0)
(0.0055438 0.309637 0)
(0.0045042 0.323379 0)
(0.00338747 0.335126 0)
(0.00226884 0.345031 0)
(0.00119134 0.353095 0)
(0.000174935 0.35925 0)
(-0.000776186 0.363418 0)
(-0.0016651 0.365552 0)
(-0.00249828 0.365651 0)
(-0.00328513 0.36377 0)
(-0.00403532 0.360017 0)
(-0.00475828 0.354545 0)
(-0.00546276 0.347543 0)
(-0.00615644 0.339226 0)
(-0.00684567 0.329818 0)
(-0.00753527 0.319546 0)
(-0.00822852 0.308626 0)
(-0.00892723 0.297254 0)
(-0.00963194 0.285602 0)
(-0.0103421 0.273814 0)
(-0.0110565 0.262003 0)
(-0.0117737 0.250252 0)
(-0.0124921 0.238619 0)
(-0.0132103 0.227137 0)
(-0.0139273 0.21582 0)
(-0.0146428 0.204671 0)
(-0.015357 0.193677 0)
(-0.0160706 0.182822 0)
(-0.0167851 0.172086 0)
(-0.0175025 0.161446 0)
(-0.018225 0.150882 0)
(-0.0189554 0.140374 0)
(-0.0196967 0.129906 0)
(-0.0204517 0.119463 0)
(-0.0212238 0.109035 0)
(-0.0220158 0.0986131 0)
(-0.0228309 0.08819 0)
(-0.023672 0.0777614 0)
(-0.0245417 0.0673241 0)
(-0.0254427 0.0568757 0)
(-0.0263773 0.0464147 0)
(0.000330945 0.0326977 0)
(0.00171113 0.0909756 0)
(0.00394679 0.141846 0)
(0.00617648 0.18509 0)
(0.00797787 0.220981 0)
(0.00918211 0.250321 0)
(0.00977871 0.274233 0)
(0.00986415 0.293893 0)
(0.00958223 0.310306 0)
(0.00907566 0.324198 0)
(0.00845906 0.335999 0)
(0.00781037 0.345899 0)
(0.00717435 0.353926 0)
(0.00657102 0.360032 0)
(0.00600384 0.364151 0)
(0.005468 0.366243 0)
(0.00495503 0.366308 0)
(0.00445454 0.364404 0)
(0.00395653 0.360637 0)
(0.00345218 0.35516 0)
(0.00293428 0.34816 0)
(0.00239753 0.339849 0)
(0.0018386 0.330452 0)
(0.00125618 0.320193 0)
(0.000650782 0.309286 0)
(2.43149e-05 0.297926 0)
(-0.000620143 0.286285 0)
(-0.00127863 0.274505 0)
(-0.00194705 0.262699 0)
(-0.00262152 0.250951 0)
(-0.00329856 0.239318 0)
(-0.00397545 0.227835 0)
(-0.00465034 0.216517 0)
(-0.00532238 0.205364 0)
(-0.00599168 0.194369 0)
(-0.00665925 0.183514 0)
(-0.0073269 0.172779 0)
(-0.00799711 0.162143 0)
(-0.00867286 0.151586 0)
(-0.00935748 0.141088 0)
(-0.0100546 0.130633 0)
(-0.0107677 0.120207 0)
(-0.0115007 0.109799 0)
(-0.012257 0.0994005 0)
(-0.0130402 0.0890038 0)
(-0.0138535 0.0786047 0)
(-0.0146999 0.0681996 0)
(-0.0155822 0.0577861 0)
(-0.0165031 0.0473623 0)
(0.000352339 0.0317383 0)
(0.001884 0.0889256 0)
(0.00445981 0.139417 0)
(0.00716505 0.182813 0)
(0.00953162 0.219175 0)
(0.0113472 0.249108 0)
(0.0125635 0.273585 0)
(0.0132508 0.293698 0)
(0.0135393 0.310424 0)
(0.0135674 0.3245 0)
(0.0134508 0.336388 0)
(0.0132706 0.346311 0)
(0.0130736 0.35433 0)
(0.0128807 0.360416 0)
(0.0126952 0.364517 0)
(0.0125111 0.366598 0)
(0.0123181 0.366663 0)
(0.0121051 0.364769 0)
(0.0118616 0.361021 0)
(0.0115795 0.35557 0)
(0.0112528 0.348602 0)
(0.0108787 0.340326 0)
(0.0104564 0.330964 0)
(0.00998809 0.320739 0)
(0.00947772 0.309862 0)
(0.00893083 0.298528 0)
(0.00835398 0.286908 0)
(0.00775425 0.275144 0)
(0.00713854 0.263348 0)
(0.00651307 0.251605 0)
(0.00588318 0.239973 0)
(0.00525293 0.228489 0)
(0.00462505 0.217167 0)
(0.0040009 0.206012 0)
(0.00338049 0.195013 0)
(0.00276268 0.184157 0)
(0.00214531 0.173423 0)
(0.00152543 0.162791 0)
(0.00089947 0.152242 0)
(0.000263489 0.141756 0)
(-0.000386709 0.131316 0)
(-0.00105539 0.12091 0)
(-0.00174676 0.110525 0)
(-0.00246491 0.100153 0)
(0.000370021 0.0306963 0)
(0.00203743 0.086629 0)
(0.004928 0.136593 0)
(0.0080844 0.180026 0)
(0.0109981 0.216787 0)
(0.0134149 0.247281 0)
(0.0152472 0.272327 0)
(0.0165369 0.292916 0)
(0.0173977 0.309988 0)
(0.0179621 0.324284 0)
(0.018346 0.336293 0)
(0.0186332 0.346272 0)
(0.0188734 0.354311 0)
(0.0190892 0.360406 0)
(0.0192841 0.364517 0)
(0.0194513 0.366617 0)
(0.0195794 0.366713 0)
(0.0196562 0.364861 0)
(0.0196711 0.361164 0)
(0.0196164 0.355771 0)
(0.0194873 0.348864 0)
(0.0192829 0.34065 0)
(0.0190052 0.331347 0)
(0.0186593 0.321176 0)
(0.0182523 0.310347 0)
(0.0177934 0.299053 0)
(0.0172922 0.287464 0)
(0.0167589 0.275723 0)
(0.016203 0.263942 0)
(0.0156331 0.252207 0)
(0.0150563 0.240579 0)
(0.0144781 0.229093 0)
(0.013902 0.217769 0)
(0.01333 0.206609 0)
(0.0127623 0.195607 0)
(0.0121977 0.184748 0)
(0.0116338 0.174016 0)
(0.0110671 0.163388 0)
(0.0104937 0.152847 0)
(0.00990905 0.142374 0)
(0.00930829 0.131952 0)
(0.00868663 0.121568 0)
(0.00803933 0.111209 0)
(0.0073618 0.100868 0)
(0.000384028 0.0295824 0)
(0.0021709 0.0841083 0)
(0.00534895 0.133401 0)
(0.00892911 0.176753 0)
(0.0123684 0.213833 0)
(0.0153727 0.24485 0)
(0.0178148 0.27046 0)
(0.0197058 0.291546 0)
(0.0211403 0.308997 0)
(0.0222426 0.32355 0)
(0.0231277 0.335714 0)
(0.0238819 0.34578 0)
(0.0245584 0.35387 0)
(0.0251817 0.360002 0)
(0.0257565 0.364152 0)
(0.0262756 0.3663 0)
(0.0267268 0.366457 0)
(0.0270972 0.364677 0)
(0.0273758 0.361062 0)
(0.027555 0.355756 0)
(0.0276314 0.348939 0)
(0.0276054 0.340812 0)
(0.0274815 0.331592 0)
(0.0272675 0.321496 0)
(0.0269736 0.310732 0)
(0.026612 0.299492 0)
(0.0261954 0.287945 0)
(0.0257369 0.276235 0)
(0.0252486 0.264475 0)
(0.0247412 0.252753 0)
(0.0242237 0.241129 0)
(0.0237029 0.229643 0)
(0.0231834 0.218316 0)
(0.0226677 0.207151 0)
(0.0221565 0.196145 0)
(0.0216484 0.185285 0)
(0.0211409 0.174553 0)
(0.0206303 0.163931 0)
(0.0201121 0.1534 0)
(0.0195812 0.142941 0)
(0.0190323 0.132538 0)
(0.0184601 0.122179 0)
(0.0178592 0.11185 0)
(0.0172247 0.101543 0)
(0.000394437 0.0284072 0)
(0.0022841 0.0813874 0)
(0.0057207 0.129869 0)
(0.0096944 0.173019 0)
(0.0136342 0.210331 0)
(0.0172088 0.241826 0)
(0.0202517 0.267989 0)
(0.0227408 0.289588 0)
(0.0247494 0.30745 0)
(0.0263912 0.322296 0)
(0.0277786 0.334651 0)
(0.0290001 0.344838 0)
(0.0301124 0.353007 0)
(0.031143 0.359204 0)
(0.032098 0.36342 0)
(0.0329705 0.365644 0)
(0.033748 0.36589 0)
(0.0344168 0.364212 0)
(0.0349655 0.360708 0)
(0.0353866 0.355518 0)
(0.0356775 0.348817 0)
(0.03584 0.340803 0)
(0.0358806 0.331689 0)
(0.0358094 0.321688 0)
(0.0356394 0.311006 0)
(0.0353856 0.299835 0)
(0.0350636 0.288342 0)
(0.0346891 0.276672 0)
(0.0342767 0.264939 0)
(0.0338393 0.253234 0)
(0.0333876 0.241618 0)
(0.0329299 0.230134 0)
(0.032472 0.218804 0)
(0.032017 0.207636 0)
(0.0315659 0.196626 0)
(0.0311176 0.185764 0)
(0.0306695 0.175033 0)
(0.0302176 0.164417 0)
(0.0297571 0.153896 0)
(0.0292823 0.143454 0)
(0.0287877 0.133073 0)
(0.0282672 0.122741 0)
(0.0277152 0.112445 0)
(0.0271261 0.102175 0)
(0.000401356 0.0271816 0)
(0.00237691 0.0784908 0)
(0.00604181 0.126027 0)
(0.0103762 0.168852 0)
(0.0147879 0.206306 0)
(0.0189121 0.238223 0)
(0.0225434 0.264923 0)
(0.0256255 0.287046 0)
(0.0282075 0.305346 0)
(0.0303898 0.32052 0)
(0.0322809 0.333103 0)
(0.0339707 0.343443 0)
(0.0355192 0.351723 0)
(0.0369573 0.358012 0)
(0.0382936 0.362321 0)
(0.0395219 0.364647 0)
(0.0406295 0.365009 0)
(0.0416024 0.363459 0)
(0.0424288 0.360093 0)
(0.043101 0.355046 0)
(0.0436168 0.348488 0)
(0.0439793 0.340613 0)
(0.0441964 0.331627 0)
(0.0442802 0.321741 0)
(0.0442462 0.311159 0)
(0.0441118 0.300071 0)
(0.0438954 0.288645 0)
(0.043615 0.277024 0)
(0.0432877 0.265327 0)
(0.0429285 0.253643 0)
(0.0425498 0.242039 0)
(0.0421615 0.230559 0)
(0.0417704 0.219229 0)
(0.0413806 0.208057 0)
(0.0409935 0.197045 0)
(0.0406084 0.186181 0)
(0.0402227 0.175453 0)
(0.0398321 0.164843 0)
(0.0394317 0.154335 0)
(0.0390155 0.14391 0)
(0.0385774 0.133554 0)
(0.038111 0.123251 0)
(0.0376101 0.112991 0)
(0.0370686 0.102763 0)
(0.000404929 0.0259162 0)
(0.00244942 0.0754439 0)
(0.00631129 0.121907 0)
(0.0109711 0.164287 0)
(0.0158227 0.201783 0)
(0.0204719 0.23406 0)
(0.0246759 0.26127 0)
(0.0283432 0.283921 0)
(0.0314963 0.302684 0)
(0.0342198 0.318221 0)
(0.0366162 0.331068 0)
(0.0387756 0.341597 0)
(0.0407613 0.350017 0)
(0.0426082 0.356426 0)
(0.0443273 0.360852 0)
(0.0459144 0.363306 0)
(0.047357 0.363808 0)
(0.0486407 0.362412 0)
(0.0497532 0.35921 0)
(0.0506867 0.354332 0)
(0.0514392 0.347942 0)
(0.0520142 0.340228 0)
(0.052421 0.331392 0)
(0.0526735 0.321642 0)
(0.0527889 0.311178 0)
(0.052787 0.300189 0)
(0.0526883 0.288842 0)
(0.0525133 0.277282 0)
(0.0522813 0.265628 0)
(0.0520092 0.253973 0)
(0.0517115 0.242386 0)
(0.0513994 0.230914 0)
(0.051081 0.219585 0)
(0.0507614 0.208412 0)
(0.0504425 0.197398 0)
(0.0501241 0.186534 0)
(0.0498038 0.175809 0)
(0.0494774 0.165208 0)
(0.0491396 0.154713 0)
(0.0487843 0.144308 0)
(0.048405 0.133978 0)
(0.0479949 0.123708 0)
(0.0475473 0.113487 0)
(0.0470559 0.103305 0)
(0.000405325 0.0246216 0)
(0.00250191 0.0722723 0)
(0.00652867 0.117544 0)
(0.0114766 0.159357 0)
(0.0167327 0.196792 0)
(0.0218784 0.229359 0)
(0.0266358 0.257045 0)
(0.0308776 0.280222 0)
(0.0345975 0.299467 0)
(0.0378621 0.315398 0)
(0.0407653 0.328546 0)
(0.0433961 0.339296 0)
(0.0458207 0.347888 0)
(0.0480779 0.354443 0)
(0.0501825 0.359011 0)
(0.0521319 0.361615 0)
(0.0539148 0.362281 0)
(0.0555166 0.361063 0)
(0.0569246 0.358048 0)
(0.0581306 0.353362 0)
(0.0591324 0.347164 0)
(0.0599339 0.339634 0)
(0.0605451 0.330971 0)
(0.0609811 0.321377 0)
(0.0612607 0.31105 0)
(0.0614055 0.300175 0)
(0.0614381 0.288921 0)
(0.0613811 0.277434 0)
(0.0612557 0.265833 0)
(0.061081 0.254214 0)
(0.0608731 0.24265 0)
(0.0606449 0.23119 0)
(0.0604058 0.219867 0)
(0.0601618 0.208696 0)
(0.0599159 0.197682 0)
(0.0596682 0.18682 0)
(0.0594167 0.176099 0)
(0.0591574 0.165507 0)
(0.0588849 0.155028 0)
(0.058593 0.144645 0)
(0.0582748 0.134343 0)
(0.0579233 0.124109 0)
(0.0575313 0.11393 0)
(0.0570921 0.103796 0)
(0.000402738 0.0233081 0)
(0.00253486 0.0690019 0)
(0.00669396 0.112973 0)
(0.0118908 0.154099 0)
(0.017513 0.191368 0)
(0.0231228 0.224145 0)
(0.0284101 0.252264 0)
(0.0332122 0.275956 0)
(0.0374926 0.295698 0)
(0.0412968 0.312052 0)
(0.044708 0.325533 0)
(0.0478122 0.336539 0)
(0.0506779 0.345332 0)
(0.0533479 0.352061 0)
(0.0558408 0.356795 0)
(0.0581568 0.359571 0)
(0.0602859 0.360422 0)
(0.0622137 0.359402 0)
(0.0639272 0.356596 0)
(0.0654177 0.352126 0)
(0.0666825 0.346141 0)
(0.0677255 0.338818 0)
(0.068557 0.330348 0)
(0.0691927 0.32093 0)
(0.0696527 0.310758 0)
(0.06996 0.300015 0)
(0.0701389 0.288869 0)
(0.0702138 0.277467 0)
(0.0702079 0.26593 0)
(0.070142 0.254357 0)
(0.070034 0.242823 0)
(0.0698984 0.231382 0)
(0.0697461 0.220068 0)
(0.0695842 0.208902 0)
(0.0694166 0.197891 0)
(0.0692442 0.187033 0)
(0.0690654 0.17632 0)
(0.0688765 0.165739 0)
(0.0686722 0.155277 0)
(0.0684463 0.144918 0)
(0.0681917 0.134647 0)
(0.0679011 0.124451 0)
(0.0675671 0.114318 0)
(0.0671824 0.104237 0)
(0.000397386 0.0219855 0)
(0.00254889 0.0656585 0)
(0.00680767 0.10823 0)
(0.0122129 0.148555 0)
(0.0181597 0.185547 0)
(0.0241971 0.21845 0)
(0.0299867 0.246949 0)
(0.0353313 0.271135 0)
(0.0401629 0.29138 0)
(0.0445036 0.308181 0)
(0.0484232 0.322029 0)
(0.0520029 0.333324 0)
(0.0553123 0.342349 0)
(0.058398 0.349277 0)
(0.0612827 0.354199 0)
(0.06397 0.357167 0)
(0.0664515 0.358223 0)
(0.0687138 0.35742 0)
(0.0707435 0.354844 0)
(0.0725312 0.350608 0)
(0.0740736 0.344858 0)
(0.0753741 0.337763 0)
(0.0764428 0.329507 0)
(0.0772958 0.320285 0)
(0.0779539 0.310286 0)
(0.078441 0.299692 0)
(0.0787828 0.28867 0)
(0.0790052 0.277367 0)
(0.079133 0.265906 0)
(0.0791889 0.254389 0)
(0.0791924 0.242894 0)
(0.0791596 0.231479 0)
(0.0791027 0.220182 0)
(0.0790303 0.209026 0)
(0.0789474 0.198022 0)
(0.0788556 0.187171 0)
(0.0787541 0.176467 0)
(0.0786394 0.1659 0)
(0.0785067 0.155458 0)
(0.0783497 0.145125 0)
(0.0781614 0.134888 0)
(0.0779342 0.124733 0)
(0.0776605 0.114649 0)
(0.0773328 0.104623 0)
(0.0003895 0.0206635 0)
(0.00254482 0.0622675 0)
(0.00687079 0.103352 0)
(0.0124426 0.142766 0)
(0.01867 0.179371 0)
(0.0250949 0.212306 0)
(0.0313546 0.241122 0)
(0.0372196 0.265774 0)
(0.0425897 0.286522 0)
(0.0474615 0.30379 0)
(0.0518888 0.318032 0)
(0.0559459 0.329648 0)
(0.0597019 0.338935 0)
(0.0632066 0.346088 0)
(0.0664871 0.35122 0)
(0.0695507 0.354399 0)
(0.0723915 0.355676 0)
(0.074997 0.355109 0)
(0.0773538 0.352779 0)
(0.079452 0.348796 0)
(0.0812873 0.3433 0)
(0.0828622 0.336451 0)
(0.0841864 0.32843 0)
(0.0852756 0.319422 0)
(0.0861509 0.309616 0)
(0.0868367 0.299189 0)
(0.0873596 0.288308 0)
(0.0877469 0.277119 0)
(0.0880245 0.265748 0)
(0.0882168 0.254299 0)
(0.088345 0.242853 0)
(0.0884266 0.231472 0)
(0.0884754 0.220198 0)
(0.0885013 0.209058 0)
(0.0885105 0.198066 0)
(0.0885057 0.187227 0)
(0.0884868 0.176536 0)
(0.088451 0.165987 0)
(0.0883938 0.155567 0)
(0.0883092 0.145263 0)
(0.0881901 0.135063 0)
(0.0880291 0.124952 0)
(0.0878184 0.11492 0)
(0.0875501 0.104954 0)
(0.000379326 0.019351 0)
(0.0025236 0.0588538 0)
(0.00688477 0.0983752 0)
(0.0125809 0.136775 0)
(0.0190425 0.172883 0)
(0.0258107 0.205753 0)
(0.0325039 0.234816 0)
(0.0388626 0.259894 0)
(0.0447545 0.281135 0)
(0.0501493 0.29888 0)
(0.055082 0.313543 0)
(0.0596176 0.325509 0)
(0.063823 0.335087 0)
(0.0677505 0.342489 0)
(0.0714311 0.347852 0)
(0.0748765 0.35126 0)
(0.0780836 0.352774 0)
(0.0810413 0.352457 0)
(0.0837367 0.350389 0)
(0.0861591 0.346676 0)
(0.0883031 0.341449 0)
(0.0901702 0.334866 0)
(0.091769 0.327097 0)
(0.0931146 0.318323 0)
(0.0942276 0.308728 0)
(0.0951326 0.298486 0)
(0.0958567 0.287763 0)
(0.0964279 0.276705 0)
(0.0968734 0.265438 0)
(0.0972187 0.254071 0)
(0.0974866 0.242686 0)
(0.097696 0.231349 0)
(0.0978624 0.220107 0)
(0.097997 0.208991 0)
(0.0981073 0.198017 0)
(0.0981972 0.187194 0)
(0.0982673 0.176522 0)
(0.0983159 0.165993 0)
(0.098339 0.155599 0)
(0.0983308 0.145329 0)
(0.0982846 0.135168 0)
(0.098193 0.125105 0)
(0.098048 0.115128 0)
(0.0978419 0.105225 0)
(0.000367119 0.0180566 0)
(0.00248628 0.0554416 0)
(0.00685149 0.0933375 0)
(0.0126293 0.130628 0)
(0.0192768 0.16613 0)
(0.0263407 0.198834 0)
(0.033426 0.228062 0)
(0.0402467 0.253518 0)
(0.0466394 0.275232 0)
(0.0525455 0.29346 0)
(0.0579791 0.308562 0)
(0.0629932 0.320906 0)
(0.0676505 0.3308 0)
(0.0720045 0.338477 0)
(0.0760901 0.344091 0)
(0.079923 0.347744 0)
(0.0835036 0.349509 0)
(0.0868228 0.349454 0)
(0.0898683 0.347661 0)
(0.0926288 0.34423 0)
(0.0950979 0.33929 0)
(0.0972756 0.332987 0)
(0.0991691 0.325488 0)
(0.100792 0.316967 0)
(0.102165 0.307601 0)
(0.103311 0.297563 0)
(0.104259 0.287015 0)
(0.105035 0.276105 0)
(0.105668 0.264959 0)
(0.106185 0.253688 0)
(0.10661 0.242377 0)
(0.106963 0.231097 0)
(0.107261 0.219898 0)
(0.107516 0.208814 0)
(0.107738 0.197866 0)
(0.107932 0.187067 0)
(0.108099 0.176417 0)
(0.108239 0.165915 0)
(0.108348 0.155552 0)
(0.108421 0.145317 0)
(0.108452 0.1352 0)
(0.108433 0.125189 0)
(0.108357 0.115271 0)
(0.108216 0.105435 0)
(0.000353138 0.0167879 0)
(0.00243406 0.0520539 0)
(0.00677323 0.0882751 0)
(0.0125902 0.124371 0)
(0.019374 0.159161 0)
(0.0266828 0.191593 0)
(0.0341141 0.220901 0)
(0.0413599 0.246674 0)
(0.0482273 0.268831 0)
(0.0546288 0.287538 0)
(0.0605558 0.303093 0)
(0.0660466 0.315836 0)
(0.0711576 0.326073 0)
(0.0759418 0.334047 0)
(0.0804372 0.339932 0)
(0.0846636 0.343844 0)
(0.0886253 0.345872 0)
(0.0923154 0.346091 0)
(0.0957226 0.344582 0)
(0.0988354 0.341446 0)
(0.101646 0.336803 0)
(0.104154 0.330796 0)
(0.106363 0.323582 0)
(0.108286 0.31533 0)
(0.109941 0.306212 0)
(0.111353 0.296396 0)
(0.112546 0.286043 0)
(0.113551 0.275298 0)
(0.114394 0.26429 0)
(0.115104 0.253131 0)
(0.115705 0.24191 0)
(0.116219 0.2307 0)
(0.116664 0.219555 0)
(0.117055 0.208514 0)
(0.117401 0.197602 0)
(0.11771 0.186834 0)
(0.117983 0.176215 0)
(0.118222 0.165745 0)
(0.118424 0.155417 0)
(0.118585 0.145224 0)
(0.118698 0.135156 0)
(0.118757 0.1252 0)
(0.118755 0.115345 0)
(0.118683 0.10558 0)
(0.000337644 0.0155523 0)
(0.0023682 0.0487126 0)
(0.00665258 0.0832236 0)
(0.0124669 0.118049 0)
(0.0193364 0.152028 0)
(0.0268364 0.184083 0)
(0.0345632 0.213377 0)
(0.0421916 0.239398 0)
(0.0495021 0.261958 0)
(0.0563784 0.281128 0)
(0.0627875 0.297142 0)
(0.0687509 0.310302 0)
(0.0743161 0.320903 0)
(0.0795337 0.329196 0)
(0.0844437 0.335367 0)
(0.0890699 0.339554 0)
(0.0934201 0.341855 0)
(0.0974907 0.342355 0)
(0.101271 0.34114 0)
(0.104751 0.338306 0)
(0.10792 0.333972 0)
(0.110776 0.328272 0)
(0.113322 0.321358 0)
(0.115569 0.31339 0)
(0.117532 0.304536 0)
(0.119233 0.294961 0)
(0.120699 0.28482 0)
(0.121956 0.27426 0)
(0.123034 0.263409 0)
(0.123959 0.252379 0)
(0.124758 0.241264 0)
(0.125454 0.230139 0)
(0.126065 0.219063 0)
(0.126607 0.208077 0)
(0.127093 0.197212 0)
(0.127529 0.186485 0)
(0.127921 0.175905 0)
(0.128269 0.165474 0)
(0.128573 0.155189 0)
(0.128828 0.145044 0)
(0.12903 0.135028 0)
(0.129173 0.125132 0)
(0.129248 0.115346 0)
(0.129249 0.105657 0)
(0.000320892 0.0143561 0)
(0.00229001 0.0454383 0)
(0.00649244 0.0782177 0)
(0.0122633 0.111709 0)
(0.0191673 0.144784 0)
(0.0268025 0.176357 0)
(0.0347702 0.205538 0)
(0.0427333 0.231728 0)
(0.0504492 0.254639 0)
(0.0577741 0.274249 0)
(0.0646497 0.290719 0)
(0.0710784 0.304306 0)
(0.0770962 0.315289 0)
(0.0827495 0.323918 0)
(0.0880788 0.330393 0)
(0.0931109 0.334866 0)
(0.0978576 0.337449 0)
(0.102318 0.338238 0)
(0.106484 0.337321 0)
(0.110344 0.334797 0)
(0.113889 0.330778 0)
(0.117113 0.325395 0)
(0.120018 0.318791 0)
(0.122611 0.311123 0)
(0.124907 0.30255 0)
(0.126925 0.293231 0)
(0.12869 0.283322 0)
(0.130227 0.272965 0)
(0.131566 0.26229 0)
(0.132732 0.251409 0)
(0.133754 0.240418 0)
(0.134653 0.229395 0)
(0.135451 0.218403 0)
(0.136164 0.207487 0)
(0.136806 0.196681 0)
(0.137386 0.186006 0)
(0.13791 0.175475 0)
(0.138379 0.165093 0)
(0.138795 0.154859 0)
(0.139154 0.144767 0)
(0.139453 0.134811 0)
(0.139685 0.124982 0)
(0.139845 0.115269 0)
(0.139924 0.105661 0)
(0.000303129 0.0132052 0)
(0.00220082 0.0422502 0)
(0.00629587 0.0732905 0)
(0.0119837 0.105396 0)
(0.0188712 0.137483 0)
(0.0265838 0.168472 0)
(0.0347338 0.197438 0)
(0.0429783 0.223712 0)
(0.0510558 0.246911 0)
(0.0587971 0.266924 0)
(0.0661182 0.283836 0)
(0.0730008 0.297854 0)
(0.0794672 0.309231 0)
(0.0855571 0.318211 0)
(0.0913095 0.325004 0)
(0.0967537 0.329773 0)
(0.101904 0.332646 0)
(0.106764 0.333727 0)
(0.111327 0.333112 0)
(0.115582 0.3309 0)
(0.11952 0.327203 0)
(0.123132 0.322143 0)
(0.126418 0.315861 0)
(0.129382 0.308503 0)
(0.132037 0.300225 0)
(0.134399 0.291181 0)
(0.136491 0.281521 0)
(0.138337 0.271387 0)
(0.139964 0.260906 0)
(0.1414 0.250194 0)
(0.14267 0.239346 0)
(0.143799 0.228444 0)
(0.144808 0.217553 0)
(0.145714 0.206723 0)
(0.146532 0.195991 0)
(0.147273 0.185383 0)
(0.147945 0.174913 0)
(0.14855 0.164589 0)
(0.14909 0.154415 0)
(0.149564 0.144386 0)
(0.149969 0.134498 0)
(0.1503 0.124741 0)
(0.15055 0.115108 0)
(0.150714 0.105587 0)
(0.00028459 0.0121045 0)
(0.00210195 0.0391658 0)
(0.00606605 0.0684733 0)
(0.0116331 0.099155 0)
(0.0184536 0.130179 0)
(0.0261844 0.160487 0)
(0.0344548 0.189137 0)
(0.0429222 0.2154 0)
(0.051311 0.238815 0)
(0.0594297 0.259182 0)
(0.0671694 0.276512 0)
(0.0744898 0.290955 0)
(0.0813974 0.302731 0)
(0.0879224 0.312074 0)
(0.094101 0.319194 0)
(0.0999628 0.324268 0)
(0.105526 0.327436 0)
(0.110795 0.328812 0)
(0.115766 0.328501 0)
(0.12043 0.326603 0)
(0.124776 0.323228 0)
(0.128796 0.318497 0)
(0.132485 0.312542 0)
(0.135845 0.305505 0)
(0.138886 0.297535 0)
(0.141621 0.28878 0)
)
;

boundaryField
{
    movingWall
    {
        type            fixedValue;
        value           nonuniform List<vector> 0();
    }