/*--------------------------------*- C++ -*----------------------------------*\
  =========                 |
  \\      /  F ield         | OpenFOAM: The Open Source CFD Toolbox
   \\    /   O peration     | Website:  https://openfoam.org
    \\  /    A nd           | Version:  9
     \\/     M anipulation  |
\*---------------------------------------------------------------------------*/
FoamFile
{
    format      ascii;
    class       volScalarField;
    location    "2";
    object      p;
}
// * * * * * * * * * * * * * * * * * * * * * * * * * * * * * * * * * * * * * //

dimensions      [0 2 -2 0 0 0 0];

internalField   nonuniform List<scalar> 
1250
(
3.94759e-08
1.12191e-05
1.49487e-05
9.02005e-06
-7.93847e-06
-3.60332e-05
-7.45724e-05
-0.000122598
-0.000179143
-0.000243351
-0.000314523
-0.000392119
-0.000475749
-0.000565159
-0.000660218
-0.000760884
-0.00086718
-0.000979165
-0.00109691
-0.00122048
-0.0013499
-0.00148513
-0.00162604
-0.00177242
-0.0019239
-0.00207998
-0.00224
-0.00240311
-0.00256824
-1.14971e-05
-2.42113e-07
1.12007e-06
-6.80443e-06
-2.41405e-05
-5.10986e-05
-8.73347e-05
-0.000132215
-0.000185049
-0.000245187
-0.000312064
-0.000385168
-0.000464203
-0.000548915
-0.000639155
-0.000734856
-0.000836011
-0.000942647
-0.00105481
-0.00117253
-0.00129582
-0.00142462
-0.00155884
-0.00169825
-0.00184253
-0.00199123
-0.00214375
-0.0022993
-0.00245693
-1.55511e-05
-1.91102e-06
-6.60835e-07
-9.19688e-06
-2.66063e-05
-5.29434e-05
-8.789e-05
-0.000130901
-0.000181395
-0.000238807
-0.000302632
-0.000372498
-0.000448054
-0.000529091
-0.000615481
-0.000707157
-0.000804111
-0.000906371
-0.00101398
-0.00112699
-0.00124541
-0.00136922
-0.00149834
-0.00163259
-0.00177171
-0.0019153
-0.00206284
-0.00221362
-0.00236677
-9.58847e-06
5.81365e-06
7.18551e-06
-1.72367e-06
-1.93182e-05
-4.54316e-05
-7.96691e-05
-0.000121478
-0.000170306
-0.000225642
-0.000287039
-0.000354135
-0.000426652
-0.000504406
-0.000587291
-0.000675265
-0.000768343
-0.000866576
-0.000970038
-0.0010788
-0.00119293
-0.00131245
-0.00143733
-0.00156747
-0.00170267
-0.00184263
-0.00198692
-0.00213491
-0.00228584
8.12002e-06
2.33118e-05
2.39749e-05
1.42581e-05
-3.91703e-06
-3.0215e-05
-6.41613e-05
-0.000105179
-0.000152733
-0.000206348
-0.000265622
-0.000330233
-0.000399953
-0.000474635
-0.000554211
-0.000638681
-0.000728103
-0.000822571
-0.000922214
-0.00102717
-0.00113755
-0.00125348
-0.001375
-0.00150211
-0.00163472
-0.00177265
-0.00191557
-0.00206297
-0.00221418
3.80959e-05
5.10695e-05
4.99917e-05
3.884e-05
1.95643e-05
-7.38326e-06
-4.14673e-05
-8.21042e-05
-0.000128774
-0.000181041
-0.000238546
-0.000301017
-0.000368276
-0.000440227
-0.000516858
-0.000598226
-0.000684454
-0.000775707
-0.000872192
-0.000974133
-0.00108176
-0.00119528
-0.00131487
-0.00144066
-0.00157269
-0.00171093
-0.00185519
-0.00200507
-0.00216002
8.00316e-05
8.8977e-05
8.51261e-05
7.18512e-05
5.09154e-05
2.28484e-05
-1.17897e-05
-5.24352e-05
-9.86004e-05
-0.000149896
-0.000206015
-0.000266748
-0.000331975
-0.000401669
-0.000475889
-0.000554774
-0.00063853
-0.000727426
-0.00082178
-0.000921937
-0.00102826
-0.00114112
-0.00126083
-0.0013877
-0.00152194
-0.00166368
-0.00181289
-0.0019693
-0.00213247
0.000133213
0.000136533
0.00012893
0.000112856
8.97248e-05
6.00996e-05
2.45277e-05
-1.6479e-05
-6.24955e-05
-0.000113196
-0.000168343
-0.0002278
-0.000291528
-0.000359583
-0.000432118
-0.000509374
-0.000591678
-0.000679427
-0.000773089
-0.000873172
-0.000980216
-0.00109477
-0.00121737
-0.0013485
-0.00148858
-0.00163794
-0.00179671
-0.00196473
-0.00214167
0.000196704
0.000192974
0.000180722
0.000161244
0.000135438
0.00010387
6.70309e-05
2.53371e-05
-2.08774e-05
-7.13765e-05
-0.000126017
-0.000184755
-0.00024765
-0.000314866
-0.000386675
-0.000463451
-0.000545671
-0.000633907
-0.00072881
-0.000831094
-0.000941522
-0.00106087
-0.00118992
-0.00132939
-0.00147992
-0.00164203
-0.00181606
-0.00200189
-0.00219931
0.000269366
0.000257263
0.000239619
0.000216197
0.000187307
0.000153479
0.00011508
7.23967e-05
2.56295e-05
-2.51041e-05
-7.97807e-05
-0.000138477
-0.000201376
-0.000268776
-0.000341097
-0.000418886
-0.000502808
-0.000593647
-0.000692289
-0.000799702
-0.000916912
-0.00104498
-0.00118494
-0.00133779
-0.0015044
-0.00168552
-0.00188159
-0.0020926
-0.00231834
0.000349819
0.000328185
0.000304438
0.000276634
0.000244353
0.000207988
0.000167779
0.000123812
7.6115e-05
2.46466e-05
-3.07173e-05
-9.02019e-05
-0.000154145
-0.000223013
-0.000297413
-0.0003781
-0.000465978
-0.000562089
-0.000667601
-0.000783786
-0.000911982
-0.00105356
-0.00120987
-0.00138216
-0.00157157
-0.00177902
-0.0020051
-0.00224976
-0.00251279
0.000436448
0.000404183
0.000373732
0.000341209
0.000305266
0.000266168
0.000223922
0.000178366
0.00012931
7.65192e-05
1.96827e-05
-4.1606e-05
-0.000107875
-0.000179798
-0.000258212
-0.000344129
-0.000438737
-0.00054339
-0.000659593
-0.000788966
-0.000933203
-0.00109402
-0.00127308
-0.00147193
-0.00169192
-0.00193415
-0.00219924
-0.00248711
-0.00279744
0.000527324
0.000483403
0.000445753
0.000408222
0.000368443
0.00032644
0.000281932
0.00023445
0.000183535
0.000128715
6.94549e-05
5.12811e-06
-6.50265e-05
-0.000141933
-0.000226707
-0.000320669
-0.000425348
-0.000542463
-0.000673907
-0.000821692
-0.000987901
-0.00117461
-0.00138383
-0.00161736
-0.00187675
-0.00216319
-0.00247734
-0.00281893
-0.00318748
0.000620166
0.000563686
0.000518363
0.000475635
0.000431889
0.000386833
0.000339823
0.00029002
0.000236646
0.000178944
0.000116114
4.72637e-05
-2.86461e-05
-0.00011284
-0.000206766
-0.000312111
-0.000430799
-0.000564971
-0.000716953
-0.000889188
-0.00108417
-0.00130437
-0.00155207
-0.00182935
-0.00213788
-0.00247891
-0.00285299
-0.00325963
-0.00369808
0.000712341
0.000642403
0.000589082
0.000541024
0.000493212
0.000444952
0.000395162
0.000342563
0.000286004
0.000224393
0.000156621
8.14821e-05
-2.39117e-06
-9.65795e-05
-0.000202922
-0.00032353
-0.00046078
-0.000617286
-0.000795846
-0.000999367
-0.00123076
-0.00149286
-0.00178826
-0.00211918
-0.00248741
-0.00289413
-0.00333971
-0.00382332
-0.00434384
0.000800737
0.000716629
0.000655033
0.000601555
0.000549598
0.000497966
0.000445054
0.000389076
0.000328451
0.000261706
0.000187372
0.000103877
9.47239e-06
-9.78393e-05
-0.000220348
-0.000360648
-0.000521624
-0.000706406
-0.000918297
-0.00116068
-0.00143688
-0.00175006
-0.00210306
-0.00249822
-0.0029373
-0.00342135
-0.00395043
-0.00452327
-0.00513826
0.000881889
0.000783006
0.000712934
0.000653991
0.000597813
0.000542596
0.000486132
0.000426062
0.000360316
0.000286992
0.000204207
0.000109973
2.09762e-06
-0.000121893
-0.0002648
-0.00042976
-0.00062021
-0.000839831
-0.00109245
-0.00138192
-0.00171195
-0.00208601
-0.00250708
-0.00297753
-0.00349901
-0.00407229
-0.004697
-0.00537133
-0.00609303
0.000951912
0.000837786
0.000759118
0.000694694
0.000634199
0.000575124
0.000514573
0.000449546
0.000377433
0.000295851
0.000202451
9.47714e-05
-2.98847e-05
-0.000174528
-0.000342531
-0.000537619
-0.000763823
-0.0010254
-0.00132669
-0.001672
-0.00206539
-0.00251052
-0.00301047
-0.0035675
-0.00418302
-0.00485738
-0.00558966
-0.00637734
-0.00721741
0.00100654
0.000876863
0.000789557
0.00071965
0.000654714
0.000591425
0.000526125
0.000455112
0.000375186
0.000283429
0.000176972
5.28218e-05
-9.22813e-05
-0.000261944
-0.000460162
-0.000691292
-0.000959986
-0.00127107
-0.0016294
-0.00203968
-0.00250624
-0.00303287
-0.00362257
-0.00427742
-0.0049984
-0.00578529
-0.00663643
-0.00754849
-0.00851752
0.00104115
0.000895808
0.000799897
0.000724513
0.000654962
0.000587011
0.000516165
0.000437968
0.000348575
0.000244488
0.000122265
-2.16787e-05
-0.000191221
-0.000390618
-0.000624533
-0.000897985
-0.00121625
-0.00158473
-0.00200872
-0.00249328
-0.0030429
-0.00366137
-0.00435152
-0.00511503
-0.00595232
-0.00686237
-0.00784261
-0.00888882
-0.00999581
0.00105087
0.000889932
0.000785522
0.000704661
0.000630262
0.000557096
0.000479767
0.000393014
0.000292305
0.00017351
3.25646e-05
-0.000134759
-0.000333011
-0.000567144
-0.000842519
-0.00116483
-0.00153998
-0.00197388
-0.00247225
-0.00304035
-0.00368275
-0.0044031
-0.00520386
-0.00608615
-0.00704964
-0.00809234
-0.00921039
-0.0103987
0.00103062
0.000854358
0.000741623
0.000655272
0.000575729
0.000496688
0.000411799
0.000314954
0.000200894
6.48143e-05
-9.80197e-05
-0.000292528
-0.000523979
-0.000798056
-0.00112084
-0.00149869
-0.0019381
-0.00244544
-0.00302674
-0.00368739
-0.00443187
-0.00526349
-0.00618417
-0.00719427
-0.0082925
-0.00947567
-0.0107385
-0.0120746
0.000975224
0.000784114
0.000663293
0.00057142
0.000486367
0.000400684
0.000307026
0.000198405
6.88004e-05
-8.73048e-05
-0.000275359
-0.000501016
-0.000770296
-0.00108964
-0.00146583
-0.00190589
-0.00241684
-0.00300543
-0.00367789
-0.00443957
-0.00529469
-0.00624604
-0.0072948
-0.00844032
-0.00968011
-0.0110096
-0.012422
-0.0139092
0.000879497
0.000674234
0.00054563
0.000448182
0.000357182
0.000263991
0.000160239
3.80329e-05
-0.000109434
-0.000288426
-0.000505138
-0.000765992
-0.00107778
-0.0014477
-0.00188325
-0.00239203
-0.00298152
-0.00365877
-0.00443002
-0.00530044
-0.00627379
-0.00735214
-0.00853566
-0.00982249
-0.0112087
-0.0126881
-0.0142522
-0.0158911
0.000738393
0.000519879
0.000383852
0.000280751
0.000183307
8.16565e-05
-3.36113e-05
-0.000171304
-0.000339035
-0.00054384
-0.000792689
-0.00109279
-0.00145173
-0.00187743
-0.00237805
-0.00296175
-0.00363634
-0.00440901
-0.00528589
-0.00627177
-0.00736971
-0.00858084
-0.0099041
-0.0113362
-0.0128714
-0.0145019
-0.0162173
-0.0180057
0.000547118
0.000316455
0.000173421
6.45686e-05
-3.98727e-05
-0.000151002
-0.000279272
-0.000434407
-0.00062484
-0.000858389
-0.00114282
-0.00148614
-0.00189669
-0.00238313
-0.00295422
-0.00361853
-0.00438415
-0.0052582
-0.00624655
-0.00735336
-0.00858082
-0.00992883
-0.0113949
-0.012974
-0.0146587
-0.0164389
-0.0183025
-0.0202355
0.00030126
5.97407e-05
-8.98334e-05
-0.000204552
-0.000316583
-0.000438253
-0.000581047
-0.000755593
-0.000971144
-0.00123631
-0.00155966
-0.00194997
-0.00241635
-0.00296812
-0.00361456
-0.00436457
-0.00522631
-0.00620674
-0.00731119
-0.00854303
-0.0099033
-0.0113905
-0.0130004
-0.0147261
-0.0165581
-0.0184844
-0.0204905
-0.0225608
-3.08285e-06
-0.000253988
-0.000409587
-0.000530295
-0.00065053
-0.00078382
-0.000942654
-0.00113855
-0.00138156
-0.00168108
-0.00204648
-0.0024873
-0.00301336
-0.00363456
-0.0043606
-0.0052006
-0.00616264
-0.00725327
-0.00847715
-0.00983658
-0.0113313
-0.012958
-0.0147107
-0.0165805
-0.0185555
-0.0206217
-0.0227627
-0.0249608
-0.00036918
-0.000627843
-0.000788902
-0.00091572
-0.00104478
-0.00119075
-0.0013671
-0.00158619
-0.00185887
-0.0021953
-0.00260561
-0.00310009
-0.00368918
-0.00438331
-0.00519249
-0.00612587
-0.00719129
-0.00839473
-0.00973991
-0.0112279
-0.0128568
-0.0146215
-0.016514
-0.0185231
-0.0206349
-0.022833
-0.0250992
-0.0274139
-0.000799557
-0.00106421
-0.00123012
-0.00136315
-0.00150162
-0.00166131
-0.00185657
-0.00210058
-0.00240493
-0.00278056
-0.0032383
-0.00378912
-0.00444406
-0.00521393
-0.00610892
-0.00713808
-0.00830881
-0.00962633
-0.0110932
-0.0127091
-0.0144702
-0.0163697
-0.018397
-0.0205389
-0.0227793
-0.0250996
-0.0274799
-0.0298991
-0.0012959
-0.00156466
-0.00173476
-0.00187409
-0.00202253
-0.00219687
-0.00241231
-0.00268278
-0.00302059
-0.00343737
-0.00394464
-0.00455399
-0.00527694
-0.00612458
-0.00710715
-0.00823343
-0.0095102
-0.0109417
-0.0125292
-0.0142707
-0.0161605
-0.0181896
-0.0203452
-0.0226118
-0.0249711
-0.0274028
-0.0298851
-0.032396
-0.00185897
-0.00212986
-0.00230346
-0.00244913
-0.00260801
-0.00279784
-0.00303458
-0.00333283
-0.00370558
-0.0041651
-0.00472354
-0.00539302
-0.00618544
-0.00711207
-0.00818303
-0.00940667
-0.010789
-0.0123331
-0.0140387
-0.015902
-0.0179154
-0.0200675
-0.0223435
-0.0247254
-0.0271931
-0.0297244
-0.0322963
-0.0348856
-0.00248857
-0.00275956
-0.00293591
-0.00308789
-0.00325762
-0.00346364
-0.0037226
-0.00404971
-0.00445854
-0.00496198
-0.0055727
-0.00630329
-0.00716591
-0.00817189
-0.00933108
-0.0106512
-0.0121374
-0.0137914
-0.0156113
-0.0175914
-0.0197219
-0.0219892
-0.0243764
-0.0268634
-0.0294281
-0.0320469
-0.0346958
-0.0373509
-0.0031835
-0.0034525
-0.00363081
-0.00378901
-0.00396988
-0.00419264
-0.00447452
-0.00483126
-0.00527698
-0.00582505
-0.00648863
-0.00728066
-0.00821347
-0.0092983
-0.0105446
-0.0119594
-0.0135466
-0.0153066
-0.0172357
-0.0193263
-0.0215664
-0.0239402
-0.0264287
-0.0290099
-0.03166
-0.0343542
-0.0370678
-0.0397766
-0.00394152
-0.00420645
-0.00438589
-0.00455015
-0.0047423
-0.00498217
-0.00528743
-0.00567429
-0.00615729
-0.00675026
-0.00746673
-0.00831989
-0.00932213
-0.0104845
-0.0118158
-0.0133223
-0.0150067
-0.0168678
-0.0189001
-0.0210939
-0.0234353
-0.0259062
-0.0284856
-0.0311498
-0.0338738
-0.0366317
-0.0393984
-0.0421496
-0.00475943
-0.00501821
-0.00519791
-0.00536797
-0.00557143
-0.00582856
-0.00615743
-0.00657456
-0.00709486
-0.00773251
-0.00850134
-0.00941468
-0.0104849
-0.0117226
-0.013136
-0.0147305
-0.0165073
-0.0184637
-0.0205923
-0.0228814
-0.0253149
-0.0278731
-0.0305328
-0.0332691
-0.0360557
-0.0388662
-0.041675
-0.0444584
-0.00563306
-0.00588366
-0.00606271
-0.00623822
-0.00645284
-0.0067272
-0.00707962
-0.00752685
-0.00808408
-0.00876574
-0.00958586
-0.0105578
-0.0116938
-0.013004
-0.014496
-0.0161738
-0.0180374
-0.0200825
-0.0222999
-0.0246758
-0.0271923
-0.0298276
-0.0325572
-0.0353549
-0.0381934
-0.041046
-0.0438873
-0.0466939
-0.00655737
-0.00679781
-0.00697528
-0.00715577
-0.00738127
-0.00767261
-0.00804826
-0.0085251
-0.0091185
-0.00984306
-0.0107129
-0.0117414
-0.0129403
-0.0143195
-0.0158856
-0.0176415
-0.0195859
-0.0217127
-0.0240108
-0.0264647
-0.0290546
-0.0317572
-0.0345466
-0.0373954
-0.0402759
-0.0431613
-0.0460263
-0.0488482
-0.00752649
-0.0077549
-0.00792982
-0.00811474
-0.00835066
-0.00865852
-0.00905682
-0.00956249
-0.0101909
-0.0109569
-0.0118744
-0.0129567
-0.0142153
-0.0156594
-0.0172948
-0.0191231
-0.0211415
-0.0233424
-0.0257131
-0.0282361
-0.0308901
-0.0336503
-0.0364897
-0.0393802
-0.0422937
-0.0452033
-0.0480845
-0.0509152
-0.0085339
-0.00874849
-0.00891989
-0.00910858
-0.00935432
-0.00967803
-0.0100982
-0.0106315
-0.0112936
-0.012099
-0.0130617
-0.0141948
-0.0155094
-0.0170138
-0.018713
-0.0206075
-0.0226931
-0.0249604
-0.0273953
-0.0299787
-0.0326877
-0.0354963
-0.0383766
-0.0413
-0.0442383
-0.0471649
-0.0500557
-0.0528897
-0.00957246
-0.0097716
-0.00993848
-0.0101302
-0.010385
-0.0107237
-0.0111646
-0.0117243
-0.0124182
-0.0132608
-0.014266
-0.0154464
-0.0168126
-0.0183725
-0.0201299
-0.0220842
-0.0242297
-0.0265558
-0.0290466
-0.0316817
-0.034437
-0.0372854
-0.0401983
-0.0431468
-0.0461027
-0.0490399
-0.0519349
-0.0547678
-0.0106346
-0.0108168
-0.0109782
-0.011172
-0.011435
-0.0117876
-0.012248
-0.0128325
-0.0135562
-0.0144335
-0.0154779
-0.0167019
-0.0181154
-0.0197256
-0.0215352
-0.0235427
-0.025741
-0.0281181
-0.0306569
-0.0333355
-0.0361288
-0.039009
-0.0419469
-0.0449134
-0.0478807
-0.0508231
-0.0537179
-0.0565462
-0.0117125
-0.0118764
-0.0120312
-0.0122263
-0.0124964
-0.0128618
-0.0133402
-0.0139476
-0.0146989
-0.0156081
-0.0166885
-0.017952
-0.0194081
-0.0210631
-0.0229191
-0.0249731
-0.0272171
-0.0296377
-0.0322166
-0.034931
-0.0377547
-0.0406593
-0.0436154
-0.0465938
-0.0495671
-0.0525102
-0.0554013
-0.0582223
-0.0130899
-0.0132852
-0.0135612
-0.0139379
-0.0144326
-0.015061
-0.0158374
-0.0167755
-0.0178882
-0.0191871
-0.020681
-0.0223755
-0.0242717
-0.0263657
-0.0286484
-0.0311054
-0.0337171
-0.0364599
-0.0393069
-0.0422294
-0.0451976
-0.0481827
-0.0511575
-0.0540976
-0.0569821
-0.0597938
)
;

boundaryField
{
    movingWall
    {
        type            zeroGradient;
    }
    fixedWalls
    {
        type            zeroGradient;
    }
    frontAndBack
    {
        type            empty;
    }
    procBoundary0to1
    {
        type            processor;
        value           nonuniform List<scalar> 
45
(
-0.00273418
-0.00261551
-0.00252128
-0.00243882
-0.00236847
-0.00231946
-0.00230195
-0.00232721
-0.00240804
-0.00255857
-0.00279389
-0.0031298
-0.00358233
-0.00416732
-0.00489981
-0.00579336
-0.00685935
-0.00810623
-0.0095388
-0.0111576
-0.0116507
-0.0116507
-0.0134762
-0.0154619
-0.0175938
-0.0198542
-0.0222232
-0.0246786
-0.0271976
-0.0297575
-0.0323364
-0.0349135
-0.0374701
-0.0399898
-0.0424582
-0.0448632
-0.0471948
-0.049445
-0.0516073
-0.0536767
-0.0556492
-0.0575219
-0.0592923
-0.0609586
-0.0625192
)
;
    }
    procBoundary0to3
    {
        type            processor;
        value           nonuniform List<scalar> 
29
(
-0.0127982
-0.0129426
-0.0129426
-0.0141464
-0.0143409
-0.0146215
-0.0150081
-0.0155174
-0.0161645
-0.0169634
-0.0179273
-0.0190687
-0.0203986
-0.0219254
-0.0236539
-0.0255842
-0.0277118
-0.0300265
-0.0325128
-0.0351504
-0.0379149
-0.0407788
-0.0437131
-0.0466882
-0.0496754
-0.0526479
-0.0555822
-0.058458
-0.061259
)
;
    }
}


// ************************************************************************* //
