/*--------------------------------*- C++ -*----------------------------------*\
  =========                 |
  \\      /  F ield         | OpenFOAM: The Open Source CFD Toolbox
   \\    /   O peration     | Website:  https://openfoam.org
    \\  /    A nd           | Version:  9
     \\/     M anipulation  |
\*---------------------------------------------------------------------------*/
FoamFile
{
    format      ascii;
    class       surfaceScalarField;
    location    "2";
    object      phi;
}
// * * * * * * * * * * * * * * * * * * * * * * * * * * * * * * * * * * * * * //

dimensions      [0 3 -1 0 0 0 0];

internalField   nonuniform List<scalar> 
2427
(
1.07921e-10
-1.08202e-10
7.05619e-10
-5.97711e-10
1.65012e-09
-9.44493e-10
2.75032e-09
-1.1002e-09
3.86682e-09
-1.11649e-09
4.90683e-09
-1.04002e-09
5.81218e-09
-9.05337e-10
6.54901e-09
-7.36825e-10
7.09959e-09
-5.50583e-10
7.45618e-09
-3.56579e-10
7.61652e-09
-1.60342e-10
7.58182e-09
3.47004e-11
7.35313e-09
2.2869e-10
6.93098e-09
4.22143e-10
6.31436e-09
6.16632e-10
5.5001e-09
8.14265e-10
4.48272e-09
1.01738e-09
3.25438e-09
1.22834e-09
1.80498e-09
1.4494e-09
1.22425e-10
1.68255e-09
-1.80702e-09
1.92945e-09
-3.99836e-09
2.19134e-09
-6.46731e-09
2.46895e-09
-9.22977e-09
2.76247e-09
-1.23012e-08
3.07143e-09
-1.56959e-08
3.39471e-09
-1.94263e-08
3.73041e-09
-2.35021e-08
4.07575e-09
4.42746e-09
6.00828e-10
-7.09041e-10
2.12052e-09
-2.1174e-09
4.21792e-09
-3.0419e-09
6.57581e-09
-3.45808e-09
8.93177e-09
-3.47246e-09
1.10886e-08
-3.19688e-09
1.29081e-08
-2.72482e-09
1.42987e-08
-2.12744e-09
1.52034e-08
-1.45522e-09
1.55886e-08
-7.4181e-10
1.54326e-08
-4.28393e-12
1.47285e-08
7.38777e-10
1.34652e-08
1.49199e-09
1.16344e-08
2.253e-09
9.22454e-09
3.02645e-09
6.2203e-09
3.8185e-09
2.60153e-09
4.63615e-09
-1.65664e-09
5.48651e-09
-6.58348e-09
6.37625e-09
-1.2212e-08
7.31107e-09
-1.85779e-08
8.29539e-09
-2.57185e-08
9.33196e-09
-3.36712e-08
1.04216e-08
-4.24717e-08
1.15629e-08
-5.21524e-08
1.27522e-08
-6.27407e-08
1.3983e-08
-7.42565e-08
1.52462e-08
-8.67102e-08
1.65295e-08
1.78189e-08
9.56107e-10
-1.66514e-09
3.06043e-09
-4.22172e-09
5.80255e-09
-5.784e-09
8.77797e-09
-6.43351e-09
1.16594e-08
-6.35385e-09
1.41943e-08
-5.73182e-09
1.61974e-08
-4.72788e-09
1.7538e-08
-3.468e-09
1.8127e-08
-2.04433e-09
1.79048e-08
-5.19592e-10
1.68335e-08
1.06701e-09
1.48797e-08
2.69266e-09
1.20209e-08
4.35071e-09
8.23221e-09
6.04173e-09
3.48589e-09
7.77277e-09
-2.2502e-09
9.55459e-09
-9.01363e-09
1.13996e-08
-1.68474e-08
1.33203e-08
-2.57992e-08
1.5328e-08
-3.59202e-08
1.74321e-08
-4.72638e-08
1.96389e-08
-5.98827e-08
2.19509e-08
-7.38276e-08
2.43665e-08
-8.91436e-08
2.6879e-08
-1.05868e-07
2.94765e-08
-1.24027e-07
3.21417e-08
-1.43631e-07
3.48509e-08
-1.64677e-07
3.75747e-08
4.02793e-08
1.11868e-09
-2.78383e-09
3.47609e-09
-6.57912e-09
6.42918e-09
-8.7371e-09
9.50462e-09
-9.50894e-09
1.23349e-08
-9.18411e-09
1.46385e-08
-8.03546e-09
1.6205e-08
-6.29438e-09
1.68802e-08
-4.14321e-09
1.65527e-08
-1.71675e-09
1.51413e-08
8.91761e-10
1.25853e-08
3.62301e-09
8.83397e-09
6.44399e-09
3.84291e-09
9.34178e-09
-2.43246e-09
1.23171e-08
-1.00395e-08
1.53798e-08
-1.90299e-08
1.8545e-08
-2.94605e-08
2.18302e-08
-4.13926e-08
2.52524e-08
-5.48912e-08
2.88267e-08
-7.0023e-08
3.25639e-08
-8.68536e-08
3.64695e-08
-1.05445e-07
4.05425e-08
-1.25853e-07
4.47741e-08
-1.48121e-07
4.91469e-08
-1.72279e-07
5.36344e-08
-1.98337e-07
5.82003e-08
-2.26285e-07
6.27985e-08
-2.56083e-07
6.73728e-08
7.18606e-08
1.1307e-09
-3.91453e-09
3.4419e-09
-8.89032e-09
6.21642e-09
-1.15116e-08
8.93794e-09
-1.22305e-08
1.12174e-08
-1.14635e-08
1.27607e-08
-9.57884e-09
1.33468e-08
-6.88045e-09
1.2809e-08
-3.60546e-09
1.10211e-08
7.12364e-11
7.8844e-09
4.02843e-09
3.3183e-09
8.18911e-09
-2.74807e-09
1.25104e-08
-1.03813e-08
1.69751e-08
-1.96482e-08
2.15839e-08
-3.06177e-08
2.63493e-08
-4.33627e-08
3.129e-08
-5.79596e-08
3.64271e-08
-7.44876e-08
4.17804e-08
-9.30266e-08
4.73657e-08
-1.13655e-07
5.31919e-08
-1.36444e-07
5.92594e-08
-1.6146e-07
6.5558e-08
-1.88751e-07
7.20654e-08
-2.18351e-07
7.87464e-08
-2.50268e-07
8.55513e-08
-2.84484e-07
9.24163e-08
-3.20948e-07
9.9263e-08
-3.59574e-07
1.05999e-07
1.12523e-07
1.02842e-09
-4.94295e-09
3.03639e-09
-1.08983e-08
5.28643e-09
-1.37617e-08
7.24945e-09
-1.41935e-08
8.53364e-09
-1.27477e-08
8.84622e-09
-9.89142e-09
7.96594e-09
-6.00016e-09
5.72215e-09
-1.36166e-09
1.97951e-09
3.81387e-09
-3.37444e-09
9.38239e-09
-1.04382e-08
1.52529e-08
-1.93034e-08
2.13755e-08
-3.00589e-08
2.77306e-08
-4.27945e-08
3.43195e-08
-5.76017e-08
4.11566e-08
-7.45747e-08
4.8263e-08
-9.38087e-08
5.56611e-08
-1.15398e-07
6.33702e-08
-1.39435e-07
7.14025e-08
-1.66004e-07
7.97602e-08
-1.95176e-07
8.84321e-08
-2.2701e-07
9.73919e-08
-2.61541e-07
1.06596e-07
-2.98776e-07
1.15982e-07
-3.38692e-07
1.25467e-07
-3.81228e-07
1.34952e-07
-4.26279e-07
1.44314e-07
-4.73696e-07
1.53416e-07
1.6211e-07
8.36529e-10
-5.77948e-09
2.3218e-09
-1.23836e-08
3.74116e-09
-1.5181e-08
4.58258e-09
-1.50349e-08
4.47099e-09
-1.26361e-08
3.12806e-09
-8.5485e-09
3.41926e-10
-3.21402e-09
-4.05506e-09
3.03533e-09
-1.02031e-08
9.96192e-09
-1.82257e-08
1.74049e-08
-2.82376e-08
2.52649e-08
-4.03506e-08
3.34885e-08
-5.4676e-08
4.2056e-08
-7.13263e-08
5.09698e-08
-9.04153e-08
6.02456e-08
-1.12057e-07
6.99046e-08
-1.36363e-07
7.99673e-08
-1.63441e-07
9.04478e-08
-1.93388e-07
1.01349e-07
-2.26288e-07
1.1266e-07
-2.62206e-07
1.2435e-07
-3.01182e-07
1.36368e-07
-3.43225e-07
1.48639e-07
-3.88308e-07
1.61065e-07
-4.3636e-07
1.7352e-07
-4.87264e-07
1.85855e-07
-5.40851e-07
1.979e-07
-5.96897e-07
2.09462e-07
2.2034e-07
5.70618e-10
-6.3501e-09
1.3425e-09
-1.31554e-08
1.65784e-09
-1.54964e-08
1.04942e-09
-1.44265e-08
-8.21778e-10
-1.07649e-08
-4.20628e-09
-5.16398e-09
-9.29759e-09
1.87729e-09
-1.62551e-08
9.99288e-09
-2.52196e-08
1.89264e-08
-3.63235e-08
2.85088e-08
-4.96968e-08
3.86382e-08
-6.54707e-08
4.92624e-08
-8.37782e-08
6.03635e-08
-1.04754e-07
7.19454e-08
-1.28532e-07
8.40237e-08
-1.55244e-07
9.66165e-08
-1.85014e-07
1.09738e-07
-2.17957e-07
1.2339e-07
-2.54169e-07
1.37562e-07
-2.93728e-07
1.52218e-07
-3.36679e-07
1.67302e-07
-3.83036e-07
1.82725e-07
-4.32771e-07
1.98374e-07
-4.85807e-07
2.141e-07
-5.42016e-07
2.29729e-07
-6.01214e-07
2.45053e-07
-6.63157e-07
2.59844e-07
-7.27544e-07
2.73849e-07
2.86813e-07
2.39811e-10
-6.58992e-09
1.26848e-10
-1.30425e-08
-9.08227e-10
-1.44613e-08
-3.26515e-09
-1.20696e-08
-7.22786e-09
-6.80223e-09
-1.30059e-08
6.14057e-10
-2.07659e-08
9.63725e-09
-3.06535e-08
1.98805e-08
-4.28073e-08
3.10802e-08
-5.7367e-08
4.30685e-08
-7.44768e-08
5.5748e-08
-9.42865e-08
6.90721e-08
-1.1695e-07
8.30266e-08
-1.42621e-07
9.76167e-08
-1.71453e-07
1.12855e-07
-2.03589e-07
1.28753e-07
-2.39163e-07
1.45312e-07
-2.78289e-07
1.62516e-07
-3.21056e-07
1.80329e-07
-3.67523e-07
1.98685e-07
-4.17709e-07
2.17488e-07
-4.71589e-07
2.36605e-07
-5.29085e-07
2.5587e-07
-5.90063e-07
2.75078e-07
-6.54328e-07
2.93993e-07
-7.21621e-07
3.12346e-07
-7.91619e-07
3.29843e-07
-8.63941e-07
3.46172e-07
3.61021e-07
-1.51689e-10
-6.43823e-09
-1.30425e-09
-1.18899e-08
-3.91764e-09
-1.18479e-08
-8.29702e-09
-7.69017e-09
-1.46544e-08
-4.44835e-10
-2.31455e-08
9.10509e-09
-3.3903e-08
2.03948e-08
-4.70539e-08
3.30314e-08
-6.27321e-08
4.67585e-08
-8.10832e-08
6.14196e-08
-1.02265e-07
7.69297e-08
-1.26444e-07
9.32515e-08
-1.53794e-07
1.10376e-07
-1.84486e-07
1.28309e-07
-2.18686e-07
1.47055e-07
-2.56547e-07
1.66614e-07
-2.98203e-07
1.86968e-07
-3.43762e-07
2.08075e-07
-3.93295e-07
2.29862e-07
-4.46833e-07
2.52223e-07
-5.04358e-07
2.75013e-07
-5.65796e-07
2.98043e-07
-6.3101e-07
3.21084e-07
-6.99801e-07
3.43869e-07
-7.71898e-07
3.6609e-07
-8.46965e-07
3.87414e-07
-9.24605e-07
4.07482e-07
-1.00436e-06
4.25924e-07
4.4238e-07
-6.00443e-10
-5.83779e-09
-2.94113e-09
-9.54924e-09
-7.34231e-09
-7.44672e-09
-1.39957e-08
-1.0368e-09
-2.30222e-08
8.58172e-09
-3.45156e-08
2.05985e-08
-4.85652e-08
3.44443e-08
-6.52759e-08
4.97421e-08
-8.4775e-08
6.62576e-08
-1.07213e-07
8.38574e-08
-1.32759e-07
1.02476e-07
-1.61598e-07
1.2209e-07
-1.93917e-07
1.42695e-07
-2.29903e-07
1.64294e-07
-2.6973e-07
1.86882e-07
-3.13554e-07
2.10438e-07
-3.61502e-07
2.34916e-07
-4.13664e-07
2.60237e-07
-4.70087e-07
2.86285e-07
-5.30764e-07
3.129e-07
-5.95629e-07
3.39877e-07
-6.64549e-07
3.66963e-07
-7.37323e-07
3.93858e-07
-8.13677e-07
4.20223e-07
-8.93268e-07
4.45681e-07
-9.75683e-07
4.69829e-07
-1.06045e-06
4.9225e-07
-1.14705e-06
5.12521e-07
5.30246e-07
-1.10578e-09
-4.73201e-09
-4.77344e-09
-5.88159e-09
-1.11582e-08
-1.06195e-09
-2.03147e-08
8.11964e-09
-3.22607e-08
2.05278e-08
-4.70135e-08
3.53512e-08
-6.46148e-08
5.20457e-08
-8.5144e-08
7.02714e-08
-1.0872e-07
8.98337e-08
-1.35497e-07
1.10635e-07
-1.65657e-07
1.32636e-07
-1.99396e-07
1.55829e-07
-2.36917e-07
1.80216e-07
-2.78414e-07
2.05791e-07
-3.24065e-07
2.32533e-07
-3.7402e-07
2.60393e-07
-4.28391e-07
2.89287e-07
-4.87243e-07
3.1909e-07
-5.50587e-07
3.49629e-07
-6.18369e-07
3.80682e-07
-6.90466e-07
4.11974e-07
-7.66681e-07
4.43178e-07
-8.46742e-07
4.73919e-07
-9.30301e-07
5.03782e-07
-1.01694e-06
5.32321e-07
-1.10618e-06
5.59069e-07
-1.19749e-06
5.83556e-07
-1.29028e-06
6.05318e-07
6.23934e-07
-1.66619e-09
-3.06582e-09
-6.79299e-09
-7.54789e-10
-1.53411e-08
7.4862e-09
-2.72104e-08
1.99889e-08
-4.22973e-08
3.56147e-08
-6.05348e-08
5.35887e-08
-8.19115e-08
7.34224e-08
-1.06479e-07
9.48385e-08
-1.34346e-07
1.17701e-07
-1.65671e-07
1.41959e-07
-2.00643e-07
1.67609e-07
-2.39473e-07
1.94659e-07
-2.8237e-07
2.23113e-07
-3.29533e-07
2.52954e-07
-3.81135e-07
2.84136e-07
-4.37314e-07
3.16572e-07
-4.98158e-07
3.5013e-07
-5.63696e-07
3.84628e-07
-6.33894e-07
4.19827e-07
-7.08644e-07
4.55432e-07
-7.87759e-07
4.91089e-07
-8.70972e-07
5.26392e-07
-9.57941e-07
5.60887e-07
-1.04824e-06
5.94086e-07
-1.1414e-06
6.25474e-07
-1.23686e-06
6.54532e-07
-1.33405e-06
6.80744e-07
-1.43235e-06
7.03621e-07
7.22728e-07
-2.28014e-09
-7.85674e-10
-8.98801e-09
5.95307e-09
-1.98662e-08
1.83643e-08
-3.46339e-08
3.47566e-08
-5.30547e-08
5.40355e-08
-7.49684e-08
7.55024e-08
-1.00306e-07
9.87603e-08
-1.2909e-07
1.23622e-07
-1.61418e-07
1.50029e-07
-1.9745e-07
1.77992e-07
-2.37385e-07
2.07544e-07
-2.81439e-07
2.38713e-07
-3.29827e-07
2.71501e-07
-3.82745e-07
3.05872e-07
-4.40355e-07
3.41746e-07
-5.02771e-07
3.78988e-07
-5.70048e-07
4.17408e-07
-6.42175e-07
4.56755e-07
-7.19063e-07
4.96715e-07
-8.0054e-07
5.3691e-07
-8.86354e-07
5.76903e-07
-9.76168e-07
6.16206e-07
-1.06957e-06
6.54286e-07
-1.16606e-06
6.90583e-07
-1.26512e-06
7.24526e-07
-1.36613e-06
7.55548e-07
-1.46849e-06
7.83104e-07
-1.57156e-06
8.0669e-07
8.25875e-07
-2.94372e-09
2.15804e-09
-1.13475e-08
1.43569e-08
-2.47023e-08
3.17192e-08
-4.25297e-08
5.2584e-08
-6.44461e-08
7.59519e-08
-9.01917e-08
1.01248e-07
-1.19637e-07
1.28206e-07
-1.52772e-07
1.56757e-07
-1.89685e-07
1.86942e-07
-2.30535e-07
2.18843e-07
-2.75528e-07
2.52536e-07
-3.24883e-07
2.88067e-07
-3.78813e-07
3.25431e-07
-4.37504e-07
3.64564e-07
-5.011e-07
4.05341e-07
-5.69683e-07
4.47571e-07
-6.43268e-07
4.90994e-07
-7.21792e-07
5.35279e-07
-8.05106e-07
5.80028e-07
-8.92974e-07
6.24777e-07
-9.85071e-07
6.69001e-07
-1.08099e-06
7.12127e-07
-1.18026e-06
7.5355e-07
-1.28232e-06
7.92644e-07
-1.38658e-06
8.28789e-07
-1.49242e-06
8.61385e-07
-1.59919e-06
8.89871e-07
-1.70624e-06
9.1374e-07
9.32576e-07
-3.65422e-09
5.81226e-09
-1.38544e-08
2.45571e-08
-2.98125e-08
4.76773e-08
-5.08327e-08
7.36042e-08
-7.63733e-08
1.01492e-07
-1.06069e-07
1.30943e-07
-1.39725e-07
1.61862e-07
-1.77302e-07
1.94333e-07
-2.18875e-07
2.28515e-07
-2.64603e-07
2.64571e-07
-3.14693e-07
3.02626e-07
-3.69363e-07
3.42737e-07
-4.28819e-07
3.84887e-07
-4.93232e-07
4.28976e-07
-5.62714e-07
4.74823e-07
-6.37312e-07
5.22169e-07
-7.1699e-07
5.70672e-07
-8.01628e-07
6.19917e-07
-8.91013e-07
6.69413e-07
-9.8484e-07
7.18604e-07
-1.08272e-06
7.66877e-07
-1.18417e-06
8.13579e-07
-1.28865e-06
8.58036e-07
-1.39558e-06
8.99568e-07
-1.5043e-06
9.37515e-07
-1.61418e-06
9.71257e-07
-1.72453e-06
1.00023e-06
-1.83472e-06
1.02393e-06
1.04197e-06
-4.40597e-09
1.02182e-08
-1.64878e-08
3.66389e-08
-3.51521e-08
6.63415e-08
-5.94678e-08
9.792e-08
-8.87251e-08
1.3075e-07
-1.22448e-07
1.64666e-07
-1.60377e-07
1.99792e-07
-2.02439e-07
2.36395e-07
-2.48698e-07
2.74773e-07
-2.9931e-07
3.15183e-07
-3.54478e-07
3.57794e-07
-4.14416e-07
4.02676e-07
-4.79317e-07
4.49788e-07
-5.49323e-07
4.98983e-07
-6.24515e-07
5.50015e-07
-7.04892e-07
6.02545e-07
-7.90364e-07
6.56144e-07
-8.80746e-07
7.103e-07
-9.75759e-07
7.64426e-07
-1.07503e-06
8.17874e-07
-1.1781e-06
8.69944e-07
-1.28443e-06
9.19909e-07
-1.39342e-06
9.67032e-07
-1.50445e-06
1.01059e-06
-1.61683e-06
1.0499e-06
-1.72989e-06
1.08432e-06
-1.84296e-06
1.1133e-06
-1.95538e-06
1.13635e-06
1.15313e-06
-5.19189e-09
1.54101e-08
-1.92228e-08
5.06698e-08
-4.0669e-08
8.77877e-08
-6.83496e-08
1.25601e-07
-1.01378e-07
1.63778e-07
-1.39164e-07
2.02452e-07
-1.81382e-07
2.42011e-07
-2.27926e-07
2.82939e-07
-2.78846e-07
3.25693e-07
-3.34292e-07
3.70628e-07
-3.94462e-07
4.17965e-07
-4.59559e-07
4.67773e-07
-5.29753e-07
5.19981e-07
-6.05155e-07
5.74386e-07
-6.85804e-07
6.30664e-07
-7.71645e-07
6.88387e-07
-8.62529e-07
7.47028e-07
-9.58205e-07
8.05976e-07
-1.05832e-06
8.64546e-07
-1.16245e-06
9.21997e-07
-1.27005e-06
9.77547e-07
-1.38054e-06
1.0304e-06
-1.49327e-06
1.07977e-06
-1.60758e-06
1.12489e-06
-1.72275e-06
1.16507e-06
-1.83809e-06
1.19967e-06
-1.95294e-06
1.22814e-06
-2.06662e-06
1.25004e-06
1.26503e-06
-6.00359e-09
2.14137e-08
-2.20299e-08
6.66961e-08
-4.63041e-08
1.12062e-07
-7.73824e-08
1.56679e-07
-1.14196e-07
2.00591e-07
-1.56037e-07
2.44293e-07
-2.02516e-07
2.88489e-07
-2.5349e-07
3.33913e-07
-3.08994e-07
3.81198e-07
-3.69172e-07
4.30806e-07
-4.3421e-07
4.83003e-07
-5.04292e-07
5.37855e-07
-5.79562e-07
5.95251e-07
-6.60093e-07
6.54916e-07
-7.45872e-07
7.16443e-07
-8.36788e-07
7.79303e-07
-9.32628e-07
8.42868e-07
-1.03307e-06
9.06422e-07
-1.13771e-06
9.69181e-07
-1.24603e-06
1.03031e-06
-1.35745e-06
1.08897e-06
-1.47132e-06
1.14428e-06
-1.58697e-06
1.19541e-06
-1.70367e-06
1.2416e-06
-1.82072e-06
1.28212e-06
-1.9374e-06
1.31634e-06
-2.05302e-06
1.34376e-06
-2.16693e-06
1.36394e-06
1.3766e-06
-6.83129e-09
2.8245e-08
-2.48758e-08
8.47406e-08
-5.19913e-08
1.39177e-07
-8.64624e-08
1.9115e-07
-1.27033e-07
2.41162e-07
-1.72879e-07
2.90139e-07
-2.23541e-07
3.39152e-07
-2.78845e-07
3.89217e-07
-3.38809e-07
4.41161e-07
-4.03561e-07
4.95558e-07
-4.73274e-07
5.52716e-07
-5.4811e-07
6.12691e-07
-6.28175e-07
6.75316e-07
-7.13499e-07
7.4024e-07
-8.04015e-07
8.06959e-07
-8.9955e-07
8.74838e-07
-9.99824e-07
9.43142e-07
-1.10445e-06
1.01105e-06
-1.21295e-06
1.07768e-06
-1.32475e-06
1.14212e-06
-1.43921e-06
1.20343e-06
-1.55565e-06
1.26071e-06
-1.67334e-06
1.3131e-06
-1.79154e-06
1.3598e-06
-1.90951e-06
1.40008e-06
-2.02652e-06
1.43336e-06
-2.14188e-06
1.45912e-06
-2.25493e-06
1.477e-06
-7.66395e-09
3.59089e-08
-2.77238e-08
1.048e-07
-5.76593e-08
1.69113e-07
-9.54781e-08
2.28969e-07
-1.39736e-07
2.85419e-07
-1.8949e-07
3.39893e-07
-2.44216e-07
3.93878e-07
-3.03703e-07
4.48704e-07
-3.67948e-07
5.05406e-07
-4.37066e-07
5.64676e-07
-5.11209e-07
6.26859e-07
-5.90506e-07
6.91988e-07
-6.75026e-07
7.59836e-07
-7.64747e-07
8.29962e-07
-8.59545e-07
9.01756e-07
-9.59181e-07
9.74475e-07
-1.06331e-06
1.04727e-06
-1.17148e-06
1.11922e-06
-1.28314e-06
1.18934e-06
-1.39766e-06
1.25664e-06
-1.51436e-06
1.32013e-06
-1.6325e-06
1.37886e-06
-1.75133e-06
1.43193e-06
-1.87007e-06
1.47854e-06
-1.98797e-06
1.51798e-06
-2.10429e-06
1.54968e-06
-2.21833e-06
1.57315e-06
1.5881e-06
-8.48942e-09
4.43984e-08
-3.05343e-08
1.26845e-07
-6.32324e-08
2.01811e-07
-1.04313e-07
2.7005e-07
-1.52145e-07
3.33251e-07
-2.05668e-07
3.93416e-07
-2.64292e-07
4.52502e-07
-3.27768e-07
5.12179e-07
-3.96072e-07
5.7371e-07
-4.69297e-07
6.37902e-07
-5.4757e-07
7.05131e-07
-6.30984e-07
7.75402e-07
-7.19564e-07
8.48415e-07
-8.13232e-07
9.2363e-07
-9.11802e-07
1.00033e-06
-1.01497e-06
1.07764e-06
-1.12233e-06
1.15462e-06
-1.23335e-06
1.23024e-06
-1.34743e-06
1.30342e-06
-1.46389e-06
1.3731e-06
-1.58199e-06
1.43823e-06
-1.70095e-06
1.49782e-06
-1.82e-06
1.55097e-06
-1.93832e-06
1.59687e-06
-2.05516e-06
1.63482e-06
-2.16976e-06
1.66428e-06
-2.28143e-06
1.68481e-06
1.69616e-06
-9.29479e-09
5.36932e-08
-3.32659e-08
1.50816e-07
-6.8632e-08
2.37177e-07
-1.12849e-07
3.14266e-07
-1.64099e-07
3.84502e-07
-2.2121e-07
4.50527e-07
-2.83522e-07
5.14814e-07
-3.5075e-07
5.79407e-07
-4.22844e-07
6.45804e-07
-4.99871e-07
7.1493e-07
-5.81927e-07
7.87187e-07
-6.69066e-07
8.62541e-07
-7.61261e-07
9.4061e-07
-8.58378e-07
1.02075e-06
-9.60166e-07
1.10211e-06
-1.06626e-06
1.18374e-06
-1.17617e-06
1.26454e-06
-1.28933e-06
1.3434e-06
-1.40507e-06
1.41916e-06
-1.52265e-06
1.49068e-06
-1.6413e-06
1.55688e-06
-1.7602e-06
1.61673e-06
-1.87854e-06
1.66931e-06
-1.9955e-06
1.71383e-06
-2.1103e-06
1.74962e-06
-2.22218e-06
1.77616e-06
-2.33046e-06
1.79309e-06
1.80019e-06
-1.00666e-08
6.37598e-08
-3.58758e-08
1.76626e-07
-7.37786e-08
2.7508e-07
-1.20965e-07
3.61453e-07
-1.75438e-07
4.38975e-07
-2.35913e-07
5.11002e-07
-3.01664e-07
5.80565e-07
-3.72366e-07
6.50109e-07
-4.47939e-07
7.21377e-07
-5.28421e-07
7.95412e-07
-6.13871e-07
8.72637e-07
-7.04299e-07
9.52969e-07
-7.99623e-07
1.03593e-06
-8.99652e-07
1.12078e-06
-1.00407e-06
1.20653e-06
-1.11244e-06
1.29211e-06
-1.22423e-06
1.37633e-06
-1.33879e-06
1.45796e-06
-1.45541e-06
1.53577e-06
-1.57329e-06
1.60857e-06
-1.69164e-06
1.67522e-06
-1.80959e-06
1.73468e-06
-1.92632e-06
1.78604e-06
-2.041e-06
1.82851e-06
-2.15282e-06
1.86145e-06
-2.26105e-06
1.88439e-06
-2.36501e-06
1.89704e-06
1.89925e-06
-1.07913e-08
7.4551e-08
-3.83216e-08
2.04156e-07
-7.85932e-08
3.15352e-07
-1.28543e-07
4.11403e-07
-1.86005e-07
4.96437e-07
-2.49583e-07
5.7458e-07
-3.18487e-07
6.49469e-07
-3.92347e-07
7.2397e-07
-4.71051e-07
8.00081e-07
-5.54602e-07
8.78963e-07
-6.43019e-07
9.61054e-07
-7.36264e-07
1.04621e-06
-8.34199e-07
1.13387e-06
-9.36572e-07
1.22315e-06
-1.043e-06
1.31296e-06
-1.153e-06
1.40211e-06
-1.26595e-06
1.48928e-06
-1.38117e-06
1.57318e-06
-1.49789e-06
1.65248e-06
-1.61528e-06
1.72596e-06
-1.73249e-06
1.79243e-06
-1.84865e-06
1.85085e-06
-1.96291e-06
1.9003e-06
-2.07443e-06
1.94002e-06
-2.18242e-06
1.96944e-06
-2.28615e-06
1.98812e-06
-2.38497e-06
1.99586e-06
1.9926e-06
-1.14553e-08
8.60063e-08
-4.05614e-08
2.33262e-07
-8.29992e-08
3.57789e-07
-1.35472e-07
4.63875e-07
-1.9565e-07
5.56615e-07
-2.62036e-07
6.40966e-07
-3.3377e-07
7.21203e-07
-4.1044e-07
8.00639e-07
-4.91893e-07
8.81534e-07
-5.78097e-07
9.65167e-07
-6.69024e-07
1.05198e-06
-7.64585e-07
1.14177e-06
-8.64587e-07
1.23387e-06
-9.68716e-07
1.32728e-06
-1.07653e-06
1.42078e-06
-1.18748e-06
1.51305e-06
-1.3009e-06
1.6027e-06
-1.41604e-06
1.68832e-06
-1.53209e-06
1.76854e-06
-1.6482e-06
1.84207e-06
-1.76349e-06
1.90771e-06
-1.87706e-06
1.96442e-06
-1.98804e-06
2.01129e-06
-2.09562e-06
2.0476e-06
-2.19901e-06
2.07283e-06
-2.29752e-06
2.08663e-06
-2.39054e-06
2.08888e-06
2.07964e-06
-1.20457e-08
9.8052e-08
-4.25554e-08
2.63772e-07
-8.6924e-08
4.02158e-07
-1.41643e-07
5.18594e-07
-2.04234e-07
6.19207e-07
-2.73099e-07
7.09831e-07
-3.47313e-07
7.95417e-07
-4.26414e-07
8.79739e-07
-5.10208e-07
9.65329e-07
-5.9862e-07
1.05358e-06
-6.91576e-07
1.14494e-06
-7.88933e-07
1.23913e-06
-8.90441e-07
1.33538e-06
-9.95727e-07
1.43256e-06
-1.10429e-06
1.52935e-06
-1.21552e-06
1.62428e-06
-1.32871e-06
1.71589e-06
-1.44306e-06
1.80267e-06
-1.55773e-06
1.8832e-06
-1.67182e-06
1.95616e-06
-1.78443e-06
2.02033e-06
-1.89468e-06
2.07466e-06
-2.00168e-06
2.11829e-06
-2.10463e-06
2.15055e-06
-2.20279e-06
2.17098e-06
-2.2955e-06
2.17934e-06
-2.38222e-06
2.1756e-06
2.15996e-06
-1.25506e-08
1.10603e-07
-4.42668e-08
2.95488e-07
-9.03007e-08
4.48192e-07
-1.46959e-07
5.75252e-07
-2.1163e-07
6.83877e-07
-2.82619e-07
7.8082e-07
-3.58936e-07
8.71734e-07
-4.40065e-07
9.60869e-07
-5.2577e-07
1.05103e-06
-6.15927e-07
1.14374e-06
-7.10413e-07
1.23942e-06
-8.09032e-07
1.33775e-06
-9.11478e-07
1.43783e-06
-1.01732e-06
1.5384e-06
-1.126e-06
1.63803e-06
-1.23687e-06
1.73515e-06
-1.34915e-06
1.82817e-06
-1.46203e-06
1.91555e-06
-1.57462e-06
1.99579e-06
-1.68601e-06
2.06755e-06
-1.79528e-06
2.1296e-06
-1.90155e-06
2.18093e-06
-2.00397e-06
2.2207e-06
-2.10173e-06
2.24832e-06
-2.19416e-06
2.26341e-06
-2.28066e-06
2.26584e-06
-2.36077e-06
2.25571e-06
2.23336e-06
-1.29589e-08
1.23562e-07
-4.56622e-08
3.28191e-07
-9.30694e-08
4.95599e-07
-1.51334e-07
6.33516e-07
-2.17724e-07
7.50268e-07
-2.9046e-07
8.53556e-07
-3.6848e-07
9.49754e-07
-4.51218e-07
1.04361e-06
-5.38385e-07
1.1382e-06
-6.29811e-07
1.23516e-06
-7.25319e-07
1.33493e-06
-8.24662e-07
1.43709e-06
-9.27479e-07
1.54064e-06
-1.03328e-06
1.64421e-06
-1.14148e-06
1.74622e-06
-1.25134e-06
1.84502e-06
-1.36209e-06
1.93892e-06
-1.47286e-06
2.02631e-06
-1.58274e-06
2.10567e-06
-1.69081e-06
2.17562e-06
-1.79616e-06
2.23496e-06
-1.89791e-06
2.28268e-06
-1.99523e-06
2.31803e-06
-2.08739e-06
2.34047e-06
-2.17374e-06
2.34976e-06
-2.25377e-06
2.34588e-06
-2.32713e-06
2.32907e-06
2.29982e-06
-1.32613e-08
1.36823e-07
-4.67131e-08
3.61643e-07
-9.51785e-08
5.44065e-07
-1.54692e-07
6.93029e-07
-2.22422e-07
8.17999e-07
-2.96506e-07
9.27639e-07
-3.75816e-07
1.02906e-06
-4.59728e-07
1.12752e-06
-5.479e-07
1.22637e-06
-6.4011e-07
1.32737e-06
-7.36131e-07
1.43095e-06
-8.35662e-07
1.53662e-06
-9.38291e-07
1.64327e-06
-1.04348e-06
1.7494e-06
-1.15059e-06
1.85333e-06
-1.25887e-06
1.95329e-06
-1.36749e-06
2.04754e-06
-1.47556e-06
2.13438e-06
-1.58217e-06
2.21228e-06
-1.68639e-06
2.27984e-06
-1.78733e-06
2.33589e-06
-1.88412e-06
2.37947e-06
-1.97598e-06
2.40989e-06
-2.06223e-06
2.42673e-06
-2.14231e-06
2.42984e-06
-2.2158e-06
2.41936e-06
-2.28243e-06
2.3957e-06
2.35948e-06
-1.345e-08
1.50273e-07
-4.73958e-08
3.95589e-07
-9.65857e-08
5.93255e-07
-1.56973e-07
7.53417e-07
-2.25646e-07
8.86673e-07
-3.00667e-07
1.00266e-06
-3.80841e-07
1.10924e-06
-4.65483e-07
1.21216e-06
-5.54197e-07
1.31509e-06
-6.46708e-07
1.41988e-06
-7.42735e-07
1.52698e-06
-8.41929e-07
1.63582e-06
-9.4383e-07
1.74517e-06
-1.04786e-06
1.85343e-06
-1.15333e-06
1.9588e-06
-1.25947e-06
2.05943e-06
-1.36541e-06
2.15348e-06
-1.47027e-06
2.23924e-06
-1.57312e-06
2.31513e-06
-1.67305e-06
2.37977e-06
-1.76917e-06
2.43202e-06
-1.86068e-06
2.47097e-06
-1.94684e-06
2.49604e-06
-2.02703e-06
2.50692e-06
-2.10079e-06
2.5036e-06
-2.16779e-06
2.48636e-06
-2.22787e-06
2.45578e-06
2.41265e-06
-1.35193e-08
1.63792e-07
-4.76924e-08
4.29762e-07
-9.72584e-08
6.42821e-07
-1.5813e-07
8.14288e-07
-2.27337e-07
9.5588e-07
-3.02874e-07
1.0782e-06
-3.8348e-07
1.18984e-06
-4.68407e-07
1.29709e-06
-5.57201e-07
1.40388e-06
-6.49532e-07
1.51221e-06
-7.45072e-07
1.62252e-06
-8.4342e-07
1.73417e-06
-9.44075e-07
1.84583e-06
-1.04642e-06
1.95578e-06
-1.14974e-06
2.06212e-06
-1.25323e-06
2.16292e-06
-1.35603e-06
2.25628e-06
-1.45722e-06
2.34044e-06
-1.55591e-06
2.41381e-06
-1.65118e-06
2.47505e-06
-1.74221e-06
2.52304e-06
-1.82822e-06
2.55698e-06
-1.90854e-06
2.57637e-06
-1.98266e-06
2.58103e-06
-2.05017e-06
2.57112e-06
-2.11088e-06
2.54707e-06
-2.16471e-06
2.50962e-06
2.45972e-06
-1.34653e-08
1.77257e-07
-4.7591e-08
4.63888e-07
-9.7175e-08
6.92404e-07
-1.58133e-07
8.75246e-07
-2.27457e-07
1.0252e-06
-3.03083e-07
1.15382e-06
-3.83686e-07
1.27045e-06
-4.68454e-07
1.38185e-06
-5.56873e-07
1.4923e-06
-6.48558e-07
1.6039e-06
-7.4313e-07
1.71709e-06
-8.40147e-07
1.83118e-06
-9.39069e-07
1.94475e-06
-1.03925e-06
2.05596e-06
-1.13995e-06
2.16282e-06
-1.24035e-06
2.26332e-06
-1.33957e-06
2.3555e-06
-1.43673e-06
2.43759e-06
-1.53092e-06
2.50801e-06
-1.62129e-06
2.56541e-06
-1.70703e-06
2.60878e-06
-1.78743e-06
2.63739e-06
-1.86191e-06
2.65086e-06
-1.93003e-06
2.64915e-06
-1.9915e-06
2.63258e-06
-2.0462e-06
2.60177e-06
-2.09419e-06
2.5576e-06
2.50121e-06
-1.32864e-08
1.90544e-07
-4.70857e-08
4.97687e-07
-9.63242e-08
7.41643e-07
-1.56964e-07
9.35886e-07
-2.25985e-07
1.09422e-06
-3.01274e-07
1.22911e-06
-3.81443e-07
1.35062e-06
-4.65615e-07
1.46603e-06
-5.53214e-07
1.5799e-06
-6.43799e-07
1.69448e-06
-7.36947e-07
1.81024e-06
-8.32175e-07
1.92641e-06
-9.28912e-07
2.04149e-06
-1.02649e-06
2.15354e-06
-1.12415e-06
2.26048e-06
-1.22106e-06
2.36023e-06
-1.31637e-06
2.45081e-06
-1.40919e-06
2.53041e-06
-1.49864e-06
2.59746e-06
-1.58392e-06
2.65069e-06
-1.66428e-06
2.68914e-06
-1.73907e-06
2.71218e-06
-1.8078e-06
2.71958e-06
-1.87011e-06
2.71146e-06
-1.92582e-06
2.68829e-06
-1.9749e-06
2.65085e-06
-2.01751e-06
2.60021e-06
2.53764e-06
-1.2983e-08
2.03527e-07
-4.61767e-08
5.30881e-07
-9.47055e-08
7.90172e-07
-1.54623e-07
9.95804e-07
-2.22921e-07
1.16252e-06
-2.9745e-07
1.30364e-06
-3.76761e-07
1.42993e-06
-4.5991e-07
1.54918e-06
-5.46259e-07
1.66625e-06
-6.35313e-07
1.78354e-06
-7.26606e-07
1.90153e-06
-8.19619e-07
2.01943e-06
-9.13757e-07
2.13562e-06
-1.00833e-06
2.24811e-06
-1.10258e-06
2.35473e-06
-1.19569e-06
2.45334e-06
-1.28679e-06
2.54191e-06
-1.37504e-06
2.61865e-06
-1.4596e-06
2.68202e-06
-1.5397e-06
2.73079e-06
-1.61466e-06
2.7641e-06
-1.68393e-06
2.78145e-06
-1.74707e-06
2.78273e-06
-1.80384e-06
2.76823e-06
-1.85413e-06
2.73858e-06
-1.89803e-06
2.69475e-06
-1.93578e-06
2.63796e-06
2.56961e-06
-1.25576e-08
2.16084e-07
-4.48703e-08
5.63194e-07
-9.2329e-08
8.37631e-07
-1.51124e-07
1.0546e-06
-2.18286e-07
1.22968e-06
-2.91638e-07
1.37699e-06
-3.69676e-07
1.50797e-06
-4.51389e-07
1.63089e-06
-5.36077e-07
1.75094e-06
-6.23194e-07
1.87065e-06
-7.12229e-07
1.99057e-06
-8.02637e-07
2.10983e-06
-8.93802e-07
2.22679e-06
-9.8503e-07
2.33934e-06
-1.07556e-06
2.44526e-06
-1.16458e-06
2.54236e-06
-1.25126e-06
2.62859e-06
-1.33477e-06
2.70217e-06
-1.41434e-06
2.76159e-06
-1.48925e-06
2.8057e-06
-1.55889e-06
2.83374e-06
-1.62277e-06
2.84533e-06
-1.68057e-06
2.84053e-06
-1.73212e-06
2.81977e-06
-1.7774e-06
2.78387e-06
-1.81659e-06
2.73394e-06
-1.85001e-06
2.67137e-06
2.59768e-06
-1.20147e-08
2.28099e-07
-4.31786e-08
5.94357e-07
-8.92144e-08
8.83666e-07
-1.46495e-07
1.11188e-06
-2.12114e-07
1.2953e-06
-2.83884e-07
1.44876e-06
-3.60249e-07
1.58433e-06
-4.40132e-07
1.71077e-06
-5.2277e-07
1.83358e-06
-6.07567e-07
1.95545e-06
-6.93974e-07
2.07697e-06
-7.81422e-07
2.19728e-06
-8.69284e-07
2.31465e-06
-9.56863e-07
2.42692e-06
-1.04341e-06
2.53181e-06
-1.12813e-06
2.62708e-06
-1.21022e-06
2.71069e-06
-1.28891e-06
2.78086e-06
-1.36346e-06
2.83614e-06
-1.43323e-06
2.87547e-06
-1.49767e-06
2.89818e-06
-1.55639e-06
2.90405e-06
-1.60913e-06
2.89327e-06
-1.65581e-06
2.86646e-06
-1.69652e-06
2.82458e-06
-1.73149e-06
2.76891e-06
-1.76109e-06
2.70097e-06
2.6224e-06
-1.13606e-08
2.39459e-07
-4.11189e-08
6.24116e-07
-8.5391e-08
9.27938e-07
-1.40776e-07
1.16727e-06
-2.04459e-07
1.35898e-06
-2.74255e-07
1.51856e-06
-3.48562e-07
1.65864e-06
-4.26239e-07
1.78845e-06
-5.06464e-07
1.9138e-06
-5.88588e-07
2.03757e-06
-6.72031e-07
2.16042e-06
-7.56203e-07
2.28146e-06
-8.40472e-07
2.39892e-06
-9.24149e-07
2.5106e-06
-1.0065e-06
2.61415e-06
-1.08676e-06
2.70733e-06
-1.16416e-06
2.78809e-06
-1.23798e-06
2.85468e-06
-1.30755e-06
2.90571e-06
-1.37227e-06
2.9402e-06
-1.4317e-06
2.95761e-06
-1.4855e-06
2.95785e-06
-1.53351e-06
2.94128e-06
-1.57572e-06
2.90867e-06
-1.61228e-06
2.86114e-06
-1.6435e-06
2.80013e-06
-1.6698e-06
2.72727e-06
2.6443e-06
-1.06032e-08
2.50063e-07
-3.87135e-08
6.52226e-07
-8.08965e-08
9.70121e-07
-1.3402e-07
1.22039e-06
-1.95388e-07
1.42035e-06
-2.62834e-07
1.58601e-06
-3.34718e-07
1.73052e-06
-4.09837e-07
1.86357e-06
-4.87309e-07
1.99127e-06
-5.66438e-07
2.1167e-06
-6.46613e-07
2.24059e-06
-7.27232e-07
2.36207e-06
-8.07661e-07
2.47935e-06
-8.87225e-07
2.59016e-06
-9.65213e-07
2.69214e-06
-1.0409e-06
2.78302e-06
-1.11356e-06
2.86076e-06
-1.18252e-06
2.92364e-06
-1.24718e-06
2.97036e-06
-1.30701e-06
3.00003e-06
-1.36163e-06
3.01223e-06
-1.4108e-06
3.00701e-06
-1.45441e-06
2.98489e-06
-1.49254e-06
2.94679e-06
-1.52539e-06
2.89399e-06
-1.55332e-06
2.82806e-06
-1.57678e-06
2.75073e-06
2.66384e-06
-9.75189e-09
2.59815e-07
-3.59888e-08
6.78463e-07
-7.57762e-08
1.00991e-06
-1.2629e-07
1.2709e-06
-1.84982e-07
1.47905e-06
-2.49722e-07
1.65074e-06
-3.18837e-07
1.79964e-06
-3.91068e-07
1.9358e-06
-4.65475e-07
2.06568e-06
-5.41318e-07
2.19255e-06
-6.17957e-07
2.31723e-06
-6.9478e-07
2.4389e-06
-7.71161e-07
2.55573e-06
-8.46445e-07
2.66544e-06
-9.1995e-07
2.76565e-06
-9.90991e-07
2.85406e-06
-1.0589e-06
2.92867e-06
-1.12306e-06
2.9878e-06
-1.18291e-06
3.03022e-06
-1.23803e-06
3.05515e-06
-1.28809e-06
3.06229e-06
-1.33291e-06
3.05184e-06
-1.37248e-06
3.02446e-06
-1.4069e-06
2.98122e-06
-1.43646e-06
2.92355e-06
-1.46152e-06
2.85312e-06
-1.48257e-06
2.77178e-06
2.68143e-06
-8.81729e-09
2.68632e-07
-3.29752e-08
7.02621e-07
-7.00821e-08
1.04702e-06
-1.17659e-07
1.31848e-06
-1.73335e-07
1.53472e-06
-2.3503e-07
1.71244e-06
-3.01052e-07
1.86566e-06
-3.70091e-07
2.00484e-06
-4.41149e-07
2.13674e-06
-5.13443e-07
2.26484e-06
-5.8631e-07
2.3901e-06
-6.59132e-07
2.51172e-06
-7.31296e-07
2.62789e-06
-8.02169e-07
2.73632e-06
-8.71109e-07
2.83459e-06
-9.37476e-07
2.92043e-06
-1.00065e-06
2.99184e-06
-1.06009e-06
3.04723e-06
-1.11529e-06
3.08542e-06
-1.16589e-06
3.10574e-06
-1.21163e-06
3.10803e-06
-1.25242e-06
3.09262e-06
-1.28827e-06
3.06031e-06
-1.31936e-06
3.01231e-06
-1.346e-06
2.95018e-06
-1.36858e-06
2.8757e-06
-1.3876e-06
2.7908e-06
2.69742e-06
-7.81112e-09
2.76443e-07
-2.97065e-08
7.24516e-07
-6.38719e-08
1.08118e-06
-1.08209e-07
1.36282e-06
-1.60548e-07
1.58706e-06
-2.18883e-07
1.77078e-06
-2.81512e-07
1.92829e-06
-3.47077e-07
2.0704e-06
-4.14528e-07
2.20419e-06
-4.83042e-07
2.33335e-06
-5.51933e-07
2.45899e-06
-6.20583e-07
2.58037e-06
-6.88392e-07
2.6957e-06
-7.54761e-07
2.80269e-06
-8.19087e-07
2.89891e-06
-8.80779e-07
2.98212e-06
-9.3928e-07
3.05035e-06
-9.94092e-07
3.10204e-06
-1.0448e-06
3.13613e-06
-1.09109e-06
3.15204e-06
-1.13278e-06
3.14972e-06
-1.16982e-06
3.12966e-06
-1.20228e-06
3.09277e-06
-1.23038e-06
3.04041e-06
-1.25444e-06
2.97424e-06
-1.27489e-06
2.89615e-06
-1.2922e-06
2.80811e-06
2.71212e-06
-6.74572e-09
-2.62191e-08
-5.72089e-08
1.11217e-06
-9.80263e-08
1.40363e-06
-1.46733e-07
1.63577e-06
-2.01414e-07
1.82546e-06
-2.60371e-07
1.98724e-06
-3.22206e-07
2.13224e-06
-3.8582e-07
2.2678e-06
-4.5035e-07
2.39788e-06
-5.15092e-07
2.52373e-06