/*--------------------------------*- C++ -*----------------------------------*\
  =========                 |
  \\      /  F ield         | OpenFOAM: The Open Source CFD Toolbox
   \\    /   O peration     | Website:  https://openfoam.org
    \\  /    A nd           | Version:  9
     \\/     M anipulation  |
\*---------------------------------------------------------------------------*/
FoamFile
{
    format      ascii;
    class       volVectorField;
    location    "2";
    object      U;
}
// * * * * * * * * * * * * * * * * * * * * * * * * * * * * * * * * * * * * * //

dimensions      [0 1 -1 0 0 0 0];

internalField   nonuniform List<vector> 
1250
(
(-1.32591e-06 1.30179e-06 0)
(3.03869e-05 -1.82204e-05 0)
(0.000112817 -3.283e-05 0)
(0.000218533 -3.93678e-05 0)
(0.000331625 -4.03466e-05 0)
(0.000441044 -3.79661e-05 0)
(0.000539365 -3.37049e-05 0)
(0.00062211 -2.85167e-05 0)
(0.000686838 -2.29768e-05 0)
(0.00073238 -1.74061e-05 0)
(0.000758306 -1.19659e-05 0)
(0.000764623 -6.77274e-06 0)
(0.000751491 -1.76612e-06 0)
(0.000719003 3.09139e-06 0)
(0.000667152 7.86369e-06 0)
(0.00059574 1.26326e-05 0)
(0.000504338 1.74867e-05 0)
(0.000392277 2.25149e-05 0)
(0.000258657 2.78022e-05 0)
(0.00010236 3.3427e-05 0)
(-7.79135e-05 3.94585e-05 0)
(-0.000283613 4.59552e-05 0)
(-0.000516287 5.29625e-05 0)
(-0.00077753 6.0511e-05 0)
(-0.00106893 6.8615e-05 0)
(-0.00139198 7.7271e-05 0)
(-0.00174805 8.64527e-05 0)
(-0.00213826 9.61047e-05 0)
(-0.00256339 0.000106161 0)
(1.84293e-05 -3.05172e-05 0)
(0.000116845 -0.000116386 0)
(0.00030653 -0.000175691 0)
(0.000537208 -0.000203016 0)
(0.000778211 -0.00020577 0)
(0.0010077 -0.000191528 0)
(0.00120924 -0.000166277 0)
(0.00137153 -0.000134389 0)
(0.00148741 -9.88441e-05 0)
(0.00155257 -6.15552e-05 0)
(0.00156445 -2.36396e-05 0)
(0.00152174 1.44583e-05 0)
(0.00142363 5.24772e-05 0)
(0.00126922 9.05361e-05 0)
(0.00105756 0.000128927 0)
(0.000787332 0.000168031 0)
(0.000456761 0.000208273 0)
(6.35962e-05 0.000250089 0)
(-0.000394882 0.000293888 0)
(-0.000921809 0.000340034 0)
(-0.00152065 0.000388826 0)
(-0.00219509 0.000440479 0)
(-0.00294889 0.000495111 0)
(-0.00378576 0.000552733 0)
(-0.00470915 0.00061323 0)
(-0.0057221 0.000676358 0)
(-0.00682702 0.000741723 0)
(-0.00802547 0.000808767 0)
(-0.00931797 0.000876836 0)
(3.35505e-05 -0.000113657 0)
(0.000177473 -0.000306572 0)
(0.000431469 -0.000429721 0)
(0.000727914 -0.000484279 0)
(0.00102774 -0.000483925 0)
(0.00130373 -0.000443202 0)
(0.00153445 -0.000374572 0)
(0.0017043 -0.000287726 0)
(0.00180259 -0.000189662 0)
(0.00182218 -8.50988e-05 0)
(0.00175838 2.30532e-05 0)
(0.00160783 0.000133356 0)
(0.00136786 0.000245124 0)
(0.00103617 0.000358487 0)
(0.000610194 0.000474026 0)
(8.69723e-05 0.000592582 0)
(-0.000536978 0.000715116 0)
(-0.00126569 0.00084261 0)
(-0.00210373 0.000975974 0)
(-0.00305608 0.00111598 0)
(-0.004128 0.00126321 0)
(-0.00532486 0.001418 0)
(-0.0066519 0.00158039 0)
(-0.00811396 0.0017501 0)
(-0.00971525 0.00192649 0)
(-0.011459 0.00210855 0)
(-0.0133472 0.00229484 0)
(-0.0153802 0.00248349 0)
(-0.0175564 0.00267235 0)
(4.06945e-05 -0.000221074 0)
(0.000205601 -0.000538234 0)
(0.000485103 -0.000726216 0)
(0.000798763 -0.000800736 0)
(0.00110196 -0.000784808 0)
(0.00136453 -0.000701121 0)
(0.00156249 -0.000569168 0)
(0.00167783 -0.000404352 0)
(0.00169758 -0.000218038 0)
(0.0016124 -1.80463e-05 0)
(0.00141543 0.000190681 0)
(0.00110127 0.000405352 0)
(0.000665295 0.000624958 0)
(0.000103153 0.000849578 0)
(-0.000589696 0.00108006 0)
(-0.00141818 0.00131771 0)
(-0.00238773 0.00156405 0)
(-0.00350427 0.00182058 0)
(-0.00477416 0.00208869 0)
(-0.00620402 0.00236945 0)
(-0.00780054 0.00266353 0)
(-0.00957021 0.00297114 0)
(-0.011519 0.00329189 0)
(-0.0136518 0.00362473 0)
(-0.0159727 0.00396795 0)
(-0.0184836 0.00431907 0)
(-0.0211846 0.00467482 0)
(-0.0240733 0.00503117 0)
(-0.0271444 0.00538354 0)
(4.20589e-05 -0.000336215 0)
(0.000206867 -0.000778193 0)
(0.000476529 -0.00102156 0)
(0.000764391 -0.00110116 0)
(0.00102278 -0.00105197 0)
(0.0012201 -0.000905857 0)
(0.00133133 -0.000689579 0)
(0.00133736 -0.000424164 0)
(0.00122386 -0.000125191 0)
(0.000979858 0.000196539 0)
(0.000596626 0.000534131 0)
(6.67459e-05 0.000883723 0)
(-0.000616541 0.00124379 0)
(-0.00145981 0.0016144 0)
(-0.00246982 0.00199667 0)
(-0.00365365 0.00239231 0)
(-0.00501877 0.00280331 0)
(-0.006573 0.00323158 0)
(-0.00832436 0.00367874 0)
(-0.0102808 0.00414589 0)
(-0.01245 0.00463347 0)
(-0.0148388 0.00514106 0)
(-0.0174532 0.00566732 0)
(-0.0202972 0.00620979 0)
(-0.0233732 0.00676491 0)
(-0.0266807 0.00732792 0)
(-0.0302166 0.00789282 0)
(-0.0339738 0.00845244 0)
(-0.0379419 0.00899879 0)
(3.94796e-05 -0.000446386 0)
(0.000186935 -0.000999736 0)
(0.000415586 -0.00128062 0)
(0.000639303 -0.00134472 0)
(0.000810023 -0.00124048 0)
(0.000896042 -0.00100964 0)
(0.000872479 -0.000686256 0)
(0.000720065 -0.000296695 0)
(0.000423824 0.000139645 0)
(-2.83652e-05 0.000609367 0)
(-0.000646857 0.00110395 0)
(-0.00144102 0.00161868 0)
(-0.00241978 0.00215166 0)
(-0.00359202 0.00270299 0)
(-0.0049668 0.00327401 0)
(-0.0065534 0.00386677 0)
(-0.00836133 0.00448352 0)
(-0.0104002 0.0051263 0)
(-0.0126793 0.00579665 0)
(-0.0152075 0.00649526 0)
(-0.0179929 0.00722179 0)
(-0.0210421 0.00797459 0)
(-0.0243598 0.00875061 0)
(-0.0279483 0.00954518 0)
(-0.031807 0.010352 0)
(-0.0359317 0.011163 0)
(-0.0403143 0.0119686 0)
(-0.0449421 0.0127574 0)
(-0.0497978 0.0135171 0)
(3.4082e-05 -0.000541497 0)
(0.000149972 -0.00117929 0)
(0.000310372 -0.00147115 0)
(0.000435699 -0.00149344 0)
(0.000480161 -0.00130855 0)
(0.000413343 -0.000968166 0)
(0.000211578 -0.00051334 0)
(-0.000143757 2.47407e-05 0)
(-0.000667733 0.000623485 0)
(-0.00137327 0.00126747 0)
(-0.00227213 0.00194703 0)
(-0.00337555 0.0026569 0)
(-0.00469461 0.00339506 0)
(-0.00624051 0.00416169 0)
(-0.00802458 0.00495832 0)
(-0.0100582 0.00578713 0)
(-0.0123528 0.00665037 0)
(-0.0149194 0.00754985 0)
(-0.0177683 0.00848649 0)
(-0.0209088 0.00946 0)
(-0.0243483 0.0104686 0)
(-0.0280924 0.0115085 0)
(-0.0321436 0.0125741 0)
(-0.0365012 0.0136577 0)
(-0.0411603 0.0147491 0)
(-0.0461118 0.0158361 0)
(-0.0513414 0.0169042 0)
(-0.0568293 0.0179371 0)
(-0.0625507 0.0189175 0)
(2.64979e-05 -0.000613463 0)
(9.87469e-05 -0.00129647 0)
(0.000166863 -0.00156421 0)
(0.000162998 -0.00151278 0)
(4.61978e-05 -0.00121798 0)
(-0.000211222 -0.000740908 0)
(-0.000630667 -0.000128901 0)
(-0.00122938 0.000582864 0)
(-0.00202206 0.00136942 0)
(-0.00302216 0.00221407 0)
(-0.00424271 0.00310656 0)
(-0.00569671 0.00404153 0)
(-0.00739737 0.00501703 0)
(-0.00935809 0.00603339 0)
(-0.0115924 0.00709221 0)
(-0.0141136 0.00819557 0)
(-0.0169347 0.00934531 0)
(-0.0200676 0.0105425 0)
(-0.0235231 0.0117867 0)
(-0.0273101 0.0130761 0)
(-0.0314348 0.0144063 0)
(-0.0359004 0.0157709 0)
(-0.0407063 0.0171605 0)
(-0.0458474 0.0185631 0)
(-0.0513136 0.0199639 0)
(-0.0570894 0.0213454 0)
(-0.0631536 0.0226876 0)
(-0.0694783 0.0239684 0)
(-0.0760309 0.025165 0)
(1.70407e-05 -0.000655428 0)
(3.49501e-05 -0.00133332 0)
(-1.0843e-05 -0.00153396 0)
(-0.000171876 -0.0013715 0)
(-0.000481858 -0.00093407 0)
(-0.000964322 -0.000291038 0)
(-0.00163737 0.000505156 0)
(-0.00251621 0.00141648 0)
(-0.00361478 0.00241664 0)
(-0.00494686 0.00348853 0)
(-0.00652659 0.00462201 0)
(-0.0083687 0.00581203 0)
(-0.0104884 0.00705696 0)
(-0.0129012 0.00835726 0)
(-0.0156225 0.00971444 0)
(-0.0186674 0.0111301 0)
(-0.0220497 0.0126051 0)
(-0.0257821 0.0141391 0)
(-0.0298748 0.0157298 0)
(-0.0343355 0.0173726 0)
(-0.0391682 0.0190599 0)
(-0.0443727 0.0207811 0)
(-0.0499442 0.0225223 0)
(-0.055872 0.0242662 0)
(-0.0621399 0.0259924 0)
(-0.0687252 0.0276772 0)
(-0.075599 0.0292945 0)
(-0.0827252 0.0308162 0)
(-0.0900634 0.0322136 0)
(5.85643e-06 -0.000661181 0)
(-4.04801e-05 -0.00127366 0)
(-0.000220052 -0.00135681 0)
(-0.000563852 -0.00104107 0)
(-0.00109622 -0.00042518 0)
(-0.0018351 0.000414977 0)
(-0.00279434 0.00142341 0)
(-0.0039865 0.00256072 0)
(-0.00542442 0.00380055 0)
(-0.00712203 0.00512638 0)
(-0.00909452 0.00652895 0)
(-0.0113582 0.00800393 0)
(-0.0139303 0.00955016 0)
(-0.016828 0.0111682 0)
(-0.0200685 0.0128591 0)
(-0.0236678 0.0146236 0)
(-0.0276406 0.0164609 0)
(-0.031999 0.0183684 0)
(-0.0367522 0.0203411 0)
(-0.0419055 0.0223704 0)
(-0.0474598 0.0244446 0)
(-0.0534105 0.026548 0)
(-0.0597474 0.028661 0)
(-0.0664536 0.03076 0)
(-0.0735056 0.0328182 0)
(-0.0808733 0.0348053 0)
(-0.0885198 0.0366887 0)
(-0.0964013 0.0384342 0)
(-0.10447 0.0400081 0)
(-7.08476e-06 -0.00062486 0)
(-0.000126998 -0.00110238 0)
(-0.000458833 -0.00101097 0)
(-0.0010091 -0.000495285 0)
(-0.00179052 0.000337651 0)
(-0.00281424 0.00140758 0)
(-0.00408898 0.00265704 0)
(-0.00562408 0.00404708 0)
(-0.00743104 0.00555273 0)
(-0.00952379 0.00715922 0)
(-0.0119185 0.00885885 0)
(-0.014633 0.0106485 0)
(-0.017686 0.0125275 0)
(-0.0210966 0.0144963 0)
(-0.024883 0.0165551 0)
(-0.0290619 0.0187031 0)
(-0.0336476 0.0209372 0)
(-0.0386513 0.0232517 0)
(-0.04408 0.0256374 0)
(-0.0499358 0.0280813 0)
(-0.0562154 0.030566 0)
(-0.0629088 0.0330698 0)
(-0.0699995 0.0355664 0)
(-0.0774637 0.0380255 0)
(-0.0852706 0.040413 0)
(-0.0933822 0.0426919 0)
(-0.101754 0.0448234 0)
(-0.110336 0.0467676 0)
(-0.119074 0.0484864 0)
(-2.17761e-05 -0.000540779 0)
(-0.000224239 -0.000805165 0)
(-0.0007257 -0.00047621 0)
(-0.00150425 0.000289929 0)
(-0.00255901 0.00138067 0)
(-0.00389314 0.00271408 0)
(-0.00550935 0.00423379 0)
(-0.00741337 0.00590335 0)
(-0.00961514 0.00770087 0)
(-0.0121285 0.0096145 0)
(-0.0149705 0.0116389 0)
(-0.0181603 0.0137723 0)
(-0.0217181 0.0160147 0)
(-0.0256642 0.0183661 0)
(-0.0300173 0.0208254 0)
(-0.0347942 0.0233892 0)
(-0.0400081 0.0260513 0)
(-0.0456682 0.0288019 0)
(-0.0517784 0.0316267 0)
(-0.0583369 0.0345069 0)
(-0.0653348 0.0374186 0)
(-0.0727563 0.0403331 0)
(-0.080578 0.0432168 0)
(-0.0887687 0.0460319 0)
(-0.0972901 0.0487372 0)
(-0.106097 0.0512892 0)
(-0.115139 0.0536431 0)
(-0.124359 0.0557544 0)
(-0.133699 0.0575818 0)
(-3.82366e-05 -0.00040337 0)
(-0.000331887 -0.0003685 0)
(-0.00101921 0.000266317 0)
(-0.00204607 0.00133652 0)
(-0.00339603 0.00272737 0)
(-0.00506308 0.00435862 0)
(-0.0070433 0.00617783 0)
(-0.00933844 0.00815347 0)
(-0.0119567 0.0102685 0)
(-0.0149118 0.0125153 0)
(-0.0182215 0.0148914 0)
(-0.0219062 0.017397 0)
(-0.0259872 0.0200323 0)
(-0.0304853 0.0227964 0)
(-0.0354196 0.0256861 0)
(-0.0408056 0.028695 0)
(-0.0466551 0.0318123 0)
(-0.0529741 0.0350231 0)
(-0.0597626 0.0383071 0)
(-0.0670137 0.0416386 0)
(-0.0747125 0.0449863 0)
(-0.0828367 0.0483137 0)
(-0.0913555 0.0515794 0)
(-0.100231 0.0547381 0)
(-0.109417 0.0577417 0)
(-0.118862 0.0605405 0)
(-0.12851 0.063085 0)
(-0.1383 0.0653272 0)
(-0.148171 0.067224 0)
(-5.64796e-05 -0.000207209 0)
(-0.000449488 0.000220493 0)
(-0.00133771 0.00123399 0)
(-0.00263102 0.00266427 0)
(-0.0042954 0.00439856 0)
(-0.00631473 0.0063621 0)
(-0.0086779 0.00850969 0)
(-0.0113824 0.0108174 0)
(-0.0144346 0.0132749 0)
(-0.017848 0.0158801 0)
(-0.021641 0.0186341 0)
(-0.0258348 0.0215389 0)
(-0.0304515 0.0245948 0)
(-0.0355121 0.0277995 0)
(-0.0410348 0.0311467 0)
(-0.0470338 0.0346258 0)
(-0.0535177 0.0382208 0)
(-0.0604891 0.0419105 0)
(-0.0679429 0.0456672 0)
(-0.0758665 0.0494576 0)
(-0.0842385 0.0532424 0)
(-0.0930295 0.0569766 0)
(-0.102202 0.0606111 0)
(-0.11171 0.0640931 0)
(-0.121502 0.0673683 0)
(-0.131521 0.0703819 0)
(-0.141706 0.0730806 0)
(-0.151993 0.0754145 0)
(-0.16232 0.0773398 0)
(-7.63862e-05 5.29608e-05 0)
(-0.000576445 0.00097371 0)
(-0.00167929 0.00244245 0)
(-0.00325495 0.00429058 0)
(-0.00525012 0.00641204 0)
(-0.00763774 0.00874192 0)
(-0.010399 0.011246 0)
(-0.0135269 0.0139108 0)
(-0.017026 0.0167348 0)
(-0.0209095 0.0197225 0)
(-0.0251961 0.0228791 0)
(-0.0299078 0.0262085 0)
(-0.0350668 0.0297106 0)
(-0.0406935 0.0333808 0)
(-0.0468047 0.0372089 0)
(-0.0534122 0.0411789 0)
(-0.0605211 0.0452687 0)
(-0.0681291 0.0494493 0)
(-0.0762257 0.0536853 0)
(-0.0847918 0.0579348 0)
(-0.0937994 0.0621497 0)
(-0.103212 0.066277 0)
(-0.112984 0.0702594 0)
(-0.123065 0.0740377 0)
(-0.133397 0.0775518 0)
(-0.143919 0.0807432 0)
(-0.154566 0.0835562 0)
(-0.165273 0.0859401 0)
(-0.175977 0.087852 0)
(-9.79506e-05 0.000382002 0)
(-0.000712022 0.00190182 0)
(-0.00204143 0.00390546 0)
(-0.00391288 0.00623025 0)
(-0.00625216 0.00878237 0)
(-0.00902049 0.0115118 0)
(-0.012191 0.0143993 0)
(-0.0157521 0.0174449 0)
(-0.0197064 0.0206581 0)
(-0.0240667 0.0240509 0)
(-0.028852 0.0276333 0)
(-0.0340844 0.0314105 0)
(-0.0397857 0.0353815 0)
(-0.0459753 0.0395386 0)
(-0.0526678 0.0438665 0)
(-0.0598714 0.0483432 0)
(-0.067587 0.0529386 0)
(-0.0758069 0.0576159 0)
(-0.0845145 0.0623305 0)
(-0.0936839 0.0670316 0)
(-0.10328 0.0716622 0)
(-0.113259 0.076161 0)
(-0.123571 0.0804637 0)
(-0.134157 0.084505 0)
(-0.144957 0.0882203 0)
(-0.155904 0.0915485 0)
(-0.166933 0.0944327 0)
(-0.177976 0.0968228 0)
(-0.188971 0.0986779 0)
(-0.000121019 0.000784277 0)
(-0.000855134 0.00301424 0)
(-0.00242105 0.00563455 0)
(-0.00459899 0.00849512 0)
(-0.00729233 0.0115207 0)
(-0.0104499 0.0146815 0)
(-0.0140367 0.0179779 0)
(-0.0180362 0.0214266 0)
(-0.0224493 0.02505 0)
(-0.027288 0.0288688 0)
(-0.0325714 0.0328977 0)
(-0.0383214 0.0371432 0)
(-0.0445588 0.0416026 0)
(-0.051301 0.0462639 0)
(-0.0585597 0.0511059 0)
(-0.0663391 0.056099 0)
(-0.0746348 0.0612049 0)
(-0.0834332 0.0663774 0)
(-0.0927112 0.0715626 0)
(-0.102436 0.0767003 0)
(-0.112566 0.0817249 0)
(-0.12305 0.0865671 0)
(-0.133832 0.0911561 0)
(-0.14485 0.0954216 0)
(-0.156038 0.0992958 0)
(-0.167328 0.102716 0)
(-0.178652 0.105625 0)
(-0.189942 0.107976 0)
(-0.201137 0.109728 0)
(-0.000145377 0.0012636 0)
(-0.00100443 0.00431865 0)
(-0.0028145 0.00763875 0)
(-0.00530653 0.0110939 0)
(-0.00836025 0.0146343 0)
(-0.0119117 0.0182568 0)
(-0.0159173 0.0219858 0)
(-0.0203559 0.0258579 0)
(-0.0252263 0.0299104 0)
(-0.0305399 0.0341738 0)
(-0.0363154 0.0386675 0)
(-0.0425737 0.0433988 0)
(-0.0493343 0.0483621 0)
(-0.056612 0.0535404 0)
(-0.0644145 0.0589054 0)
(-0.0727413 0.0644189 0)
(-0.0815824 0.0700333 0)
(-0.0909179 0.0756925 0)
(-0.100718 0.0813331 0)
(-0.110942 0.0868854 0)
(-0.121543 0.0922753 0)
(-0.132463 0.0974264 0)
(-0.143642 0.102262 0)
(-0.155011 0.106708 0)
(-0.166503 0.110695 0)
(-0.178047 0.114158 0)
(-0.189575 0.117044 0)
(-0.201016 0.119304 0)
(-0.212312 0.120905 0)
(-0.000170766 0.001823 0)
(-0.00115831 0.00582082 0)
(-0.00321753 0.00992421 0)
(-0.0060279 0.0140316 0)
(-0.00944445 0.0181268 0)
(-0.0133901 0.0222391 0)
(-0.0178127 0.0264222 0)
(-0.0226864 0.0307359 0)
(-0.0280078 0.0352344 0)
(-0.0337874 0.0399584 0)
(-0.0400432 0.0449323 0)
(-0.0467947 0.050163 0)
(-0.0540592 0.0556417 0)
(-0.0618482 0.0613448 0)
(-0.0701649 0.0672359 0)
(-0.0790036 0.0732674 0)
(-0.088348 0.0793817 0)
(-0.0981716 0.0855124 0)
(-0.108437 0.0915862 0)
(-0.119099 0.0975243 0)
(-0.130102 0.103245 0)
(-0.141384 0.108664 0)
(-0.152878 0.113701 0)
(-0.164514 0.11828 0)
(-0.176221 0.122328 0)
(-0.187926 0.125783 0)
(-0.199559 0.128591 0)
(-0.211051 0.130708 0)
(-0.222341 0.132104 0)
(-0.000196871 0.00246459 0)
(-0.00131491 0.00752424 0)
(-0.0036254 0.0124939 0)
(-0.00675469 0.0173099 0)
(-0.0105325 0.0219973 0)
(-0.0148685 0.0266255 0)
(-0.0197017 0.0312818 0)
(-0.0250018 0.0360531 0)
(-0.0307629 0.0410117 0)
(-0.0369945 0.0462096 0)
(-0.0437132 0.0516755 0)
(-0.0509369 0.0574156 0)
(-0.0586798 0.0634163 0)
(-0.0669494 0.0696467 0)
(-0.0757441 0.0760613 0)
(-0.0850522 0.0826021 0)
(-0.094851 0.089201 0)
(-0.105107 0.0957812 0)
(-0.115777 0.102259 0)
(-0.126807 0.108548 0)
(-0.138138 0.114558 0)
(-0.149701 0.1202 0)
(-0.161427 0.125389 0)
(-0.173241 0.130047 0)
(-0.185068 0.134102 0)
(-0.196836 0.137491 0)
(-0.208473 0.140164 0)
(-0.219909 0.142081 0)
(-0.231084 0.143215 0)
(-0.000223324 0.00318946 0)
(-0.00147216 0.00942995 0)
(-0.00403287 0.0153475 0)
(-0.00747788 0.0209261 0)
(-0.0116112 0.0262411 0)
(-0.0163292 0.0314085 0)
(-0.0215623 0.036555 0)
(-0.0272753 0.041797 0)
(-0.0334601 0.0472273 0)
(-0.0401245 0.0529091 0)
(-0.0472835 0.0588752 0)
(-0.0549526 0.0651302 0)
(-0.0631425 0.0716547 0)
(-0.071856 0.0784095 0)
(-0.0810863 0.0853389 0)
(-0.0908153 0.0923741 0)
(-0.101014 0.099436 0)
(-0.111641 0.106437 0)
(-0.122648 0.113285 0)
(-0.133974 0.119883 0)
(-0.145554 0.126136 0)
(-0.157315 0.13195 0)
(-0.169184 0.137237 0)
(-0.181083 0.141917 0)
(-0.192935 0.145918 0)
(-0.204665 0.149181 0)
(-0.2162 0.151658 0)
(-0.227474 0.153314 0)
(-0.000249711 0.00399749 0)
(-0.00162779 0.0115363 0)
(-0.00443436 0.0184812 0)
(-0.00818793 0.0248738 0)
(-0.0126669 0.030849 0)
(-0.0177542 0.0365765 0)
(-0.0233719 0.0422272 0)
(-0.0294799 0.0479505 0)
(-0.0360676 0.0538609 0)
(-0.0431408 0.0600333 0)
(-0.0507125 0.0665039 0)
(-0.0587949 0.0732749 0)
(-0.0673949 0.0803201 0)
(-0.0765103 0.0875907 0)
(-0.0861282 0.0950203 0)
(-0.0962241 0.102529 0)
(-0.106762 0.110026 0)
(-0.117695 0.117414 0)
(-0.128967 0.12459 0)
(-0.140513 0.131451 0)
(-0.15226 0.137896 0)
(-0.164134 0.143826 0)
(-0.176056 0.149152 0)
(-0.187945 0.153792 0)
(-0.199724 0.157678 0)
(-0.211315 0.160751 0)
(-0.222646 0.162966 0)
(-0.233649 0.164296 0)
(-0.000275583 0.00488734 0)
(-0.0017794 0.0138389 0)
(-0.00482405 0.0218872 0)
(-0.00887502 0.0291423 0)
(-0.0136855 0.0358075 0)
(-0.0191252 0.0421132 0)
(-0.025108 0.0482796 0)
(-0.0315889 0.0544921 0)
(-0.0385542 0.060888 0)
(-0.0460077 0.067554 0)
(-0.0539595 0.0745294 0)
(-0.0624184 0.0818128 0)
(-0.0713868 0.0893702 0)
(-0.0808569 0.0971426 0)
(-0.0908099 0.105052 0)
(-0.101215 0.113007 0)
(-0.112029 0.120906 0)
(-0.123198 0.12864 0)
(-0.134661 0.136099 0)
(-0.146347 0.143173 0)
(-0.158179 0.149753 0)
(-0.170078 0.15574 0)
(-0.181962 0.161042 0)
(-0.193748 0.165579 0)
(-0.205357 0.169282 0)
(-0.216711 0.172098 0)
(-0.227736 0.173986 0)
(-0.238367 0.174923 0)
(-0.000300464 0.00585632 0)
(-0.0019245 0.0163304 0)
(-0.00519598 0.0255542 0)
(-0.00952924 0.033717 0)
(-0.014653 0.0410989 0)
(-0.0204243 0.0479984 0)
(-0.0267485 0.0546894 0)
(-0.0335759 0.0613958 0)
(-0.0408896 0.0682794 0)
(-0.0486905 0.0754385 0)
(-0.0569857 0.0829147 0)
(-0.06578 0.0907021 0)
(-0.0750707 0.0987583 0)
(-0.0848446 0.107013 0)
(-0.0950762 0.115377 0)
(-0.105728 0.123746 0)
(-0.116752 0.132008 0)
(-0.128087 0.140044 0)
(-0.139665 0.147735 0)
(-0.151411 0.154965 0)
(-0.163245 0.161623 0)
(-0.175082 0.167604 0)
(-0.186839 0.172816 0)
(-0.198431 0.177182 0)
(-0.209777 0.180634 0)
(-0.220799 0.183124 0)
(-0.231424 0.184617 0)
(-0.241591 0.185096 0)
(-0.000323865 0.00690041 0)
(-0.00206059 0.0190005 0)
(-0.00554421 0.0294674 0)
(-0.0101408 0.0385792 0)
(-0.0155556 0.0467018 0)
(-0.0216336 0.0542078 0)
(-0.028272 0.0614296 0)
(-0.0354159 0.068632 0)
(-0.0430448 0.0760021 0)
(-0.0511567 0.0836499 0)
(-0.0597548 0.0916187 0)
(-0.0688396 0.0998975 0)
(-0.0784032 0.108434 0)
(-0.0884264 0.117147 0)
(-0.0988777 0.125934 0)
(-0.109713 0.13468 0)
(-0.120878 0.143261 0)
(-0.132305 0.15155 0)
(-0.143923 0.15942 0)
(-0.155651 0.166748 0)
(-0.167404 0.173419 0)
(-0.179095 0.179329 0)
(-0.190639 0.184385 0)
(-0.20195 0.18851 0)
(-0.212946 0.191643 0)
(-0.223551 0.19374 0)
(-0.233693 0.194772 0)
(-0.243316 0.194732 0)
(-0.000345299 0.00801419 0)
(-0.00218519 0.021836 0)
(-0.00586295 0.0336081 0)
(-0.0107002 0.0437066 0)
(-0.0163804 0.0525908 0)
(-0.0227367 0.0607135 0)
(-0.0296584 0.0684696 0)
(-0.0370852 0.0761673 0)
(-0.044993 0.0840194 0)
(-0.053376 0.092148 0)
(-0.0622334 0.100597 0)
(-0.0715609 0.10935 0)
(-0.0813452 0.118344 0)
(-0.0915612 0.127486 0)
(-0.102171 0.136662 0)
(-0.113125 0.145743 0)
(-0.124362 0.154597 0)
(-0.13581 0.163085 0)
(-0.147392 0.171076 0)
(-0.159024 0.178441 0)
(-0.170617 0.185062 0)
(-0.182083 0.190834 0)
(-0.193334 0.195665 0)
(-0.204284 0.199482 0)
(-0.214853 0.202229 0)
(-0.224965 0.203867 0)
(-0.234556 0.204378 0)
(-0.24357 0.203763 0)
(-0.000364293 0.00919096 0)
(-0.00229592 0.0248211 0)
(-0.0061467 0.0379544 0)
(-0.0111984 0.0490731 0)
(-0.0171148 0.0587369 0)
(-0.0237178 0.0674843 0)
(-0.0308889 0.0757757 0)
(-0.0385623 0.0839651 0)
(-0.0467097 0.0922919 0)
(-0.0553213 0.10089 0)
(-0.0643918 0.109803 0)
(-0.073912 0.119009 0)
(-0.083863 0.128433 0)
(-0.0942137 0.137971 0)
(-0.104921 0.147496 0)
(-0.115928 0.156868 0)
(-0.127168 0.165943 0)
(-0.138567 0.174577 0)
(-0.150041 0.182629 0)
(-0.161503 0.189968 0)
(-0.172862 0.196473 0)
(-0.184029 0.20204 0)
(-0.194914 0.20658 0)
(-0.205433 0.210023 0)
(-0.215508 0.212319 0)
(-0.225068 0.213439 0)
(-0.234052 0.213374 0)
(-0.242414 0.212138 0)
(-0.000380404 0.0104227 0)
(-0.0023906 0.0279372 0)
(-0.00639035 0.0424811 0)
(-0.0116274 0.0546495 0)
(-0.0177476 0.0651083 0)
(-0.0245628 0.0744857 0)
(-0.0319467 0.0833115 0)
(-0.0398279 0.0919864 0)
(-0.0481734 0.100777 0)
(-0.0569689 0.109829 0)
(-0.0662045 0.119187 0)
(-0.0758658 0.12882 0)
(-0.0859283 0.138645 0)
(-0.0963553 0.148542 0)
(-0.107097 0.158373 0)
(-0.118093 0.167988 0)
(-0.129272 0.177232 0)
(-0.140553 0.185953 0)
(-0.15185 0.194007 0)
(-0.163074 0.201257 0)
(-0.174132 0.207582 0)
(-0.184933 0.21288 0)
(-0.195389 0.217064 0)
(-0.205418 0.22007 0)
(-0.214946 0.221858 0)
(-0.223906 0.222407 0)
(-0.232247 0.221721 0)
(-0.239929 0.219827 0)
(-0.00039323 0.0117003 0)
(-0.00246722 0.0311634 0)
(-0.00658933 0.0471602 0)
(-0.0119796 0.0604038 0)
(-0.0182688 0.0716701 0)
(-0.0252593 0.0816812 0)
(-0.0328172 0.091038 0)
(-0.0408653 0.10019 0)
(-0.0493656 0.109432 0)
(-0.0582989 0.11892 0)
(-0.0676504 0.128699 0)
(-0.0774004 0.138731 0)
(-0.0875191 0.148921 0)
(-0.0979642 0.159138 0)
(-0.108681 0.169231 0)
(-0.119604 0.179039 0)
(-0.130657 0.188398 0)
(-0.141756 0.19715 0)
(-0.152813 0.205144 0)
(-0.163736 0.212243 0)
(-0.174432 0.218326 0)
(-0.18481 0.223292 0)
(-0.194785 0.22706 0)
(-0.204278 0.229575 0)
(-0.213219 0.230803 0)
(-0.221551 0.230738 0)
(-0.229228 0.229396 0)
(-0.236223 0.226819 0)
(-0.000402426 0.0130137 0)
(-0.00252408 0.0344768 0)
(-0.00673969 0.0519615 0)
(-0.0122488 0.0663013 0)
(-0.0186699 0.0783854 0)
(-0.0257967 0.0890317 0)
(-0.0334881 0.0989145 0)
(-0.0416607 0.108533 0)
(-0.0502712 0.11821 0)
(-0.0592953 0.128113 0)
(-0.068713 0.138287 0)
(-0.0784994 0.148687 0)
(-0.0886195 0.159206 0)
(-0.099026 0.169701 0)
(-0.10966 0.18001 0)
(-0.12045 0.18996 0)
(-0.131318 0.19938 0)
(-0.142177 0.208105 0)
(-0.152936 0.215981 0)
(-0.163502 0.222869 0)
(-0.173785 0.228651 0)
(-0.183693 0.233228 0)
(-0.193146 0.236527 0)
(-0.202069 0.2385 0)
(-0.2104 0.239127 0)
(-0.218088 0.238414 0)
(-0.225098 0.236393 0)
(-0.231414 0.23312 0)
(-0.00040771 0.0143517 0)
(-0.00255975 0.0378527 0)
(-0.0068382 0.0568522 0)
(-0.0124298 0.0723053 0)
(-0.0189439 0.0852151 0)
(-0.0261665 0.0964967 0)
(-0.0339495 0.106899 0)
(-0.0422033 0.116971 0)
(-0.0508788 0.127065 0)
(-0.0599463 0.13736 0)
(-0.0693807 0.147902 0)
(-0.079152 0.158636 0)
(-0.08922 0.169445 0)
(-0.0995331 0.180175 0)
(-0.110028 0.190651 0)
(-0.12063 0.200692 0)
(-0.131258 0.21012 0)
(-0.141823 0.218762 0)
(-0.152234 0.226464 0)
(-0.162397 0.233086 0)
(-0.172224 0.238512 0)
(-0.181627 0.242649 0)
(-0.190529 0.245432 0)
(-0.198861 0.246825 0)
(-0.20657 0.246819 0)
(-0.213615 0.245436 0)
(-0.219971 0.242723 0)
(-0.225631 0.238753 0)
(-0.000408875 0.0157027 0)
(-0.00257319 0.0412648 0)
(-0.00688236 0.0617983 0)
(-0.0125187 0.0783775 0)
(-0.0190854 0.0921189 0)
(-0.0263622 0.104034 0)
(-0.0341943 0.114948 0)
(-0.0424854 0.12546 0)
(-0.0511806 0.135951 0)
(-0.0602445 0.146614 0)
(-0.0696469 0.157492 0)
(-0.0793526 0.168524 0)
(-0.0893173 0.179585 0)
(-0.099485 0.190506 0)
(-0.109789 0.201102 0)
(-0.120152 0.211185 0)
(-0.130491 0.220567 0)
(-0.140715 0.229075 0)
(-0.150734 0.236549 0)
(-0.160456 0.242854 0)
(-0.169794 0.247875 0)
(-0.178666 0.251528 0)
(-0.187 0.253758 0)
(-0.194735 0.254539 0)
(-0.201824 0.25388 0)
(-0.208239 0.251815 0)
(-0.213965 0.248411 0)
(-0.219005 0.243755 0)
(-0.000405791 0.0170545 0)
(-0.0025637 0.0446861 0)
(-0.00687053 0.0667642 0)
(-0.0125126 0.0844785 0)
(-0.0190909 0.0990553 0)
(-0.0263797 0.111603 0)
(-0.0342178 0.123019 0)
(-0.0425025 0.133955 0)
(-0.0511723 0.144822 0)
(-0.0601865 0.155825 0)
(-0.0695094 0.167008 0)
(-0.0791014 0.178304 0)
(-0.0889139 0.189575 0)
(-0.0988876 0.200643 0)
(-0.108953 0.211314 0)
(-0.119031 0.221389 0)
(-0.129037 0.230677 0)
(-0.138881 0.239 0)
(-0.148473 0.2462 0)
(-0.157724 0.252141 0)
(-0.16655 0.256717 0)
(-0.174876 0.25985 0)
(-0.182635 0.261497 0)
(-0.189776 0.261648 0)
(-0.196261 0.260323 0)
(-0.20207 0.257578 0)
(-0.207201 0.253492 0)
(-0.211666 0.248171 0)
(-0.000398412 0.0183947 0)
(-0.00253096 0.0480887 0)
(-0.00680187 0.0717139 0)
(-0.0124103 0.0905679 0)
(-0.0189586 0.105982 0)
(-0.0262169 0.119158 0)
(-0.0340182 0.131067 0)
(-0.0422529 0.142412 0)
(-0.0508534 0.153634 0)
(-0.0597729 0.164949 0)
(-0.0689708 0.176405 0)
(-0.0784032 0.187927 0)
(-0.0880179 0.199368 0)
(-0.0977528 0.210541 0)
(-0.107536 0.221241 0)
(-0.117288 0.231263 0)
(-0.126924 0.240411 0)
(-0.136355 0.248505 0)
(-0.145492 0.255387 0)
(-0.154251 0.260926 0)
(-0.162553 0.265022 0)
(-0.170327 0.267609 0)
(-0.177515 0.268655 0)
(-0.184075 0.268164 0)
(-0.189978 0.266175 0)
(-0.195216 0.262758 0)
(-0.199794 0.258011 0)
(-0.203736 0.252054 0)
(-0.000386775 0.0197108 0)
(-0.00247503 0.0514447 0)
(-0.00667638 0.0766107 0)
(-0.0122117 0.0966052 0)
(-0.0186883 0.112858 0)
(-0.0258739 0.126659 0)
(-0.0335959 0.139051 0)
(-0.0417382 0.150788 0)
(-0.0502265 0.162341 0)
(-0.0590083 0.173941 0)
(-0.0680379 0.185636 0)
(-0.0772677 0.197348 0)
(-0.0866424 0.208921 0)
(-0.0960978 0.220157 0)
(-0.105561 0.230844 0)
(-0.114952 0.240771 0)
(-0.124187 0.249738 0)
(-0.133178 0.257563 0)
(-0.141841 0.264091 0)
(-0.150095 0.269196 0)
(-0.157866 0.272788 0)
(-0.165092 0.27481 0)
(-0.171722 0.275244 0)
(-0.177723 0.274111 0)
(-0.183076 0.271466 0)
(-0.187781 0.267396 0)
(-0.191855 0.262016 0)
(-0.195328 0.255461 0)
(-0.000370998 0.0209904 0)
(-0.00239635 0.0547263 0)
(-0.00649489 0.0814185 0)
(-0.011918 0.10255 0)
(-0.0182817 0.119641 0)
(-0.0253529 0.134063 0)
(-0.0329541 0.146928 0)
(-0.0409626 0.159041 0)
(-0.0492976 0.170902 0)
(-0.0579006 0.182759 0)
(-0.0667215 0.194662 0)
(-0.0757088 0.206528 0)
(-0.0848051 0.218194 0)
(-0.0939448 0.229455 0)
(-0.103055 0.24009 0)
(-0.112055 0.249883 0)
(-0.120864 0.258631 0)
(-0.129397 0.266154 0)
(-0.137572 0.272298 0)
(-0.145316 0.276947 0)
(-0.152559 0.280016 0)
(-0.159247 0.281463 0)
(-0.165339 0.281285 0)
(-0.170809 0.279518 0)
(-0.175648 0.276235 0)
(-0.179865 0.27154 0)
(-0.183484 0.265562 0)
(-0.186544 0.258449 0)
(-0.000351273 0.0222214 0)
(-0.00229571 0.0579062 0)
(-0.00625897 0.0861014 0)
(-0.0115314 0.108363 0)
(-0.017742 0.126289 0)
(-0.024658 0.141329 0)
(-0.0320979 0.154658 0)
(-0.0399329 0.16713 0)
(-0.0480754 0.179277 0)
(-0.0564611 0.191363 0)
(-0.0650355 0.203442 0)
(-0.0737441 0.215429 0)
(-0.0825276 0.227153 0)
(-0.0913197 0.238402 0)
(-0.100048 0.24895 0)
(-0.108634 0.258575 0)
(-0.116997 0.267073 0)
(-0.125058 0.274266 0)
(-0.132741 0.280004 0)
(-0.139974 0.284179 0)
(-0.146698 0.286716 0)
(-0.152866 0.287588 0)
(-0.158444 0.286805 0)
(-0.163416 0.284421 0)
(-0.167781 0.280525 0)
(-0.171555 0.275237 0)
(-0.174771 0.268701 0)
(-0.177472 0.261077 0)
(-0.000327864 0.0233925 0)
(-0.00217422 0.0609581 0)
(-0.00597097 0.0906247 0)
(-0.0110556 0.114005 0)
(-0.0170737 0.132764 0)
(-0.0237951 0.148416 0)
(-0.0310349 0.1622 0)
(-0.0386584 0.175016 0)
(-0.0465713 0.187429 0)
(-0.0547038 0.199717 0)
(-0.0629971 0.211942 0)
(-0.0713941 0.224017 0)
(-0.0798344 0.235766 0)
(-0.0882517 0.24697 0)
(-0.0965743 0.257399 0)
(-0.104727 0.266827 0)
(-0.112632 0.27505 0)
(-0.120214 0.281891 0)
(-0.127402 0.287209 0)
(-0.134132 0.2909 0)
(-0.140352 0.292905 0)
(-0.14602 0.293207 0)
(-0.151114 0.291835 0)
(-0.155622 0.288857 0)
(-0.159555 0.284378 0)
(-0.162933 0.278535 0)
(-0.165795 0.271484 0)
(-0.168189 0.263396 0)
(-0.000301096 0.0244929 0)
(-0.00203332 0.063857 0)
(-0.00563386 0.094955 0)
(-0.010495 0.119439 0)
(-0.0162829 0.139025 0)
(-0.0227716 0.155287 0)
(-0.0297742 0.169518 0)
(-0.0371502 0.182664 0)
(-0.044799 0.195321 0)
(-0.0526452 0.207787 0)
(-0.060626 0.22013 0)
(-0.0686822 0.232263 0)
(-0.0767528 0.244006 0)
(-0.0847721 0.255137 0)
(-0.0926706 0.265419 0)
(-0.100375 0.274626 0)
(-0.107814 0.282555 0)
(-0.114914 0.28903 0)
(-0.121612 0.293918 0)
(-0.12785 0.297125 0)
(-0.133583 0.298602 0)
(-0.138778 0.298349 0)
(-0.143417 0.296408 0)
(-0.1475 0.292865 0)
(-0.151041 0.287839 0)
(-0.154068 0.281482 0)
(-0.156623 0.273962 0)
(-0.158756 0.265458 0)
(-0.000271348 0.0255126 0)
(-0.00187467 0.0665795 0)
(-0.00525122 0.0990606 0)
(-0.00985518 0.124629 0)
(-0.0153768 0.145037 0)
(-0.0215967 0.161905 0)
(-0.0283267 0.176576 0)
(-0.0354214 0.190039 0)
(-0.0427739 0.202923 0)
(-0.0503036 0.215543 0)
(-0.0579438 0.227977 0)
(-0.0656336 0.24014 0)
(-0.0733118 0.251851 0)
(-0.0809143 0.262883 0)
(-0.0883738 0.272996 0)
(-0.0956214 0.281964 0)
(-0.102588 0.289583 0)
(-0.109209 0.295685 0)
(-0.115425 0.300141 0)
(-0.121186 0.302868 0)
(-0.126453 0.303831 0)
(-0.1312 0.303042 0)
(-0.135418 0.300559 0)
(-0.139112 0.296484 0)
(-0.142302 0.29095 0)
(-0.14502 0.284122 0)
(-0.14731 0.276178 0)
(-0.149226 0.267305 0)
(-0.000239043 0.0264428 0)
(-0.00170017 0.0691039 0)
(-0.00482713 0.102912 0)
(-0.00914229 0.129542 0)
(-0.0143637 0.150763 0)
(-0.0202805 0.168234 0)
(-0.0267048 0.183341 0)
(-0.0334866 0.19711 0)
(-0.0405134 0.210202 0)
(-0.047699 0.222956 0)
(-0.0549737 0.235458 0)
(-0.0622749 0.247627 0)
(-0.0695419 0.259282 0)
(-0.0767123 0.270193 0)
(-0.0837222 0.28012 0)
(-0.0905066 0.288835 0)
(-0.097002 0.296137 0)
(-0.103149 0.301862 0)
(-0.108894 0.30589 0)
(-0.114194 0.308149 0)
(-0.119017 0.308615 0)
(-0.123345 0.307315 0)
(-0.127174 0.304322 0)
(-0.130515 0.299751 0)
(-0.13339 0.293751 0)
(-0.135838 0.286496 0)
(-0.137903 0.278173 0)
(-0.139637 0.268976 0)
(-0.000204643 0.0272757 0)
(-0.00151195 0.0714107 0)
(-0.00436617 0.106482 0)
(-0.00836334 0.134144 0)
(-0.0132528 0.156171 0)
(-0.0188344 0.174243 0)
(-0.0249218 0.189781 0)
(-0.0313617 0.203847 0)
(-0.0380357 0.217134 0)
(-0.0448529 0.230001 0)
(-0.0517401 0.24255 0)
(-0.0586338 0.254705 0)
(-0.065474 0.266284 0)