/*--------------------------------*- C++ -*----------------------------------*\
  =========                 |
  \\      /  F ield         | OpenFOAM: The Open Source CFD Toolbox
   \\    /   O peration     | Website:  https://openfoam.org
    \\  /    A nd           | Version:  9
     \\/     M anipulation  |
\*---------------------------------------------------------------------------*/
FoamFile
{
    format      ascii;
    class       volScalarField;
    location    "0.25";
    object      p;
}
// * * * * * * * * * * * * * * * * * * * * * * * * * * * * * * * * * * * * * //

dimensions      [0 2 -2 0 0 0 0];

internalField   nonuniform List<scalar> 
1250
(
0.00047807
0.000522138
0.000567935
0.000615459
0.0006647
0.00071564
0.000768255
0.000822519
0.000878401
0.000935868
0.000994882
0.0010554
0.00111738
0.00118076
0.0012455
0.00131153
0.0013788
0.00144722
0.00151673
0.00158725
0.0016587
0.00173099
0.00180402
0.0018777
0.00195192
0.00202658
0.00210157
0.00217676
0.00225205
0.0023273
0.00240237
0.00247717
0.00255155
0.000488916
0.000532766
0.000578328
0.000625606
0.000674591
0.00072526
0.000777589
0.000831552
0.000887118
0.000944252
0.00100292
0.00106307
0.00112466
0.00118764
0.00125196
0.00131756
0.00138436
0.00145231
0.00152133
0.00159135
0.00166227
0.00173401
0.00180648
0.00187957
0.0019532
0.00202725
0.00210161
0.00217616
0.00225079
0.00232537
0.00239976
0.00247385
0.00254754
0.000495763
0.000539455
0.000584843
0.00063194
0.000680737
0.000731211
0.000783338
0.000837089
0.000892434
0.000949338
0.00100776
0.00106767
0.001129
0.00119172
0.00125576
0.00132107
0.00138758
0.00145522
0.00152393
0.00159362
0.00166421
0.0017356
0.00180772
0.00188046
0.00195372
0.00202739
0.00210137
0.00217553
0.00224976
0.00232393
0.00239791
0.00247158
0.00254487
0.000500291
0.000543853
0.000589095
0.00063604
0.000684683
0.000734999
0.000786963
0.000840547
0.00089572
0.000952448
0.00101069
0.00107041
0.00113155
0.00119408
0.00125792
0.00132302
0.00138933
0.00145676
0.00152525
0.00159472
0.00166509
0.00173626
0.00180815
0.00188065
0.00195367
0.00202711
0.00210084
0.00217475
0.00224874
0.00232265
0.00239638
0.0024698
0.00254285
0.000503055
0.000546501
0.000591615
0.000638427
0.000686937
0.000737119
0.000788947
0.000842394
0.000897429
0.000954016
0.00101212
0.00107169
0.0011327
0.00119507
0.00125877
0.00132374
0.0013899
0.00145719
0.00152553
0.00159486
0.00166508
0.00173611
0.00180786
0.00188022
0.0019531
0.00202639
0.00209998
0.00217376
0.00224761
0.00232139
0.00239498
0.00246827
0.0025412
0.000503866
0.000547216
0.000592223
0.000638927
0.00068733
0.000737406
0.00078913
0.000842474
0.000897408
0.000953897
0.0010119
0.00107139
0.0011323
0.00119459
0.00125821
0.00132309
0.00138917
0.00145639
0.00152468
0.00159394
0.00166411
0.00173508
0.00180678
0.0018791
0.00195194
0.0020252
0.00209876
0.00217251
0.00224633
0.00232011
0.00239368
0.00246698
0.00253993
0.00050262
0.000545894
0.000590818
0.00063744
0.000685765
0.000735766
0.00078742
0.000840698
0.000895572
0.000952007
0.00100997
0.00106941
0.00113028
0.00119255
0.00125615
0.00132102
0.0013871
0.00145433
0.00152263
0.00159191
0.00166211
0.00173313
0.00180488
0.00187726
0.00195016
0.00202349
0.00209713
0.00217096
0.00224488
0.00231877
0.00239247
0.00246592
0.00253903
0.000499269
0.000542489
0.000587355
0.000633922
0.000682198
0.000732158
0.000783776
0.000837029
0.000891884
0.00094831
0.00100627
0.00106572
0.00112662
0.00118892
0.00125257
0.0013175
0.00138365
0.00145096
0.00151936
0.00158875
0.00165907
0.00173023
0.00180212
0.00187466
0.00194773
0.00202124
0.00209506
0.00216908
0.00224321
0.00231735
0.00239137
0.00246512
0.00253846
0.000493766
0.000536956
0.000581789
0.000628329
0.000676588
0.000726539
0.000778161
0.000831426
0.000886307
0.000942772
0.00100078
0.0010603
0.00112128
0.00118368
0.00124744
0.0013125
0.0013788
0.00144627
0.00151484
0.00158444
0.00165497
0.00172635
0.00179849
0.00187129
0.00194464
0.00201843
0.00209253
0.00216685
0.00224134
0.00231593
0.00239038
0.000486067
0.000529249
0.000574077
0.00062062
0.000668893
0.000718872
0.000770534
0.000823855
0.000878806
0.000935357
0.000993473
0.00105311
0.00111424
0.00117679
0.00124073
0.00130599
0.00137251
0.00144023
0.00150906
0.00157894
0.00164978
0.00172149
0.00179398
0.00186714
0.00194087
0.00201505
0.00208956
0.00216432
0.00223934
0.000476132
0.000519332
0.000564181
0.000610758
0.000659079
0.000709121
0.000760862
0.00081428
0.000869348
0.000926035
0.000984307
0.00104413
0.00110545
0.00116823
0.00123242
0.00129795
0.00136477
0.00143281
0.00150199
0.00157225
0.00164349
0.00171562
0.00178855
0.00186219
0.00193641
0.00201111
0.00208614
0.00216148
0.00223713
0.000463926
0.000507168
0.000552067
0.000598707
0.000647109
0.000697251
0.000749112
0.00080267
0.0008579
0.000914773
0.000973255
0.00103331
0.0010949
0.00115797
0.00122247
0.00128835
0.00135555
0.00142399
0.00149361
0.00156433
0.00163607
0.00170872
0.00178221
0.00185642
0.00193125
0.00200657
0.00208226
0.00215829
0.00223468
0.000449416
0.000492724
0.0005377
0.000584435
0.000632952
0.00068323
0.000735249
0.000788991
0.000844429
0.000901538
0.000960285
0.00102063
0.00108254
0.00114597
0.00121086
0.00127717
0.00134482
0.00141375
0.00148389
0.00155517
0.00162749
0.00170077
0.00177491
0.00184981
0.00192536
0.00200143
0.00207789
0.00215472
0.00223195
0.000432567
0.000475966
0.000521047
0.000567907
0.000616571
0.000667021
0.000719239
0.000773206
0.0008289
0.000886295
0.00094536
0.00100606
0.00106836
0.0011322
0.00119756
0.00126435
0.00133254
0.00140204
0.0014728
0.00154472
0.00161773
0.00169174
0.00176664
0.00184233
0.00191871
0.00199564
0.00207299
0.00215074
0.00222893
0.000413346
0.000456859
0.000502071
0.000549084
0.000597929
0.000648586
0.000701041
0.000755276
0.00081127
0.000869
0.000928436
0.000989545
0.00105229
0.00111662
0.0011825
0.00124987
0.00131867
0.00138883
0.00146029
0.00153295
0.00160675
0.00168158
0.00175734
0.00183394
0.00191126
0.00198917
0.00206753
0.00214633
0.0022256
0.000391716
0.000435365
0.000480732
0.000527927
0.000576982
0.000627881
0.00068061
0.000735153
0.000791493
0.000849606
0.000909466
0.00097104
0.00103429
0.00109918
0.00116566
0.00123367
0.00130316
0.00137406
0.0014463
0.0015198
0.00159448
0.00167024
0.00174698
0.0018246
0.00190298
0.00198199
0.00206148
0.00214145
0.00222193
0.000367639
0.000411442
0.000456987
0.00050439
0.000553685
0.000604858
0.000657896
0.000712787
0.000769515
0.000828058
0.000888392
0.000950485
0.0010143
0.00107981
0.00114695
0.00121568
0.00128594
0.00135767
0.00143078
0.00150521
0.00158087
0.00165766
0.00173549
0.00181424
0.0018938
0.00197403
0.00205479
0.00213605
0.00221787
0.000341075
0.000385045
0.000430788
0.000478422
0.000527984
0.00057946
0.000632842
0.000688118
0.000745275
0.000804293
0.000865149
0.000927816
0.00099226
0.00105844
0.00112632
0.00119584
0.00126695
0.00133958
0.00141366
0.00148911
0.00156585
0.00164378
0.0017228
0.00180279
0.00188365
0.00196523
0.00204738
0.00213008
0.00221338
0.000311982
0.000356125
0.00040208
0.000449967
0.00049982
0.000551628
0.000605384
0.00066108
0.000718704
0.000778239
0.000839665
0.000902955
0.00096808
0.001035
0.00110368
0.00117406
0.00124609
0.00131971
0.00139484
0.00147141
0.00154933
0.0016285
0.00170882
0.00179018
0.00187246
0.00195551
0.00203918
0.00212346
0.00220838
0.000280293
0.000324617
0.000370799
0.00041896
0.000469127
0.000521293
0.000575452
0.0006316
0.000689726
0.000749818
0.000811857
0.000875819
0.000941677
0.0010094
0.00107893
0.00115025
0.00122328
0.00129796
0.00137423
0.00145201
0.00153121
0.00161173
0.00169347
0.00177631
0.00186013
0.00194479
0.00203012
0.00211611
0.0022028
0.000203262
0.000245947
0.000290449
0.000336872
0.000385332
0.000435836
0.000488382
0.000542969
0.000599597
0.000658258
0.000718942
0.000781635
0.000846315
0.000912956
0.000981527
0.00105199
0.0011243
0.0011984
0.00127423
0.00135172
0.0014308
0.00151138
0.00159335
0.00167662
0.00176107
0.00184657
0.00193296
0.00202009
0.00210794
0.00219654
0.000166042
0.000208868
0.000253556
0.000300248
0.000349018
0.000399872
0.000452815
0.000507851
0.000564983
0.000624207
0.000685516
0.000748899
0.000814338
0.00088181
0.000951286
0.00102273
0.0010961
0.00117134
0.0012484
0.0013272
0.00140767
0.00148972
0.00157326
0.00165817
0.00174434
0.00183164
0.00191991
0.00200898
0.00209884
0.00218952
0.000126021
0.000168999
0.0002139
0.00026086
0.000309943
0.000361155
0.000414507
0.000470008
0.000527664
0.000587475
0.000649437
0.000713543
0.000779778
0.000848123
0.000918552
0.000991032
0.00106552
0.00114197
0.00122033
0.00130052
0.00138247
0.00146609
0.0015513
0.00163797
0.00172598
0.00181522
0.00190551
0.00199667
0.00208869
0.00218161
8.31427e-05
0.000126289
0.000171405
0.000218628
0.000268022
0.000319597
0.000373367
0.000429344
0.000487538
0.000547954
0.000610592
0.000675449
0.000742513
0.00081177
0.000883196
0.000956761
0.00103243
0.00111015
0.00118988
0.00127153
0.00135505
0.00144035
0.00152732
0.00161586
0.00170586
0.00179716
0.00188961
0.00198301
0.00207736
0.00217268
3.73451e-05
8.06584e-05
0.000125985
0.000173466
0.000223168
0.000275105
0.000329295
0.000385754
0.000444496
0.00050553
0.000568862
0.000634492
0.000702413
0.000772614
0.000845077
0.000919774
0.000996672
0.00107573
0.00115689
0.00124009
0.00132526
0.00141232
0.00150117
0.0015917
0.00168378
0.00177729
0.00187205
0.00196786
0.0020647
0.0021626
-1.14425e-05
3.20282e-05
7.75546e-05
0.000125285
0.000175287
0.000227581
0.000282187
0.000339127
0.000398421
0.000460082
0.000524119
0.000590538
0.000659338
0.000730511
0.000804044
0.000879913
0.00095809
0.00103853
0.00112119
0.00120601
0.00129292
0.00138183
0.00147265
0.00156527
0.00165958
0.00175544
0.00185266
0.00195103
0.00205053
0.00215119
-6.32948e-05
-1.96834e-05
2.60275e-05
7.3991e-05
0.00012428
0.000176918
0.000231932
0.000289349
0.000349191
0.000411479
0.000476227
0.000543446
0.000613139
0.000685305
0.000759935
0.000837011
0.000916508
0.000998389
0.00108261
0.00116911
0.00125783
0.00134868
0.00144157
0.00153639
0.00163305
0.00173141
0.00183125
0.00193235
0.00203469
0.00213829
-0.00011829
-7.45605e-05
-2.86873e-05
1.94884e-05
7.00447e-05
0.00012301
0.000178416
0.000236295
0.000296676
0.000359585
0.000425042
0.000493062
0.000563657
0.00063683
0.000712578
0.000790888
0.00087174
0.000955104
0.00104094
0.00112919
0.00121978
0.00131265
0.00140769
0.0015048
0.00160392
0.00170495
0.00180761
0.00191162
0.00201697
0.00212372
-0.000176509
-0.000132691
-8.66834e-05
-3.83231e-05
1.24738e-05
6.57409e-05
0.000121516
0.000179837
0.00024074
0.000304256
0.000370411
0.000439229
0.000510725
0.000584911
0.000661788
0.000741352
0.000823588
0.00090847
0.000995962
0.00108601
0.00117856
0.00127352
0.00137078
0.00147026
0.00157203
0.00167593
0.00178154
0.00188861
0.00199715
0.00210716
-0.000238035
-0.000194163
-0.000148057
-9.9547e-05
-4.85432e-05
4.99361e-06
6.11072e-05
0.000119842
0.000181241
0.00024534
0.000312175
0.000381776
0.000454164
0.000529359
0.000607371
0.0006882
0.000771839
0.000858269
0.000947459
0.00103936
0.00113393
0.00123106
0.00133063
0.00143266
0.00153724
-0.000302954
-0.000259071
-0.000212908
-0.00016429
-0.00011312
-5.93544e-05
-2.94134e-06
5.61703e-05
0.000118029
0.000182681
0.000250168
0.000320526
0.000393788
0.000469979
0.000549117
0.000631212
0.000716264
0.000804261
0.000895181
0.000988987
0.00108563
0.00118501
0.00128702
0.00139173
0.00149925
-0.000371351
-0.000327507
-0.000281337
-0.00023266
-0.000181375
-0.000127429
-7.07644e-05
-1.13228e-05
5.09523e-05
0.000116114
0.000184214
0.000255295
0.0003294
0.000406563
0.00048681
0.00057016
0.000656622
0.000746195
0.000838864
0.000934603
0.00103337
0.00113508
0.00123962
0.0013471
0.00145766
-0.000443316
-0.000399567
-0.000353447
-0.00030477
-0.000253426
-0.000199358
-0.0001425
-8.27855e-05
-2.01495e-05
4.54699e-05
0.000114131
0.00018589
0.000260795
0.000338892
0.000420216
0.000504797
0.000592655
0.000683797
0.000778221
0.000875912
0.000976839
0.00108093
0.00118807
0.0012984
0.00141207
-0.000518936
-0.000475346
-0.000429342
-0.00038073
-0.000329397
-0.000275274
-0.000218291
-0.00015837
-9.54395e-05
-2.94279e-05
3.97333e-05
0.000112109
0.000187759
0.000266739
0.000349095
0.000434869
0.00052409
0.00061678
0.000712947
0.000812593
0.000915699
0.0010222
0.00113199
0.00124526
0.00136215
-0.000598299
-0.000554939
-0.000509125
-0.000460655
-0.000409408
-0.00035531
-0.000298279
-0.000238232
-0.000175085
-0.000108759
-3.91743e-05
3.37448e-05
0.00011007
0.000189866
0.000273193
0.000360104
0.000450642
0.00054484
0.000642719
0.000744298
0.00084958
0.000958507
0.00107101
0.00118738
0.00130754
-0.000681492
-0.000638443
-0.000592902
-0.000544658
-0.000493585
-0.000439599
-0.000382611
-0.000322528
-0.000259258
-0.000192708
-0.00012279
-4.9416e-05
2.74971e-05
0.000108028
0.000192248
0.000280224
0.000372011
0.000467656
0.000567189
0.000670644
0.000778081
0.000889493
0.00100488
0.00112436
-0.0007686
-0.000725952
-0.000680774
-0.000632852
-0.00058205
-0.000528277
-0.000471434
-0.000411419
-0.00034813
-0.000281463
-0.000211317
-0.000137593
-6.01942e-05
2.09708e-05
0.000105988
0.000194937
0.000287888
0.000384895
0.000485988
0.000591243
0.000700884
0.000814894
0.00093316
0.00105565
-0.000859706
-0.000817555
-0.000772843
-0.000725347
-0.000674924
-0.000621475
-0.000564892
-0.000505064
-0.000441875
-0.000375212
-0.000304961
-0.000231009
-0.000153246
-7.15658e-05
1.41328e-05
0.000103944
0.000197954
0.000296222
0.000398785
0.000505847
0.000617699
-0.00095489
-0.000913344
-0.000869207
-0.000822252
-0.000772327
-0.000719326
-0.000663131
-0.00060362
-0.000540668
-0.000474147
-0.000403931
-0.000329892
-0.000251905
-0.000169849
-8.36055e-05
6.93703e-06
0.000101883
0.000201307
0.000305269
0.000414052
0.000528007
-0.00105423
-0.0010134
-0.00096996
-0.000923671
-0.000874376
-0.000821957
-0.000766291
-0.000707245
-0.000644681
-0.000578458
-0.000508435
-0.00043447
-0.000356422
-0.000274152
-0.000187524
-9.64088e-05
-6.80808e-07
9.97562e-05
0.000204988
0.000315354
0.000431252
-0.00115779
-0.00111781
-0.00107519
-0.00102971
-0.00098118
-0.000929491
-0.000874508
-0.00081609
-0.000754083
-0.000688332
-0.000618681
-0.000544973
-0.000467049
-0.000384751
-0.000297927
-0.000206426
-0.000110103
-8.83828e-06
9.74824e-05
0.000209241
0.000326867
-0.00126564
-0.00122663
-0.00118499
-0.00114045
-0.00109284
-0.00104204
-0.000987908
-0.000930299
-0.000869037
-0.000803953
-0.000734874
-0.000661628
-0.000584038
-0.000501926
-0.000415118
-0.00032345
-0.000226755
-0.000124883
-1.7692e-05
9.5238e-05
0.000214367
-0.00137784
-0.00133996
-0.00129942
-0.00125599
-0.00120947
-0.00115971
-0.0011066
-0.00105
-0.000989699
-0.000925497
-0.000857212
-0.000784658
-0.000707638
-0.000625949
-0.000539395
-0.000447809
-0.000351003
-0.000248787
-0.000140985
-2.71384e-05
9.32404e-05
-0.00149446
-0.00145786
-0.00141858
-0.00137642
-0.00133117
-0.00128265
-0.00123075
-0.00117535
-0.00111622
-0.00105314
-0.000985894
-0.000914286
-0.000838101
-0.0007571
-0.000671059
-0.000579826
-0.000483214
-0.000380964
-0.000272853
-0.000158383
-3.70418e-05
-0.00136051
-0.00130651
-0.00124877
-0.00118705
-0.0011211
-0.00105073
-0.000975682
-0.000895686
-0.000810484
-0.000719901
-0.000623779
-0.000521843
-0.000413767
-0.000298998
-0.000177017
-0.000868456
-0.000773174
-0.000671876
-0.00056421
-0.000449527
-0.000327335
)
;

boundaryField
{
    movingWall
    {
        type            zeroGradient;
    }
    fixedWalls
    {
        type            zeroGradient;
    }
    frontAndBack
    {
        type            empty;
    }
    procBoundary1to0
    {
        type            processor;
        value           nonuniform List<scalar> 
45
(
0.000435754
0.000446802
0.000453791
0.000458435
0.000461301
0.000462198
0.00046102
0.000457718
0.000452243
0.000444551
0.000434602
0.00042236
0.000407792
0.000390865
0.000371545
0.000349797
0.000325583
0.000298866
0.000269607
0.000237766
0.000237766
0.000162524
0.000125145
8.4983e-05
4.19646e-05
-3.96764e-06
-5.28768e-05
-0.000104832
-0.000159906
-0.000218175
-0.000279714
-0.000344604
-0.000412925
-0.000484758
-0.000560182
-0.000639279
-0.000722129
-0.000808808
-0.000899391
-0.00099395
-0.00109255
-0.00119526
-0.00130212
-0.00141319
-0.00152852
)
;
    }
    procBoundary1to3
    {
        type            processor;
        value           nonuniform List<scalar> 
23
(
-0.00161549
-0.00158033
-0.0015425
-0.0015018
-0.00145802
-0.00141096
-0.00141096
-0.00149588
-0.00144355
-0.00138745
-0.00132734
-0.00126298
-0.00119414
-0.00112059
-0.00104196
-0.000957974
-0.000957974
-0.00102566
-0.000931679
-0.000831466
-0.00072467
-0.000610598
-0.000488707
)
;
    }
    procBoundary1to6
    {
        type            processor;
        value           nonuniform List<scalar> 
26
(
0.00164413
0.00175284
0.00186308
0.00197488
0.00208828
0.00164413
0.00160927
0.00157088
0.00152859
0.00148205
0.0014308
0.00124772
0.00124772
0.000734253
0.000855236
0.00118215
0.000980588
0.000734253
0.000646973
0.00055243
0.000450077
0.000339405
0.000219861
9.08647e-05
-4.81807e-05
-0.000197989
)
;
    }
    procBoundary1to7
    {
        type            processor;
        value           nonuniform List<scalar> 
33
(
0.00262537
0.00262067
0.00261759
0.00261534
0.00261358
0.00261231
0.00261152
0.00246449
0.00261114
0.00253814
0.00231447
0.00246449
0.00238943
0.00231447
0.00231291
0.0023112
0.00230932
0.00230727
0.00230504
0.00230261
0.00229992
0.00229694
0.00229359
0.00228982
0.00228553
0.00228063
0.00227502
0.00226856
0.00226112
0.00225255
0.00224268
0.00223134
0.00221819
)
;
    }
}


// ************************************************************************* //
