/*--------------------------------*- C++ -*----------------------------------*\
  =========                 |
  \\      /  F ield         | OpenFOAM: The Open Source CFD Toolbox
   \\    /   O peration     | Website:  https://openfoam.org
    \\  /    A nd           | Version:  9
     \\/     M anipulation  |
\*---------------------------------------------------------------------------*/
FoamFile
{
    format      ascii;
    class       volScalarField;
    location    "1";
    object      p;
}
// * * * * * * * * * * * * * * * * * * * * * * * * * * * * * * * * * * * * * //

dimensions      [0 2 -2 0 0 0 0];

internalField   nonuniform List<scalar> 
1250
(
2.16117e-09
-2.12452e-06
-9.95743e-06
-2.2008e-05
-3.63836e-05
-5.18322e-05
-6.736e-05
-8.23519e-05
-9.6413e-05
-0.000109336
-0.000121045
-0.000131544
-0.000140887
-0.000149146
-0.000156393
-0.00016269
-0.000168074
-0.00017256
-0.000176135
-0.000178757
-0.000180362
-0.000180858
-0.000180138
-0.000178075
-0.000174528
-0.000169349
-0.000162379
-0.000153456
-0.000142418
2.06342e-06
-9.07719e-08
-6.59356e-06
-1.64429e-05
-2.80726e-05
-4.07751e-05
-5.37943e-05
-6.65934e-05
-7.88169e-05
-9.02484e-05
-0.000100775
-0.000110355
-0.00011899
-0.000126704
-0.00013353
-0.000139491
-0.000144601
-0.000148854
-0.000152222
-0.00015466
-0.000156096
-0.000156445
-0.000155601
-0.000153443
-0.000149841
-0.000144654
-0.000137733
-0.000128926
-0.000118081
9.99739e-06
6.3162e-06
-3.41876e-07
-9.3655e-06
-1.98782e-05
-3.12156e-05
-4.28171e-05
-5.42649e-05
-6.52684e-05
-7.56408e-05
-8.52749e-05
-9.41205e-05
-0.000102163
-0.000109408
-0.000115867
-0.000121545
-0.000126441
-0.000130535
-0.000133792
-0.000136158
-0.00013756
-0.00013791
-0.000137103
-0.000135023
-0.000131542
-0.000126522
-0.000119822
-0.000111293
-0.000100787
2.2494e-05
1.61106e-05
8.30144e-06
-8.92716e-07
-1.11005e-05
-2.17931e-05
-3.2557e-05
-4.30945e-05
-5.3196e-05
-6.27261e-05
-7.16077e-05
-7.98047e-05
-8.73063e-05
-9.4114e-05
-0.000100232
-0.000105657
-0.000110379
-0.000114368
-0.000117583
-0.000119964
-0.000121434
-0.000121903
-0.000121265
-0.000119404
-0.000116194
-0.000111498
-0.000105177
-9.70837e-05
-8.70709e-05
3.77772e-05
2.79069e-05
1.84587e-05
8.57507e-06
-1.79583e-06
-1.22534e-05
-2.2516e-05
-3.24054e-05
-4.18002e-05
-5.06276e-05
-5.88529e-05
-6.64666e-05
-7.34727e-05
-7.9879e-05
-8.56896e-05
-9.08999e-05
-9.54922e-05
-9.94338e-05
-0.000102677
-0.000105156
-0.000106791
-0.000107489
-0.000107143
-0.000105634
-0.000102836
-9.86139e-05
-9.28272e-05
-8.53271e-05
-7.59644e-05
5.45212e-05
4.07906e-05
2.93113e-05
1.83601e-05
7.46331e-06
-3.08946e-06
-1.3136e-05
-2.26137e-05
-3.1492e-05
-3.97657e-05
-4.74503e-05
-5.45709e-05
-6.11543e-05
-6.7222e-05
-7.2785e-05
-7.78406e-05
-8.23705e-05
-8.63389e-05
-8.96941e-05
-9.23676e-05
-9.42756e-05
-9.53212e-05
-9.53946e-05
-9.43758e-05
-9.21359e-05
-8.8539e-05
-8.34439e-05
-7.66968e-05
-6.81426e-05
7.1503e-05
5.37633e-05
4.00302e-05
2.77601e-05
1.60794e-05
5.18383e-06
-4.87234e-06
-1.41369e-05
-2.26686e-05
-3.05322e-05
-3.77963e-05
-4.45262e-05
-5.07763e-05
-5.6587e-05
-6.19808e-05
-6.69608e-05
-7.15109e-05
-7.55953e-05
-7.91599e-05
-8.21335e-05
-8.44295e-05
-8.59472e-05
-8.65738e-05
-8.61864e-05
-8.46532e-05
-8.18364e-05
-7.75922e-05
-7.1759e-05
-6.41738e-05
8.77014e-05
6.59011e-05
4.98031e-05
3.6066e-05
2.34364e-05
1.20289e-05
1.7983e-06
-7.40781e-06
-1.57348e-05
-2.33165e-05
-3.02762e-05
-3.6721e-05
-4.27361e-05
-4.83832e-05
-5.36994e-05
-5.86965e-05
-6.33625e-05
-6.76633e-05
-7.15442e-05
-7.4932e-05
-7.77371e-05
-7.98561e-05
-8.11726e-05
-8.15604e-05
-8.08842e-05
-7.90031e-05
-7.57699e-05
-7.10129e-05
-6.45586e-05
0.000102176
7.63368e-05
5.78356e-05
4.25556e-05
2.88802e-05
1.68509e-05
6.32959e-06
-2.93637e-06
-1.11754e-05
-1.85889e-05
-2.53541e-05
-3.16197e-05
-3.75029e-05
-4.30882e-05
-4.84281e-05
-5.35449e-05
-5.84326e-05
-6.30593e-05
-6.73711e-05
-7.12933e-05
-7.47341e-05
-7.7587e-05
-7.97325e-05
-8.10407e-05
-8.13726e-05
-8.05837e-05
-7.85228e-05
-7.50056e-05
-6.98463e-05
0.000114058
8.42446e-05
6.33478e-05
4.64987e-05
3.17291e-05
1.90122e-05
8.12053e-06
-1.29462e-06
-9.54166e-06
-1.6887e-05
-2.35602e-05
-2.9751e-05
-3.56074e-05
-4.12372e-05
-4.67088e-05
-5.20552e-05
-5.7277e-05
-6.23459e-05
-6.72086e-05
-7.17898e-05
-7.59959e-05
-7.97179e-05
-8.2833e-05
-8.52079e-05
-8.66996e-05
-8.71604e-05
-8.64347e-05
-8.43236e-05
-8.06276e-05
0.000122531
8.88278e-05
6.55722e-05
4.7161e-05
3.12833e-05
1.78446e-05
6.53101e-06
-3.09963e-06
-1.14333e-05
-1.87984e-05
-2.54748e-05
-3.16914e-05
-3.76262e-05
-4.34087e-05
-4.91232e-05
-5.48134e-05
-6.04863e-05
-6.61173e-05
-7.16542e-05
-7.70218e-05
-8.2125e-05
-8.68524e-05
-9.10788e-05
-9.46674e-05
-9.7472e-05
-9.93418e-05
-0.000100118
-9.95842e-05
-9.7528e-05
0.000126805
8.93097e-05
6.37505e-05
4.38064e-05
2.68297e-05
1.26579e-05
8.91063e-07
-9.00418e-06
-1.74888e-05
-2.49515e-05
-3.17193e-05
-3.80584e-05
-4.41746e-05
-5.02181e-05
-5.62879e-05
-6.24374e-05
-6.86803e-05
-7.49952e-05
-8.13317e-05
-8.76144e-05
-9.37474e-05
-9.96177e-05
-0.000105098
-0.000110049
-0.000114322
-0.000117765
-0.000120215
-0.000121441
-0.000121215
0.00012611
8.49275e-05
5.71314e-05
3.56979e-05
1.76467e-05
2.7456e-06
-9.4916e-06
-1.96882e-05
-2.83781e-05
-3.60074e-05
-4.29487e-05
-4.95024e-05
-5.59003e-05
-6.23115e-05
-6.88482e-05
-7.5573e-05
-8.2505e-05
-8.96264e-05
-9.68883e-05
-0.000104216
-0.000111512
-0.000118665
-0.000125544
-0.00013201
-0.000137912
-0.0001431
-0.00014741
-0.000150593
-0.000152411
0.000119689
7.49288e-05
4.49693e-05
2.20985e-05
3.00696e-06
-1.26102e-05
-2.53257e-05
-3.58518e-05
-4.47936e-05
-5.26526e-05
-5.98439e-05
-6.67004e-05
-7.34773e-05
-8.03607e-05
-8.74747e-05
-9.48896e-05
-0.00010263
-0.00011068
-0.000118994
-0.000127497
-0.000136093
-0.000144669
-0.000153097
-0.000161238
-0.000168942
-0.000176063
-0.000182439
-0.000187805
-0.000191914
0.000106794
5.85691e-05
2.65244e-05
2.27326e-06
-1.78194e-05
-3.41338e-05
-4.733e-05
-5.82085e-05
-6.7444e-05
-7.5591e-05
-8.31053e-05
-9.03493e-05
-9.75999e-05
-0.000105058
-0.000112858
-0.000121078
-0.000129745
-0.000138848
-0.000148341
-0.000158153
-0.000168188
-0.000178337
-0.000188474
-0.000198462
-0.000208159
-0.000217424
-0.000226104
-0.000233919
-0.000240619
8.66855e-05
3.51122e-05
1.06279e-06
-2.45092e-05
-4.55613e-05
-6.25517e-05
-7.62287e-05
-8.748e-05
-9.70481e-05
-0.000105539
-0.000113447
-0.000121161
-0.000128978
-0.000137113
-0.000145707
-0.000154845
-0.000164559
-0.00017484
-0.000185645
-0.000196904
-0.000208528
-0.000220409
-0.000232429
-0.00024446
-0.000256368
-0.000268026
-0.000279294
-0.000289883
-0.000299549
5.8632e-05
3.83027e-06
-3.21416e-05
-5.89744e-05
-8.09438e-05
-9.85888e-05
-0.000112746
-0.000124391
-0.00013433
-0.00014322
-0.000151591
-0.000159858
-0.000168335
-0.000177247
-0.000186746
-0.000196919
-0.000207802
-0.000219391
-0.000231646
-0.000244503
-0.000257877
-0.000271669
-0.000285773
-0.000300072
-0.000314451
-0.000328803
-0.000343008
-0.000356773
-0.000369878
2.19126e-05
-3.59941e-05
-7.38051e-05
-0.000101839
-0.000124685
-0.000142965
-0.000157605
-0.000169663
-0.000180014
-0.000189361
-0.000198266
-0.00020717
-0.000216401
-0.000226195
-0.00023671
-0.00024804
-0.000260223
-0.00027326
-0.000287116
-0.000301735
-0.000317042
-0.000332952
-0.000349374
-0.000366215
-0.000383381
-0.000400799
-0.000418376
-0.000435821
-0.000452971
-2.41819e-05
-8.50659e-05
-0.000124632
-0.000153808
-0.000177492
-0.00019639
-0.000211517
-0.000224015
-0.000234822
-0.000244685
-0.0002542
-0.000263828
-0.000273913
-0.000284699
-0.000296351
-0.000308966
-0.000322591
-0.000337229
-0.000352856
-0.000369426
-0.000386879
-0.000405152
-0.000424177
-0.000443892
-0.000464243
-0.000485198
-0.000506695
-0.000528456
-0.000550453
-8.03461e-05
-0.000144075
-0.000185311
-0.000215573
-0.000240059
-0.000259562
-0.000275186
-0.000288155
-0.000299467
-0.000309913
-0.000320119
-0.000330566
-0.000341611
-0.000353509
-0.000366428
-0.000380473
-0.000395696
-0.000412111
-0.000429704
-0.000448446
-0.000468301
-0.000489232
-0.000511209
-0.000534213
-0.000558249
-0.000583346
-0.000609459
-0.000636348
-0.00066417
-0.000147257
-0.000213693
-0.000256513
-0.000287805
-0.000313062
-0.000333164
-0.000349301
-0.000362778
-0.000374651
-0.000385754
-0.000396742
-0.000408113
-0.000420238
-0.000433379
-0.000447712
-0.00046335
-0.000480352
-0.000498746
-0.000518535
-0.000539714
-0.000562278
-0.00058623
-0.000611589
-0.000638398
-0.000666746
-0.000696735
-0.000728275
-0.000761377
-0.00022557
-0.00029457
-0.000338888
-0.000371157
-0.000397158
-0.000417857
-0.000434531
-0.000448562
-0.000461064
-0.000472909
-0.00048478
-0.000497194
-0.000510532
-0.000525066
-0.000540982
-0.0005584
-0.000577393
-0.000598006
-0.000620266
-0.000644202
-0.00066985
-0.000697267
-0.000726537
-0.000757783
-0.000791198
-0.000826991
-0.000865097
-0.000905654
-0.000315918
-0.00038733
-0.000433056
-0.000466253
-0.000492975
-0.000514277
-0.00053152
-0.000546162
-0.000559371
-0.000572058
-0.00058493
-0.000598522
-0.000613228
-0.00062933
-0.000647023
-0.00066644
-0.000687673
-0.000710791
-0.000735854
-0.000762933
-0.000792122
-0.000823548
-0.00085738
-0.000893845
-0.000933266
-0.000975988
-0.00102203
-0.00107171
-0.000418901
-0.000492567
-0.000539612
-0.000573688
-0.000601115
-0.000623033
-0.000640889
-0.000656211
-0.00067022
-0.000683863
-0.000697871
-0.000712799
-0.000729051
-0.000746922
-0.00076662
-0.000788296
-0.000812066
-0.00083803
-0.000866293
-0.000896985
-0.00093027
-0.000966367
-0.00100556
-0.0010482
-0.00109478
-0.00114582
-0.0012015
-0.00126233
-0.000535087
-0.00061084
-0.000659112
-0.000694021
-0.000722142
-0.0007447
-0.000763222
-0.000779307
-0.000794225
-0.000808958
-0.000824262
-0.000840706
-0.000858712
-0.000878588
-0.000900559
-0.000924799
-0.000951456
-0.000980674
-0.00101261
-0.00104748
-0.00108553
-0.0011271
-0.00117261
-0.00122259
-0.00127773
-0.00133878
-0.00140612
-0.00148056
-0.000665007
-0.000742667
-0.000792072
-0.000827773
-0.000856582
-0.000879812
-0.000899067
-0.000916014
-0.000931969
-0.000947948
-0.000964729
-0.000982902
-0.0010029
-0.00102506
-0.00104961
-0.00107678
-0.00110674
-0.00113969
-0.00117587
-0.00121558
-0.0012592
-0.00130719
-0.00136017
-0.00141886
-0.00148423
-0.0015573
-0.00163872
-0.00172967
-0.000809145
-0.000888525
-0.000938965
-0.000975416
-0.00100492
-0.00102886
-0.00104893
-0.00106685
-0.00108399
-0.0011014
-0.00111987
-0.00114001
-0.00116229
-0.00118704
-0.00121454
-0.00124505
-0.00127879
-0.00131605
-0.00135714
-0.00140248
-0.0014526
-0.00150814
-0.00156994
-0.00163898
-0.00171653
-0.00180398
-0.00190231
-0.00201317
-0.000967937
-0.00104883
-0.00110021
-0.00113737
-0.00116757
-0.00119228
-0.00121326
-0.0012323
-0.00125079
-0.00126983
-0.00129023
-0.00131262
-0.00133749
-0.0013652
-0.00139608
-0.00143041
-0.0014685
-0.00151072
-0.00155749
-0.00160938
-0.00166708
-0.00173149
-0.00180367
-0.00188495
-0.00197696
-0.00208152
-0.00220004
-0.00233472
-0.00114176
-0.00122396
-0.00127617
-0.00131401
-0.00134492
-0.00137047
-0.00139247
-0.00141276
-0.00143281
-0.00145371
-0.00147631
-0.00150127
-0.00152909
-0.00156019
-0.00159491
-0.00163362
-0.0016767
-0.00172463
-0.00177797
-0.00183745
-0.001904
-0.00197876
-0.00206313
-0.0021588
-0.00226787
-0.00239266
-0.00253509
-0.00269804
-0.00133093
-0.00141421
-0.00146714
-0.00150562
-0.00153727
-0.00156373
-0.00158687
-0.0016086
-0.00163042
-0.00165344
-0.00167855
-0.00170644
-0.00173762
-0.00177256
-0.00181168
-0.00185539
-0.00190419
-0.00195868
-0.00201959
-0.00208786
-0.00216467
-0.00225147
-0.00235005
-0.00246256
-0.0025916
-0.0027401
-0.00291063
-0.00310677
-0.0015357
-0.00161982
-0.00167335
-0.00171245
-0.00174486
-0.00177231
-0.00179674
-0.0018201
-0.00184392
-0.00186936
-0.00189733
-0.00192853
-0.00196353
-0.00200285
-0.00204695
-0.00209636
-0.0021517
-0.00221369
-0.00228329
-0.00236167
-0.00245032
-0.00255105
-0.0026661
-0.00279813
-0.00295038
-0.00312645
-0.00332964
-0.0035644
-0.00175624
-0.00184093
-0.00189496
-0.00193463
-0.00196784
-0.00199638
-0.00202226
-0.00204746
-0.00207355
-0.00210173
-0.00213292
-0.00216787
-0.00220719
-0.00225145
-0.00230121
-0.00235709
-0.00241985
-0.0024904
-0.00256992
-0.00265986
-0.00276208
-0.00287881
-0.00301278
-0.00316729
-0.00334625
-0.00355406
-0.00379485
-0.00407401
-0.00199263
-0.00207763
-0.00213202
-0.00217225
-0.0022063
-0.00223603
-0.00226352
-0.00229079
-0.00231945
-0.0023507
-0.00238552
-0.00242469
-0.00246888
-0.0025187
-0.00257484
-0.00263802
-0.00270917
-0.00278941
-0.00288018
-0.00298327
-0.00310092
-0.00323587
-0.00339143
-0.00357156
-0.00378099
-0.00402497
-0.00430857
-0.00463819
-0.00224487
-0.0023299
-0.00238452
-0.00242527
-0.0024602
-0.00249125
-0.00252053
-0.00255012
-0.00258164
-0.00261634
-0.00265523
-0.00269912
-0.00274874
-0.00280481
-0.00286808
-0.00293946
-0.00302004
-0.00311118
-0.00321462
-0.00333253
-0.00346761
-0.00362313
-0.00380308
-0.00401217
-0.00425598
-0.00454075
-0.00487254
-0.00525884
-0.00251286
-0.00259762
-0.00265235
-0.00269358
-0.00272944
-0.00276192
-0.00279318
-0.00282535
-0.00286006
-0.0028986
-0.002942
-0.00299114
-0.00304682
-0.00310983
-0.00318106
-0.00326157
-0.00335267
-0.00345599
-0.0035736
-0.00370809
-0.00386266
-0.00404122
-0.00424846
-0.00448993
-0.00477216
-0.0051024
-0.00548781
-0.00593697
-0.00279641
-0.00288058
-0.00293527
-0.00297695
-0.00301379
-0.00304783
-0.00308127
-0.00311628
-0.00315451
-0.0031973
-0.0032457
-0.00330064
-0.00336301
-0.00343369
-0.00351372
-0.00360434
-0.00370708
-0.00382389
-0.00395721
-0.00411009
-0.00428629
-0.00449039
-0.00472787
-0.00500518
-0.00532986
-0.00571025
-0.00615461
-0.00667264
-0.00309521
-0.00317846
-0.00323296
-0.00327507
-0.00331293
-0.00334865
-0.00338448
-0.0034226
-0.0034647
-0.00351214
-0.00356602
-0.00362733
-0.00369703
-0.00377614
-0.00386583
-0.00396755
-0.0040831
-0.00421474
-0.00436532
-0.00453841
-0.00473837
-0.00497052
-0.00524117
-0.00555774
-0.00592881
-0.00636384
-0.00687224
-0.00746476
-0.00340884
-0.00349084
-0.003545
-0.00358749
-0.00362641
-0.00366394
-0.00370236
-0.00374386
-0.00379018
-0.00384268
-0.00390253
-0.00397078
-0.00404848
-0.00413676
-0.00423698
-0.00435079
-0.00448028
-0.00462808
-0.00479747
-0.00499257
-0.0052184
-0.00548105
-0.00578771
-0.00614681
-0.00656801
-0.0070619
-0.00763901
-0.00831106
-0.00373676
-0.00381718
-0.00387084
-0.00391366
-0.00395369
-0.00399314
-0.00403434
-0.0040795
-0.00413037
-0.00418835
-0.00425465
-0.0043304
-0.00441673
-0.00451493
-0.00462652
-0.00475341
-0.00489797
-0.00506321
-0.00525292
-0.00547176
-0.00572547
-0.00602092
-0.00636627
-0.00677094
-0.00724571
-0.00780224
-0.00845217
-0.0092081
-0.00407835
-0.00415682
-0.00420982
-0.00425292
-0.00429408
-0.00433557
-0.00437974
-0.00442881
-0.00448456
-0.00454841
-0.00462163
-0.00470542
-0.00480101
-0.00490984
-0.00503362
-0.00517451
-0.00533521
-0.00551913
-0.00573056
-0.00597477
-0.00625821
-0.00658861
-0.00697506
-0.00742803
-0.00795936
-0.00858179
-0.00930796
-0.0101512
-0.00443282
-0.004509
-0.00456117
-0.0046045
-0.00464681
-0.00469044
-0.00473774
-0.00479096
-0.00485189
-0.00492199
-0.00500257
-0.00509491
-0.00520035
-0.00532047
-0.00545721
-0.00561297
-0.0057908
-0.00599453
-0.00622896
-0.00650001
-0.00681485
-0.00718207
-0.00761172
-0.00811529
-0.00870566
-0.00939659
-0.0102016
-0.0111346
-0.00479934
-0.00487286
-0.004924
-0.00496748
-0.00501096
-0.0050568
-0.0051074
-0.00516499
-0.00523138
-0.00530807
-0.00539641
-0.00549776
-0.00561358
-0.00574562
-0.005896
-0.00606742
-0.00626326
-0.00648779
-0.00674635
-0.00704549
-0.00739314
-0.00779875
-0.0082733
-0.00882929
-0.00948057
-0.0102418
-0.0111274
-0.0121514
-0.00517697
-0.00524749
-0.0052974
-0.00534093
-0.00538555
-0.00543366
-0.00548767
-0.00554981
-0.0056219
-0.00570548
-0.00580194
-0.00591271
-0.00603939
-0.00618386
-0.00634849
-0.00653623
-0.00675083
-0.006997
-0.00728061
-0.00760886
-0.00799043
-0.00843561
-0.0089563
-0.00956595
-0.0102793
-0.011112
-0.0120788
-0.0131942
-0.00568041
-0.0057239
-0.00576963
-0.00582004
-0.00587755
-0.0059444
-0.0060224
-0.0061131
-0.00621798
-0.00633853
-0.00647646
-0.00663382
-0.00681319
-0.00701781
-0.00725177
-0.00752023
-0.00782959
-0.00818767
-0.0086039
-0.00908938
-0.00965688
-0.0103208
-0.0110966
-0.0120007
-0.0130486
-0.0142543
)
;

boundaryField
{
    movingWall
    {
        type            zeroGradient;
    }
    fixedWalls
    {
        type            zeroGradient;
    }
    frontAndBack
    {
        type            empty;
    }
    procBoundary0to1
    {
        type            processor;
        value           nonuniform List<scalar> 
45
(
-0.000129106
-0.000105045
-8.81571e-05
-7.49968e-05
-6.4603e-05
-5.76505e-05
-5.47095e-05
-5.6285e-05
-6.2931e-05
-7.52443e-05
-9.38606e-05
-0.000119467
-0.000152818
-0.000194758
-0.000246247
-0.000308399
-0.000382516
-0.000470131
-0.000573067
-0.000693515
-0.000796355
-0.000796355
-0.000949407
-0.00112618
-0.0013299
-0.00156413
-0.0018327
-0.00213971
-0.00248941
-0.00288613
-0.00333408
-0.00383724
-0.0043991
-0.0050225
-0.0057094
-0.00646072
-0.00727617
-0.00815412
-0.00909156
-0.0100841
-0.0111259
-0.0122101
-0.0133285
-0.0144724
-0.0156316
)
;
    }
    procBoundary0to3
    {
        type            processor;
        value           nonuniform List<scalar> 
29
(
-0.00556468
-0.00563184
-0.00563184
-0.00607178
-0.00611521
-0.00616206
-0.00621484
-0.00627595
-0.00634763
-0.00643171
-0.00652977
-0.00664332
-0.00677394
-0.00692347
-0.00709411
-0.00728866
-0.00751064
-0.00776449
-0.00805579
-0.00839147
-0.00877995
-0.00923136
-0.00975758
-0.0103722
-0.0110903
-0.0119282
-0.0129029
-0.0140304
-0.0153246
)
;
    }
}


// ************************************************************************* //
