/*--------------------------------*- C++ -*----------------------------------*\
  =========                 |
  \\      /  F ield         | OpenFOAM: The Open Source CFD Toolbox
   \\    /   O peration     | Website:  https://openfoam.org
    \\  /    A nd           | Version:  9
     \\/     M anipulation  |
\*---------------------------------------------------------------------------*/
FoamFile
{
    format      ascii;
    class       surfaceScalarField;
    location    "1";
    object      phi;
}
// * * * * * * * * * * * * * * * * * * * * * * * * * * * * * * * * * * * * * //

dimensions      [0 3 -1 0 0 0 0];

internalField   nonuniform List<scalar> 
2427
(
1.38628e-10
-1.38645e-10
2.94044e-10
-1.55417e-10
3.35194e-10
-4.11513e-11
2.1201e-10
1.23183e-10
-7.69169e-11
2.88928e-10
-5.16886e-10
4.39971e-10
-1.0857e-09
5.68812e-10
-1.75912e-09
6.73426e-10
-2.51456e-09
7.55442e-10
-3.33251e-09
8.17949e-10
-4.19701e-09
8.64494e-10
-5.09559e-09
8.98581e-10
-6.01899e-09
9.23402e-10
-6.96068e-09
9.41695e-10
-7.91638e-09
9.55695e-10
-8.88352e-09
9.67138e-10
-9.86081e-09
9.7729e-10
-1.08478e-08
9.87005e-10
-1.18446e-08
9.96786e-10
-1.28514e-08
1.00685e-09
-1.38686e-08
1.01717e-09
-1.48962e-08
1.02758e-09
-1.59339e-08
1.03775e-09
-1.69812e-08
1.04729e-09
-1.8037e-08
1.05574e-09
-1.90995e-08
1.06259e-09
-2.01669e-08
1.06734e-09
-2.12363e-08
1.06945e-09
1.06844e-09
1.58978e-10
-2.97623e-10
2.21915e-10
-2.18355e-10
-5.87331e-12
1.86636e-10
-6.00928e-10
7.1824e-10
-1.58594e-09
1.27394e-09
-2.93718e-09
1.79122e-09
-4.6111e-09
2.24273e-09
-6.55729e-09
2.61961e-09
-8.72545e-09
2.9236e-09
-1.10697e-08
3.16217e-09
-1.35505e-08
3.34532e-09
-1.61357e-08
3.48376e-09
-1.88e-08
3.58769e-09
-2.15244e-08
3.66616e-09
-2.42955e-08
3.72678e-09
-2.7104e-08
3.77562e-09
-2.99439e-08
3.81723e-09
-3.28117e-08
3.85477e-09
-3.57051e-08
3.89021e-09
-3.86228e-08
3.9245e-09
-4.15634e-08
3.95777e-09
-4.45253e-08
3.98954e-09
-4.75064e-08
4.01882e-09
-5.05034e-08
4.0443e-09
-5.35121e-08
4.06445e-09
-5.65271e-08
4.07757e-09
-5.95416e-08
4.08189e-09
-6.25478e-08
4.07558e-09
4.05697e-09
4.45344e-11
-3.42159e-10
-1.92344e-10
1.85214e-11
-8.89422e-10
8.83712e-10
-2.13184e-09
1.96066e-09
-3.93027e-09
3.07237e-09
-6.25465e-09
4.1156e-09
-9.04935e-09
5.03743e-09
-1.22477e-08
5.81797e-09
-1.57816e-08
6.45749e-09
-1.95872e-08
6.96776e-09
-2.36083e-08
7.3664e-09
-2.77976e-08
7.67311e-09
-3.21172e-08
7.90723e-09
-3.65373e-08
8.08635e-09
-4.1036e-08
8.22548e-09
-4.55972e-08
8.33678e-09
-5.02095e-08
8.42953e-09
-5.4865e-08
8.51029e-09
-5.95581e-08
8.58325e-09
-6.42841e-08
8.65056e-09
-6.9039e-08
8.71269e-09
-7.38183e-08
8.76882e-09
-7.86166e-08
8.81713e-09
-8.34274e-08
8.85507e-09
-8.82426e-08
8.87962e-09
-9.30524e-08
8.88742e-09
-9.78455e-08
8.87493e-09
-1.02608e-07
8.83852e-09
8.77481e-09
-1.3268e-10
-2.09482e-10
-7.79892e-10
6.65731e-10
-2.08117e-09
2.18499e-09
-4.08693e-09
3.96642e-09
-6.79189e-09
5.77733e-09
-1.01512e-08
7.47494e-09
-1.40965e-08
8.98265e-09
-1.85481e-08
1.02696e-08
-2.34252e-08
1.13346e-08
-2.86512e-08
1.21937e-08
-3.41578e-08
1.2873e-08
-3.98866e-08
1.3402e-08
-4.57898e-08
1.38104e-08
-5.18291e-08
1.41257e-08
-5.7975e-08
1.43714e-08
-6.42051e-08
1.45669e-08
-7.05028e-08
1.47272e-08
-7.68553e-08
1.48628e-08
-8.3253e-08
1.49809e-08
-8.96873e-08
1.50849e-08
-9.61506e-08
1.5176e-08
-1.02635e-07
1.52528e-08
-1.0913e-07
1.53128e-08
-1.15627e-07
1.53518e-08
-1.22113e-07
1.53652e-08
-1.28573e-07
1.53477e-08
-1.34992e-07
1.52937e-08
-1.4135e-07
1.51973e-08
1.50534e-08
-3.30549e-10
1.21066e-10
-1.45446e-09
1.78964e-09
-3.43719e-09
4.16771e-09
-6.28603e-09
6.81526e-09
-9.96532e-09
9.4566e-09
-1.4409e-08
1.19187e-08
-1.9533e-08
1.41066e-08
-2.5245e-08
1.59816e-08
-3.14529e-08
1.75425e-08
-3.80704e-08
1.88112e-08
-4.502e-08
1.98226e-08
-5.22352e-08
2.06171e-08
-5.96602e-08
2.12355e-08
-6.72502e-08
2.17157e-08
-7.49694e-08
2.20906e-08
-8.27899e-08
2.23874e-08
-9.06899e-08
2.26272e-08
-9.86523e-08
2.28252e-08
-1.06663e-07
2.29914e-08
-1.14709e-07
2.31311e-08
-1.22779e-07
2.32459e-08
-1.3086e-07
2.33343e-08
-1.3894e-07
2.33925e-08
-1.47004e-07
2.34152e-08
-1.55034e-07
2.33958e-08
-1.63013e-07
2.33268e-08
-1.7092e-07
2.32006e-08
-1.78732e-07
2.30092e-08
2.27451e-08
-5.35733e-10
6.56797e-10
-2.16447e-09
3.41838e-09
-4.87233e-09
6.87557e-09
-8.61225e-09
1.05552e-08
-1.33099e-08
1.41543e-08
-1.88721e-08
1.74809e-08
-2.51953e-08
2.04298e-08
-3.21731e-08
2.29594e-08
-3.97024e-08
2.50719e-08
-4.76881e-08
2.67969e-08
-5.60452e-08
2.81797e-08
-6.47006e-08
2.92725e-08
-7.35927e-08
3.01277e-08
-8.26713e-08
3.07942e-08
-9.18955e-08
3.13148e-08
-1.01233e-07
3.17246e-08
-1.10657e-07
3.20512e-08
-1.20146e-07
3.23144e-08
-1.29682e-07
3.25274e-08
-1.39248e-07
3.26972e-08
-1.48828e-07
3.2826e-08
-1.58406e-07
3.29122e-08
-1.67964e-07
3.29509e-08
-1.77484e-07
3.29352e-08
-1.86946e-07
3.28569e-08
-1.96325e-07
3.27065e-08
-2.05599e-07
3.24742e-08
-2.1474e-07
3.215e-08
3.17246e-08
-7.41055e-10
1.39785e-09
-2.88402e-09
5.56134e-09
-6.33651e-09
1.03281e-08
-1.09919e-08
1.52106e-08
-1.67319e-08
1.98943e-08
-2.34316e-08
2.41805e-08
-3.09645e-08
2.79627e-08
-3.92081e-08
3.1203e-08
-4.80476e-08
3.39114e-08
-5.73792e-08
3.61284e-08
-6.71111e-08
3.79116e-08
-7.71647e-08
3.9326e-08
-8.74737e-08
4.04367e-08
-9.79834e-08
4.13039e-08
-1.08649e-07
4.19804e-08
-1.19434e-07
4.25095e-08
-1.30308e-07
4.29253e-08
-1.41246e-07
4.32522e-08
-1.52225e-07
4.35064e-08
-1.63224e-07
4.36969e-08
-1.74225e-07
4.38264e-08
-1.85206e-07
4.3893e-08
-1.96146e-07
4.3891e-08
-2.07023e-07
4.38122e-08
-2.17812e-07
4.36467e-08
-2.28489e-07
4.33833e-08
-2.39025e-07
4.30104e-08
-2.49392e-07
4.2516e-08
4.18895e-08
-9.43031e-10
2.34088e-09
-3.59969e-09
8.218e-09
-7.80109e-09
1.45295e-08
-1.33796e-08
2.07891e-08
-2.01701e-08
2.66848e-08
-2.80126e-08
3.2023e-08
-3.67554e-08
3.67054e-08
-4.62578e-08
4.07054e-08
-5.63923e-08
4.4046e-08
-6.70459e-08
4.6782e-08
-7.81203e-08
4.8986e-08
-8.95318e-08
5.07375e-08
-1.0121e-07
5.2115e-08
-1.13097e-07
5.31908e-08
-1.25144e-07
5.40277e-08
-1.37312e-07
5.46774e-08
-1.49567e-07
5.51802e-08
-1.6188e-07
5.55652e-08
-1.74225e-07
5.58517e-08
-1.86579e-07
5.60502e-08
-1.98916e-07
5.61642e-08
-2.11215e-07
5.61917e-08
-2.2345e-07
5.61262e-08
-2.35597e-07
5.59585e-08
-2.47627e-07
5.56774e-08
-2.59514e-07
5.52703e-08
-2.71228e-07
5.47243e-08
-2.82738e-07
5.40259e-08
5.31636e-08
-1.14054e-09
3.48142e-09
-4.30466e-09
1.13821e-08
-9.24977e-09
1.94746e-08
-1.57475e-08
2.72868e-08
-2.35845e-08
3.45218e-08
-3.25642e-08
4.10027e-08
-4.25077e-08
4.66489e-08
-5.32548e-08
5.14525e-08
-6.46641e-08
5.54553e-08
-7.6613e-08
5.87309e-08
-8.89965e-08
6.13696e-08
-1.01726e-07
6.34672e-08
-1.14728e-07
6.51169e-08
-1.27941e-07
6.64036e-08
-1.41314e-07
6.74004e-08
-1.54804e-07
6.81675e-08
-1.68375e-07
6.87513e-08
-1.81995e-07
6.91856e-08
-1.95636e-07
6.94925e-08
-2.0927e-07
6.96842e-08
-2.22871e-07
6.97651e-08
-2.36412e-07
6.97331e-08
-2.49868e-07
6.95814e-08
-2.63209e-07
6.93001e-08
-2.76409e-07
6.88771e-08
-2.89438e-07
6.82993e-08
-3.02266e-07
6.75527e-08
-3.14863e-07
6.66232e-08
6.54991e-08
-1.33329e-09
4.81471e-09
-4.99553e-09
1.50444e-08
-1.06732e-08
2.51523e-08
-1.80783e-08
3.46919e-08
-2.69491e-08
4.33927e-08
-3.70517e-08
5.11053e-08
-4.81789e-08
5.77761e-08
-6.015e-08
6.34235e-08
-7.28091e-08
6.81144e-08
-8.60234e-08
7.19452e-08
-9.96812e-08
7.50273e-08
-1.13689e-07
7.74751e-08
-1.2797e-07
7.93975e-08
-1.42459e-07
8.0893e-08
-1.57104e-07
8.20453e-08
-1.7186e-07
8.29231e-08
-1.86687e-07
8.35791e-08
-2.01553e-07
8.40514e-08
-2.16426e-07
8.43652e-08
-2.31276e-07
8.45344e-08
-2.46075e-07
8.45644e-08
-2.60796e-07
8.44533e-08
-2.75409e-07
8.41945e-08
-2.89887e-07
8.37781e-08
-3.04201e-07
8.31918e-08
-3.18325e-07
8.24226e-08
-3.32228e-07
8.14564e-08
-3.45885e-07
8.02793e-08
7.888e-08
-1.52126e-09
6.33597e-09
-5.6706e-09
1.91937e-08
-1.2066e-08
3.15477e-08
-2.03611e-08
4.2987e-08
-3.02468e-08
5.32784e-08
-4.14512e-08
6.23098e-08
-5.37389e-08
7.00638e-08
-6.6908e-08
7.65926e-08
-8.07877e-08
8.1994e-08
-9.52346e-08
8.63921e-08
-1.1013e-07
8.99227e-08
-1.25376e-07
9.27208e-08
-1.40891e-07
9.49131e-08
-1.5661e-07
9.66118e-08
-1.72477e-07
9.79124e-08
-1.88446e-07
9.88917e-08
-2.04476e-07
9.96091e-08
-2.20531e-07
1.00107e-07
-2.3658e-07
1.00414e-07
-2.5259e-07
1.00545e-07
-2.68534e-07
1.00508e-07
-2.84381e-07
1.00301e-07
-3.00105e-07
9.99182e-08
-3.15678e-07
9.9351e-08
-3.31074e-07
9.85877e-08
-3.46267e-07
9.7616e-08
-3.61234e-07
9.64232e-08
-3.75951e-07
9.49961e-08
9.33252e-08
-1.70448e-09
8.04045e-09
-6.32891e-09
2.38181e-08
-1.34249e-08
3.86436e-08
-2.25891e-08
5.21513e-08
-3.34659e-08
6.41552e-08
-4.57465e-08
7.45903e-08
-5.91666e-08
8.3484e-08
-7.35034e-08
9.09295e-08
-8.85709e-08
9.70614e-08
-1.04215e-07
1.02036e-07
-1.2031e-07
1.06018e-07
-1.36754e-07
1.09164e-07
-1.53461e-07
1.11621e-07
-1.70365e-07
1.13515e-07
-1.87407e-07
1.14955e-07
-2.0454e-07
1.16025e-07
-2.21724e-07
1.16792e-07
-2.3892e-07
1.17304e-07
-2.56097e-07
1.1759e-07
-2.73222e-07
1.1767e-07
-2.90267e-07
1.17552e-07
-3.07204e-07
1.17238e-07
-3.24007e-07
1.16721e-07
-3.40652e-07
1.15996e-07
-3.57117e-07
1.15053e-07
-3.73382e-07
1.13881e-07
-3.89429e-07
1.1247e-07
-4.05242e-07
1.10809e-07
1.08891e-07
-1.88296e-09
9.9234e-09
-6.96986e-09
2.8905e-08
-1.47476e-08
4.64213e-08
-2.47577e-08
6.21614e-08
-3.65989e-08
7.59963e-08
-4.9926e-08
8.79174e-08
-6.4447e-08
9.8005e-08
-7.99181e-08
1.06401e-07
-9.61381e-08
1.13281e-07
-1.12943e-07
1.18841e-07
-1.30199e-07
1.23274e-07
-1.478e-07
1.26765e-07
-1.65658e-07
1.29479e-07
-1.83703e-07
1.3156e-07
-2.01877e-07
1.33129e-07
-2.20132e-07
1.3428e-07
-2.38426e-07
1.35086e-07
-2.56722e-07
1.356e-07
-2.74987e-07
1.35855e-07
-2.93192e-07
1.35875e-07
-3.11309e-07
1.35669e-07
-3.29312e-07
1.35242e-07
-3.47182e-07
1.34591e-07
-3.64897e-07
1.33712e-07
-3.82444e-07
1.32599e-07
-3.99809e-07
1.31246e-07
-4.16985e-07
1.29646e-07
-4.33966e-07
1.2779e-07
1.25676e-07
-2.05665e-09
1.19801e-08
-7.59295e-09
3.44413e-08
-1.60326e-08
5.4861e-08
-2.68634e-08
7.29922e-08
-3.96399e-08
8.87728e-08
-5.39817e-08
1.02259e-07
-6.95694e-08
1.13593e-07
-8.6139e-08
1.2297e-07
-1.03474e-07
1.30617e-07
-1.21401e-07
1.36768e-07
-1.3978e-07
1.41653e-07
-1.58498e-07
1.45483e-07
-1.77467e-07
1.48447e-07
-1.96614e-07
1.50707e-07
-2.1588e-07
1.52396e-07
-2.35218e-07
1.53618e-07
-2.54586e-07
1.54454e-07
-2.73948e-07
1.54962e-07
-2.93273e-07
1.5518e-07
-3.12534e-07
1.55136e-07
-3.31707e-07
1.54842e-07
-3.50771e-07
1.54306e-07
-3.69712e-07
1.53531e-07
-3.88518e-07
1.52518e-07
-4.07184e-07
1.51265e-07
-4.25708e-07
1.49771e-07
-4.44096e-07
1.48033e-07
-4.62354e-07
1.46048e-07
1.43818e-07
-2.22547e-09
1.42055e-08
-8.19764e-09
4.04135e-08
-1.72785e-08
6.39418e-08
-2.89037e-08
8.46174e-08
-4.25849e-08
1.02454e-07
-5.79076e-08
1.17582e-07
-7.45262e-08
1.30211e-07
-9.2157e-08
1.40601e-07
-1.1057e-07
1.4903e-07
-1.2958e-07
1.55779e-07
-1.49042e-07
1.61115e-07
-1.6884e-07
1.6528e-07
-1.88881e-07
1.68488e-07
-2.09092e-07
1.70919e-07
-2.29416e-07
1.7272e-07
-2.49805e-07
1.74006e-07
-2.70217e-07
1.74866e-07
-2.9062e-07
1.75365e-07
-3.10986e-07
1.75546e-07
-3.31291e-07
1.75441e-07
-3.51518e-07
1.75068e-07
-3.71653e-07
1.74442e-07
-3.91691e-07
1.7357e-07
-4.11632e-07
1.72459e-07
-4.31482e-07
1.71115e-07
-4.51255e-07
1.69544e-07
-4.7097e-07
1.67749e-07
-4.90655e-07
1.65732e-07
1.63503e-07
-2.38928e-09
1.65948e-08
-8.78339e-09
4.68076e-08
-1.84841e-08
7.36425e-08
-3.08763e-08
9.70097e-08
-4.54304e-08
1.17008e-07
-6.16991e-08
1.33851e-07
-7.93117e-08
1.47824e-07
-9.79655e-08
1.59255e-07
-1.17417e-07
1.68481e-07
-1.37473e-07
1.75834e-07
-1.5798e-07
1.81622e-07
-1.78819e-07
1.86119e-07
-1.99897e-07
1.89566e-07
-2.2114e-07
1.92162e-07
-2.4249e-07
1.9407e-07
-2.63901e-07
1.95417e-07
-2.85336e-07
1.96301e-07
-3.06763e-07
1.96792e-07
-3.28161e-07
1.96944e-07
-3.49512e-07
1.96792e-07
-3.70806e-07
1.96363e-07
-3.92042e-07
1.95677e-07
-4.13224e-07
1.94752e-07
-4.34366e-07
1.93602e-07
-4.55493e-07
1.92241e-07
-4.76635e-07
1.90685e-07
-4.97831e-07
1.88946e-07
-5.1913e-07
1.87031e-07
1.84956e-07
-2.54789e-09
1.91427e-08
-9.34954e-09
5.36092e-08
-1.9648e-08
8.39409e-08
-3.27791e-08
1.10141e-07
-4.81734e-08
1.32402e-07
-6.53524e-08
1.5103e-07
-8.39211e-08
1.66393e-07
-1.03559e-07
1.78893e-07
-1.24011e-07
1.88933e-07
-1.45073e-07
1.96897e-07
-1.66589e-07
2.03137e-07
-1.88435e-07
2.07965e-07
-2.10516e-07
2.11648e-07
-2.32761e-07
2.14407e-07
-2.55111e-07
2.1642e-07
-2.77523e-07
2.1783e-07
-2.99964e-07
2.18742e-07
-3.22409e-07
2.19237e-07
-3.44841e-07
2.19376e-07
-3.67252e-07
2.19203e-07
-3.89643e-07
2.18754e-07
-4.12024e-07
2.18059e-07
-4.34417e-07
2.17145e-07
-4.56854e-07
2.16038e-07
-4.79377e-07
2.14764e-07
-5.02039e-07
2.13348e-07
-5.24905e-07
2.11811e-07
-5.48043e-07
2.10169e-07
2.08447e-07
-2.70106e-09
2.18438e-08
-9.89535e-09
6.08035e-08
-2.07688e-08
9.48143e-08
-3.46099e-08
1.23982e-07
-5.08111e-08
1.48604e-07
-6.88639e-08
1.69082e-07
-8.83507e-08
1.8588e-07
-1.08935e-07
1.99477e-07
-1.30347e-07
2.10346e-07
-1.52379e-07
2.18929e-07
-1.74867e-07
2.25625e-07
-1.97686e-07
2.30784e-07
-2.20741e-07
2.34703e-07
-2.4396e-07
2.37626e-07
-2.67289e-07
2.39749e-07
-2.90687e-07
2.41228e-07
-3.14127e-07
2.42181e-07
-3.3759e-07
2.427e-07
-3.61069e-07
2.42855e-07
-3.84567e-07
2.42701e-07
-4.08099e-07
2.42285e-07
-4.31691e-07
2.41651e-07
-4.55383e-07
2.40837e-07
-4.79228e-07
2.39884e-07
-5.03294e-07
2.3883e-07
-5.27659e-07
2.37713e-07
-5.52413e-07
2.36565e-07
-5.77653e-07
2.3541e-07
2.34281e-07
-2.84854e-09
2.46923e-08
-1.042e-08
6.8375e-08
-2.18449e-08
1.06239e-07
-3.63664e-08
1.38504e-07
-5.33404e-08
1.65578e-07
-7.22302e-08
1.87972e-07
-9.25967e-08
2.06246e-07
-1.14087e-07
2.20967e-07
-1.36423e-07
2.32682e-07
-1.59388e-07
2.41893e-07
-1.82814e-07
2.49051e-07
-2.06575e-07
2.54545e-07
-2.30576e-07
2.58704e-07
-2.54746e-07
2.61796e-07
-2.79036e-07
2.64039e-07
-3.03411e-07
2.65602e-07
-3.27848e-07
2.66618e-07
-3.5234e-07
2.67192e-07
-3.7689e-07
2.67404e-07
-4.01514e-07
2.67326e-07
-4.26245e-07
2.67016e-07
-4.51128e-07
2.66534e-07
-4.76227e-07
2.65935e-07
-5.01619e-07
2.65276e-07
-5.27399e-07
2.6461e-07
-5.53675e-07
2.63989e-07
-5.80566e-07
2.63455e-07
-6.08199e-07
2.63043e-07
2.62801e-07
-2.99001e-09
2.76823e-08
-1.09224e-08
7.63074e-08
-2.28746e-08
1.18191e-07
-3.80461e-08
1.53675e-07
-5.57582e-08
1.8329e-07
-7.54475e-08
2.07661e-07
-9.6655e-08
2.27454e-07
-1.19014e-07
2.43326e-07
-1.42235e-07
2.55903e-07
-1.66097e-07
2.65754e-07
-1.90427e-07
2.73382e-07
-2.15101e-07
2.79218e-07
-2.40022e-07
2.83626e-07
-2.65126e-07
2.869e-07
-2.90364e-07
2.89278e-07
-3.15711e-07
2.90948e-07
-3.41152e-07
2.9206e-07
-3.6669e-07
2.9273e-07
-3.92344e-07
2.93058e-07
-4.18146e-07
2.93128e-07
-4.44149e-07
2.93019e-07
-4.70421e-07
2.92806e-07
-4.97051e-07
2.92565e-07
-5.24147e-07
2.92372e-07
-5.51834e-07
2.92298e-07
-5.80252e-07
2.92408e-07
-6.09551e-07
2.92754e-07
-6.399e-07
2.93392e-07
-3.1251e-09
3.08074e-08
-1.14016e-08
8.45839e-08
-2.38558e-08
1.30646e-07
-3.9646e-08
1.69465e-07
-5.80607e-08
2.01704e-07
-7.85116e-08
2.28112e-07
-1.00521e-07
2.49463e-07
-1.2371e-07
2.66514e-07
-1.47779e-07
2.79973e-07
-1.72502e-07
2.90477e-07
-1.97706e-07
2.98586e-07
-2.23264e-07
3.04776e-07
-2.49084e-07
3.09446e-07
-2.75103e-07
3.12919e-07
-3.01282e-07
3.15457e-07
-3.27601e-07
3.17267e-07
-3.54058e-07
3.18517e-07
-3.80669e-07
3.19341e-07
-4.07469e-07
3.19858e-07
-4.34511e-07
3.2017e-07
-4.61869e-07
3.20377e-07
-4.8964e-07
3.20577e-07
-5.17943e-07
3.20868e-07
-5.46916e-07
3.21346e-07
-5.76721e-07
3.22102e-07
-6.07532e-07
3.23219e-07
-6.39537e-07
3.24759e-07
3.26794e-07
-3.25343e-09
3.40608e-08
-1.18562e-08
9.31867e-08
-2.47863e-08
1.43576e-07
-4.11627e-08
1.85842e-07
-6.02437e-08
2.20785e-07
-8.14175e-08
2.49286e-07
-1.0419e-07
2.72236e-07
-1.28169e-07
2.90493e-07
-1.5305e-07
3.04854e-07
-1.786e-07
3.16027e-07
-2.04646e-07
3.24632e-07
-2.31062e-07
3.31192e-07
-2.57759e-07
3.36143e-07
-2.84681e-07
3.39841e-07
-3.11795e-07
3.42571e-07
-3.39092e-07
3.44564e-07
-3.66582e-07
3.46007e-07
-3.94298e-07
3.47057e-07
-4.22294e-07
3.47853e-07
-4.50645e-07
3.48521e-07
-4.79454e-07
3.49186e-07
-5.08846e-07
3.49969e-07
-5.38974e-07
3.50996e-07
-5.70013e-07
3.52385e-07
-6.02159e-07
3.54249e-07
-6.35627e-07
3.56686e-07
-6.70639e-07
3.59771e-07
3.63583e-07
-3.37452e-09
3.74354e-08
-1.22849e-08
1.02097e-07
-2.56633e-08
1.56954e-07
-4.25925e-08
2.02771e-07
-6.23023e-08
2.40495e-07
-8.41596e-08
2.71143e-07
-1.07655e-07
2.95731e-07
-1.32385e-07
3.15224e-07
-1.5804e-07
3.30508e-07
-1.84383e-07
3.4237e-07
-2.11241e-07
3.5149e-07
-2.3849e-07
3.58441e-07
-2.66046e-07
3.637e-07
-2.93859e-07
3.67654e-07
-3.21906e-07
3.70618e-07
-3.50188e-07
3.72847e-07
-3.78733e-07
3.74552e-07
-4.07591e-07
3.75915e-07
-4.36838e-07
3.77099e-07
-4.66576e-07
3.78259e-07
-4.96937e-07
3.79546e-07
-5.28079e-07
3.81112e-07
-5.60193e-07
3.83109e-07
-5.9349e-07
3.85682e-07
-6.28206e-07
3.88965e-07
-6.64593e-07
3.93073e-07
-7.02909e-07
3.98086e-07
4.04089e-07
-3.48788e-09
4.09232e-08
-1.2686e-08
1.11295e-07
-2.6484e-08
1.70752e-07
-4.3931e-08
2.20218e-07
-6.42307e-08
2.60795e-07
-8.67308e-08
2.93643e-07
-1.10908e-07
3.19908e-07
-1.3635e-07
3.40666e-07
-1.62741e-07
3.56899e-07
-1.89843e-07
3.69473e-07
-2.17483e-07
3.7913e-07
-2.45541e-07
3.86498e-07
-2.73937e-07
3.92096e-07
-3.02631e-07
3.96347e-07
-3.31609e-07
3.99596e-07
-3.60888e-07
4.02126e-07
-3.90512e-07
4.04176e-07
-4.20552e-07
4.05955e-07
-4.51109e-07
4.07656e-07
-4.82314e-07
4.09464e-07
-5.14332e-07
4.11564e-07
-5.47358e-07
4.14138e-07
-5.81618e-07
4.17369e-07
-6.17365e-07
4.21429e-07
-6.54875e-07
4.26475e-07
-6.94434e-07
4.32632e-07
-7.36334e-07
4.39986e-07
4.48616e-07
-3.59294e-09
4.45162e-08
-1.30576e-08
1.2076e-07
-2.72449e-08
1.84939e-07
-4.51731e-08
2.38146e-07
-6.60225e-08
2.81644e-07
-8.91234e-08
3.16744e-07
-1.1394e-07
3.44725e-07
-1.40054e-07
3.6678e-07
-1.67143e-07
3.83989e-07
-1.94969e-07
3.97299e-07
-2.23361e-07
4.07522e-07
-2.52202e-07
4.1534e-07
-2.81421e-07
4.21315e-07
-3.10985e-07
4.25911e-07
-3.40895e-07
4.29506e-07
-3.71183e-07
4.32413e-07
-4.0191e-07
4.34904e-07
-4.33174e-07
4.37218e-07
-4.651e-07
4.39583e-07
-4.97854e-07
4.42218e-07
-5.31633e-07
4.45343e-07
-5.66671e-07
4.49176e-07
-6.03234e-07
4.53932e-07
-6.41616e-07
4.59811e-07
-6.8213e-07
4.66988e-07
-7.25096e-07
4.75598e-07
-7.70834e-07
4.85724e-07
4.97434e-07
-3.68908e-09
4.82053e-08
-1.33979e-08
1.30469e-07
-2.79423e-08
1.99484e-07
-4.63132e-08
2.56517e-07
-6.76701e-08
3.03001e-07
-9.13282e-08
3.40402e-07
-1.16741e-07
3.70138e-07
-1.43484e-07
3.93522e-07
-1.71231e-07
4.11736e-07
-1.99746e-07
4.25813e-07
-2.28859e-07
4.36634e-07
-2.58458e-07
4.44939e-07
-2.88481e-07
4.51338e-07
-3.18905e-07
4.56336e-07
-3.49746e-07
4.60346e-07
-3.81052e-07
4.63719e-07
-4.12908e-07
4.6676e-07
-4.45434e-07
4.69745e-07
-4.78789e-07
4.72937e-07
-5.13168e-07
4.76597e-07
-5.48807e-07
4.80982e-07
-5.8598e-07
4.86349e-07
-6.24992e-07
4.92944e-07
-6.66176e-07
5.00995e-07
-7.09879e-07
5.10692e-07
-7.56455e-07
5.22174e-07
-8.06244e-07
5.35514e-07
5.50759e-07
-3.7756e-09
5.19809e-08
-1.37047e-08
1.40398e-07
-2.85721e-08
2.14351e-07
-4.73451e-08
2.7529e-07
-6.91653e-08
3.24822e-07
-9.33348e-08
3.64572e-07
-1.19299e-07
3.96102e-07
-1.46626e-07
4.2085e-07
-1.74992e-07
4.40102e-07
-2.04157e-07
4.54979e-07
-2.33958e-07
4.66435e-07
-2.64288e-07
4.75269e-07
-2.95095e-07
4.82145e-07
-3.26367e-07
4.87608e-07
-3.58136e-07
4.92115e-07
-3.90469e-07
4.96053e-07
-4.23474e-07
4.99765e-07
-4.57299e-07
5.0357e-07
-4.92134e-07
5.07772e-07
-5.28209e-07
5.12672e-07
-5.65798e-07
5.18571e-07
-6.05213e-07
5.25765e-07
-6.468e-07
5.34531e-07
-6.90927e-07
5.45122e-07
-7.37975e-07
5.57739e-07
-7.88319e-07
5.72519e-07
-8.42318e-07
5.89512e-07
6.08736e-07
-3.85178e-09
5.58326e-08
-1.39754e-08
1.50521e-07
-2.91297e-08
2.29505e-07
-4.82619e-08
2.94422e-07
-7.04988e-08
3.47058e-07
-9.51318e-08
3.89205e-07
-1.21599e-07
4.22569e-07
-1.49466e-07
4.48716e-07
-1.78406e-07
4.69042e-07
-2.08183e-07
4.84756e-07
-2.38636e-07
4.96888e-07
-2.69669e-07
5.06302e-07
-3.01236e-07
5.13712e-07
-3.33341e-07
5.19713e-07
-3.66031e-07
5.24804e-07
-3.99395e-07
5.29417e-07
-4.33565e-07
5.33936e-07
-4.68718e-07
5.38723e-07
-5.05076e-07
5.44129e-07
-5.42905e-07
5.50501e-07
-5.82517e-07
5.58184e-07
-6.24263e-07
5.6751e-07
-6.68525e-07
5.78792e-07
-7.15703e-07
5.923e-07
-7.66204e-07
6.0824e-07
-8.20423e-07
6.26737e-07
-8.78721e-07
6.4781e-07
6.7143e-07
-3.91683e-09
5.97495e-08
-1.42076e-08
1.60812e-07
-2.96103e-08
2.44908e-07
-4.90563e-08
3.13868e-07
-7.16606e-08
3.69663e-07
-9.67064e-08
4.14251e-07
-1.23627e-07
4.49489e-07
-1.51984e-07
4.77074e-07
-1.81453e-07
4.9851e-07
-2.11799e-07
5.15102e-07
-2.42868e-07
5.27957e-07
-2.74569e-07
5.38003e-07
-3.0687e-07
5.46013e-07
-3.39789e-07
5.52631e-07
-3.73388e-07
5.58404e-07
-4.07781e-07
5.63809e-07
-4.43124e-07
5.69279e-07
-4.79624e-07
5.75223e-07
-5.17536e-07
5.82041e-07
-5.57162e-07
5.90128e-07
-5.98851e-07
5.99872e-07
-6.42988e-07
6.11648e-07
-6.89989e-07
6.25794e-07
-7.40283e-07
6.42594e-07
-7.94295e-07
6.62252e-07
-8.52427e-07
6.84869e-07
-9.15034e-07
7.10417e-07
7.3881e-07
-3.96993e-09
6.37194e-08
-1.43987e-08
1.71241e-07
-3.00088e-08
2.60518e-07
-4.97203e-08
3.3358e-07
-7.26398e-08
3.92582e-07
-9.80448e-08
4.39656e-07
-1.25365e-07
4.76809e-07
-1.54162e-07
5.05871e-07
-1.8411e-07
5.28459e-07
-2.1498e-07
5.45972e-07
-2.46623e-07
5.596e-07
-2.78957e-07
5.70337e-07
-3.1196e-07
5.79017e-07
-3.45666e-07
5.86337e-07
-3.80158e-07
5.92896e-07
-4.15569e-07
5.9922e-07
-4.52083e-07
6.05793e-07
-4.89937e-07
6.13076e-07
-5.29417e-07
6.21521e-07
-5.70861e-07
6.31572e-07
-6.14653e-07
6.43664e-07
-6.61211e-07
6.58206e-07
-7.10977e-07
6.7556e-07
-7.64401e-07
6.96018e-07
-8.21918e-07
7.1977e-07
-8.83927e-07
7.46878e-07
-9.50765e-07
7.77256e-07
8.10738e-07
-4.01022e-09
6.77296e-08
-1.45457e-08
1.81776e-07
-3.03197e-08
2.76292e-07
-5.02455e-08
3.53506e-07
-7.34251e-08
4.15762e-07
-9.91325e-08
4.65363e-07
-1.26796e-07
5.04473e-07
-1.55977e-07
5.35052e-07
-1.86353e-07
5.58835e-07
-2.17697e-07
5.77317e-07
-2.49868e-07
5.9177e-07
-2.82792e-07
6.03262e-07
-3.16462e-07
6.12686e-07
-3.50924e-07
6.208e-07
-3.86281e-07
6.28253e-07
-4.2269e-07
6.35629e-07
-4.6036e-07
6.43464e-07
-4.99558e-07
6.52274e-07
-5.40602e-07
6.62565e-07
-5.83862e-07
6.74832e-07
-6.29753e-07
6.89555e-07
-6.78721e-07
7.07173e-07
-7.31229e-07
7.28069e-07
-7.8774e-07
7.52529e-07
-8.48689e-07
7.80718e-07
-9.14458e-07
8.12648e-07
-9.85355e-07
8.48152e-07
8.86974e-07
-4.03684e-09
7.17665e-08
-1.46459e-08
1.92386e-07
-3.05375e-08
2.92184e-07
-5.06235e-08
3.73592e-07
-7.40045e-08
4.39143e-07
-9.99543e-08
4.91313e-07
-1.27901e-07
5.32419e-07
-1.57408e-07
5.64559e-07
-1.88154e-07
5.89581e-07
-2.1992e-07
6.09082e-07
-2.52567e-07
6.24418e-07
-2.86035e-07
6.3673e-07
-3.20327e-07
6.46978e-07
-3.55505e-07
6.55978e-07
-3.91692e-07
6.6444e-07
-4.29066e-07
6.73002e-07
-4.67863e-07
6.82261e-07
-5.08377e-07
6.92788e-07
-5.50957e-07
7.05145e-07
-5.96002e-07
7.19878e-07
-6.43953e-07
7.37506e-07
-6.95279e-07
7.58499e-07
-7.50456e-07
7.83246e-07
-8.09949e-07
8.12022e-07
-8.74181e-07
8.4495e-07
-9.43509e-07
8.81976e-07
-1.01819e-06
9.22838e-07
9.67165e-07
-4.04892e-09
7.58154e-08
-1.46964e-08
2.03033e-07
-3.06568e-08
3.08144e-07
-5.08454e-08
3.9378e-07
-7.4366e-08
4.62663e-07
-1.00494e-07
5.17441e-07
-1.2866e-07
5.60585e-07
-1.5843e-07
5.94329e-07
-1.89487e-07
6.20638e-07
-2.21614e-07
6.41209e-07
-2.54683e-07
6.57487e-07
-2.88641e-07
6.70688e-07
-3.23503e-07
6.8184e-07
-3.59349e-07
6.91824e-07
-3.96318e-07
7.01409e-07
-4.34611e-07
7.11296e-07
-4.74489e-07
7.22139e-07
-5.16272e-07
7.34571e-07
-5.60334e-07
7.49208e-07
-6.07102e-07
7.66645e-07
-6.57036e-07
7.8744e-07
-7.1062e-07
8.12083e-07
-7.68336e-07
8.40962e-07
-8.30641e-07
8.74327e-07
-8.97935e-07
9.12245e-07
-9.70536e-07
9.54576e-07
-1.04865e-06
1.00095e-06
1.05086e-06
-4.04562e-09
7.9861e-08
-1.46944e-08
2.13682e-07
-3.06718e-08
3.24121e-07
-5.09027e-08
4.14011e-07
-7.44973e-08
4.86258e-07
-1.00737e-07
5.4368e-07
-1.29054e-07
5.88903e-07
-1.5902e-07
6.24295e-07
-1.90321e-07
6.51939e-07
-2.22747e-07
6.73635e-07
-2.56175e-07
6.90915e-07
-2.90562e-07
7.05075e-07
-3.25935e-07
7.17214e-07
-3.62389e-07
7.28278e-07
-4.00082e-07
7.39102e-07
-4.39233e-07
7.50447e-07
-4.80128e-07
7.63033e-07
-5.23108e-07
7.77551e-07
-5.68573e-07
7.94672e-07
-6.16967e-07
8.15039e-07
-6.68766e-07
8.3924e-07
-7.24462e-07
8.67778e-07
-7.84532e-07
9.01032e-07
-8.49413e-07
9.39208e-07
-9.19474e-07
9.82306e-07
-9.94979e-07
1.03008e-06
-1.07606e-06
1.08203e-06
1.13751e-06
-4.02615e-09
8.38871e-08
-1.46372e-08
2.24293e-07
-3.05774e-08
3.40062e-07
-5.07868e-08
4.34221e-07
-7.43867e-08
5.09858e-07
-1.00666e-07
5.69959e-07
-1.29063e-07
6.17301e-07
-1.59154e-07
6.54385e-07
-1.90629e-07
6.83414e-07
-2.23283e-07
7.06289e-07
-2.57002e-07
7.24633e-07
-2.9175e-07
7.39823e-07
-3.27566e-07
7.5303e-07
-3.64559e-07
7.6527e-07
-4.02902e-07
7.77445e-07
-4.42836e-07
7.90381e-07
-4.84663e-07
8.0486e-07
-5.28746e-07
8.21634e-07
-5.75503e-07
8.41429e-07
-6.25392e-07
8.64928e-07
-6.78899e-07
8.92746e-07
-7.3651e-07
9.2539e-07
-7.98692e-07
9.63213e-07
-8.65852e-07
1.00637e-06
-9.38314e-07
1.05477e-06
-1.01628e-06
1.10805e-06
-1.09981e-06
1.16556e-06
1.22648e-06
-3.98976e-09
8.78769e-08
-1.45222e-08
2.34825e-07
-3.03686e-08
3.55908e-07
-5.04899e-08
4.54342e-07
-7.40226e-08
5.3339e-07
-1.00266e-07
5.96203e-07
-1.28668e-07
6.45703e-07
-1.58807e-07
6.84525e-07
-1.90381e-07
7.14987e-07
-2.23189e-07
7.39097e-07
-2.57123e-07
7.58567e-07
-2.92156e-07
7.74856e-07
-3.28338e-07
7.89212e-07
-3.65788e-07
8.02721e-07
-4.04697e-07
8.16353e-07
-4.45319e-07
8.31003e-07
-4.87974e-07
8.47515e-07
-5.33042e-07
8.66702e-07
-5.80952e-07
8.89339e-07
-6.32171e-07
9.16147e-07
-6.87184e-07
9.47759e-07
-7.46469e-07
9.84675e-07
-8.10466e-07
1.02721e-06
-8.79549e-07
1.07545e-06
-9.53984e-07
1.1292e-06
-1.0339e-06
1.18797e-06
-1.11928e-06
1.25093e-06
1.3171e-06
-3.93582e-09
9.18127e-08
-1.43474e-08
2.45237e-07
-3.00409e-08
3.71602e-07
-5.00045e-08
4.74305e-07
-7.33947e-08
5.56781e-07
-9.95244e-08
6.22333e-07
-1.2785e-07
6.74029e-07
-1.57958e-07
7.14632e-07
-1.8955e-07
7.46579e-07
-2.22431e-07
7.71978e-07
-2.56498e-07
7.92634e-07
-2.91733e-07
8.1009e-07
-3.28193e-07
8.25672e-07
-3.66009e-07
8.40537e-07
-4.05383e-07
8.55727e-07
-4.46583e-07
8.72203e-07
-4.89942e-07
8.90874e-07
-5.3585e-07
9.1261e-07
-5.84745e-07
9.38234e-07
-6.37094e-07
9.68496e-07
-6.93374e-07
1.00404e-06
-7.54045e-07
1.04535e-06
-8.19516e-07
1.09268e-06
-8.90112e-07
1.14605e-06
-9.66038e-07
1.20513e-06
-1.04735e-06
1.26928e-06
-1.13393e-06
1.33751e-06
1.40863e-06
-3.8638e-09
9.56765e-08
-1.41107e-08
2.55484e-07
-2.95904e-08
3.87081e-07
-4.93244e-08
4.94039e-07
-7.24934e-08
5.7995e-07
-9.84271e-08
6.48266e-07
-1.26593e-07
7.02195e-07
-1.56585e-07
7.44624e-07
-1.88109e-07
7.78104e-07
-2.20977e-07
8.04845e-07
-2.55089e-07
8.26747e-07
-2.90434e-07
8.45435e-07
-3.27075e-07
8.62313e-07
-3.65153e-07
8.78615e-07
-4.04879e-07
8.95453e-07
-4.46531e-07
9.13855e-07
-4.90449e-07
9.34793e-07
-5.37031e-07
9.59192e-07
-5.86714e-07
9.87917e-07
-6.39961e-07
1.02174e-06
-6.97233e-07
1.06131e-06
-7.58964e-07
1.10708e-06
-8.25522e-07
1.15924e-06
-8.97179e-07
1.2177e-06
-9.74072e-07
1.28202e-06
-1.05618e-06
1.35138e-06
-1.14328e-06
1.42461e-06
1.50033e-06
-3.77333e-09
9.94499e-08
-1.38108e-08
2.65521e-07
-2.90139e-08
4.02284e-07
-4.84441e-08
5.1347e-07
-7.13108e-08
6.02816e-07
-9.69633e-08
6.73919e-07
-1.24882e-07
7.30113e-07
-1.54669e-07
7.74411e-07
-1.86036e-07
8.09471e-07
-2.18798e-07
8.37607e-07
-2.52861e-07
8.6081e-07
-2.88216e-07
8.8079e-07
-3.24933e-07
8.99031e-07
-3.63159e-07
9.16841e-07
-4.0311e-07
9.35404e-07
-4.4507e-07
9.55815e-07
-4.89386e-07
9.79108e-07
-5.36452e-07
1.00626e-06
-5.86702e-07
1.03817e-06
-6.40585e-07
1.07563e-06
-6.98543e-07
1.11927e-06
-7.60972e-07
1.16951e-06
-8.28197e-07
1.22647e-06
-9.0043e-07
1.28994e-06
-9.77736e-07
1.35933e-06
-1.06001e-06
1.43366e-06
-1.14695e-06
1.51155e-06
1.59143e-06
-3.66422e-09
1.03114e-07
-1.34467e-08
2.75304e-07
-2.83093e-08
4.17147e-07
-4.73597e-08
5.3252e-07
-6.98406e-08
6.25297e-07
-9.5124e-08
6.99202e-07
-1.22705e-07
7.57694e-07
-1.52194e-07
8.039e-07
-1.8331e-07
8.40587e-07
-2.15869e-07
8.70167e-07
-2.49782e-07
8.94722e-07
-2.8504e-07
9.16048e-07
-3.21719e-07
9.3571e-07
-3.59968e-07
9.55089e-07
-4.00005e-07
9.75441e-07
-4.42117e-07
9.97927e-07
-4.86648e-07
1.02364e-06
-5.3399e-07
1.0536e-06
-5.84563e-07
1.08874e-06
-6.38798e-07
1.12986e-06
-6.97106e-07
1.17758e-06
-7.59847e-07
1.23225e-06
-8.27293e-07
1.29391e-06
-8.99593e-07
1.36224e-06
-9.76742e-07
1.43648e-06
-1.05855e-06
1.51547e-06
-1.14465e-06
1.59764e-06
1.68121e-06
-3.53654e-09
1.06651e-07
-1.30182e-08
2.84785e-07
-2.74755e-08
4.31604e-07
-4.60688e-08
5.51113e-07
-6.80786e-08
6.47307e-07
-9.29027e-08
7.24027e-07
-1.20053e-07
7.84844e-07
-1.49148e-07
8.32996e-07
-1.79914e-07
8.71352e-07
-2.12169e-07
9.02422e-07
-2.45824e-07
9.28377e-07
-2.80874e-07
9.51098e-07
-3.17393e-07
9.72229e-07
-3.5553e-07
9.93226e-07
-3.95503e-07
1.01542e-06
-4.37597e-07
1.04002e-06
-4.82149e-07
1.06819e-06
-5.29539e-07
1.10099e-06
-5.80172e-07
1.13937e-06
-6.34453e-07
1.18414e-06
-6.92759e-07
1.23588e-06
-7.55405e-07
1.29489e-06
-8.22609e-07
1.36112e-06
-8.94457e-07
1.43408e-06
-9.70874e-07
1.51289e-06
-1.0516e-06
1.5962e-06
-1.13618e-06
1.68222e-06
1.76898e-06
-3.3906e-09
1.10041e-07
-1.2526e-08
2.93921e-07
-2.65126e-08
4.45591e-07
-4.45706e-08
5.69171e-07
-6.60226e-08
6.68759e-07
-9.02952e-08
7.48299e-07
-1.16918e-07
8.11467e-07
-1.45522e-07
8.616e-07
-1.75835e-07
9.01666e-07
-2.0768e-07
9.34267e-07
-2.40967e-07
9.61664e-07
-2.7569e-07
9.8582e-07
-3.11919e-07
1.00846e-06
-3.49802e-07
1.03111e-06
-3.89553e-07
1.05517e-06
-4.31447e-07
1.08192e-06
-4.75812e-07
1.11256e-06
-5.23011e-07
1.14819e-06
-5.73427e-07
1.18979e-06
-6.27434e-07
1.23815e-06
-6.85371e-07
1.29382e-06
-7.47504e-07
1.35703e-06
-8.13997e-07
1.42761e-06
-8.84873e-07
1.50496e-06
-9.59993e-07
1.58801e-06
-1.03903e-06
1.67523e-06
-1.12146e-06
1.76465e-06
1.85408e-06
-3.22626e-09
-1.19704e-08
-2.54219e-08
4.59042e-07
-4.28659e-08
5.86615e-07
-6.36726e-08
6.89566e-07
-8.73002e-08
7.71927e-07
-1.13298e-07
8.37465e-07
-1.41309e-07
8.8961e-07
-1.71066e-07
9.31423e-07
-2.02391e-07
9.65593e-07
-2.35194e-07