/*--------------------------------*- C++ -*----------------------------------*\
  =========                 |
  \\      /  F ield         | OpenFOAM: The Open Source CFD Toolbox
   \\    /   O peration     | Website:  https://openfoam.org
    \\  /    A nd           | Version:  9
     \\/     M anipulation  |
\*---------------------------------------------------------------------------*/
FoamFile
{
    format      ascii;
    class       volVectorField;
    location    "1";
    object      U;
}
// * * * * * * * * * * * * * * * * * * * * * * * * * * * * * * * * * * * * * //

dimensions      [0 1 -1 0 0 0 0];

internalField   nonuniform List<vector> 
1250
(
(7.21261e-06 -7.16638e-06 0)
(2.30668e-05 -9.35746e-06 0)
(3.4371e-05 -5.66072e-06 0)
(3.09572e-05 -5.37632e-08 0)
(1.03092e-05 5.49168e-06 0)
(-2.65162e-05 1.03479e-05 0)
(-7.74635e-05 1.43232e-05 0)
(-0.000140067 1.73998e-05 0)
(-0.000211963 1.96874e-05 0)
(-0.000291026 2.13314e-05 0)
(-0.000375471 2.24766e-05 0)
(-0.000463878 2.32543e-05 0)
(-0.000555167 2.37766e-05 0)
(-0.000648557 2.41353e-05 0)
(-0.000743518 2.4402e-05 0)
(-0.000839717 2.46302e-05 0)
(-0.000936972 2.48569e-05 0)
(-0.0010352 2.51057e-05 0)
(-0.0011344 2.5389e-05 0)
(-0.00123458 2.57102e-05 0)
(-0.00133579 2.60661e-05 0)
(-0.00143804 2.64489e-05 0)
(-0.00154132 2.68469e-05 0)
(-0.0016456 2.72467e-05 0)
(-0.00175079 2.7633e-05 0)
(-0.00185676 2.799e-05 0)
(-0.00196331 2.83011e-05 0)
(-0.00207022 2.85495e-05 0)
(-0.0021772 2.87209e-05 0)
(9.62943e-06 -2.32227e-05 0)
(2.41841e-05 -2.38263e-05 0)
(1.90542e-05 -2.23846e-06 0)
(-2.08423e-05 2.75765e-05 0)
(-0.000100243 5.85283e-05 0)
(-0.00021787 8.70054e-05 0)
(-0.000370232 0.000111506 0)
(-0.000552432 0.000131612 0)
(-0.000759295 0.000147541 0)
(-0.000985935 0.000159809 0)
(-0.00122805 0.000169043 0)
(-0.00148205 0.000175881 0)
(-0.00174506 0.000180914 0)
(-0.0020149 0.000184655 0)
(-0.00228996 0.000187529 0)
(-0.00256913 0.000189865 0)
(-0.00285168 0.000191908 0)
(-0.00313714 0.000193826 0)
(-0.00342526 0.000195718 0)
(-0.00371585 0.00019763 0)
(-0.00400881 0.000199562 0)
(-0.00430399 0.000201483 0)
(-0.00460122 0.000203334 0)
(-0.00490022 0.000205043 0)
(-0.00520063 0.000206522 0)
(-0.00550197 0.000207677 0)
(-0.00580363 0.00020841 0)
(-0.00610488 0.000208622 0)
(-0.00640486 0.00020822 0)
(6.08669e-06 -3.50856e-05 0)
(2.31047e-06 -1.8732e-05 0)
(-4.14926e-05 4.01697e-05 0)
(-0.000137438 0.00011618 0)
(-0.000289761 0.000195387 0)
(-0.000496991 0.00026957 0)
(-0.00075446 0.000334753 0)
(-0.00105577 0.000389538 0)
(-0.001394 0.000434044 0)
(-0.00176245 0.000469227 0)
(-0.00215505 0.000496443 0)
(-0.00256662 0.000517171 0)
(-0.0029929 0.000532843 0)
(-0.00343052 0.000544743 0)
(-0.00387694 0.000553959 0)
(-0.00433027 0.000561364 0)
(-0.00478919 0.000567617 0)
(-0.00525275 0.000573181 0)
(-0.00572032 0.000578348 0)
(-0.00619138 0.000583261 0)
(-0.00666555 0.000587948 0)
(-0.00714239 0.000592343 0)
(-0.00762142 0.00059631 0)
(-0.00810206 0.000599664 0)
(-0.00858359 0.000602184 0)
(-0.0090651 0.00060363 0)
(-0.00954556 0.000603746 0)
(-0.0100237 0.000602269 0)
(-0.0104981 0.000598959 0)
(2.82848e-07 -3.17267e-05 0)
(-3.02342e-05 2.32853e-05 0)
(-0.000125775 0.000137626 0)
(-0.000290919 0.000276455 0)
(-0.000527127 0.000419157 0)
(-0.000831765 0.000553232 0)
(-0.00119885 0.00067211 0)
(-0.0016207 0.000773211 0)
(-0.00208909 0.000856456 0)
(-0.00259604 0.000923231 0)
(-0.00313424 0.00097569 0)
(-0.00369733 0.00101628 0)
(-0.00428 0.00104742 0)
(-0.00487796 0.00107135 0)
(-0.00548787 0.00108997 0)
(-0.00610715 0.00110484 0)
(-0.00673391 0.00111714 0)
(-0.0073667 0.00112773 0)
(-0.00800444 0.00113716 0)
(-0.00864625 0.0011457 0)
(-0.00929133 0.00115344 0)
(-0.00993892 0.00116026 0)
(-0.0105881 0.00116594 0)
(-0.0112381 0.00117017 0)
(-0.0118875 0.00117254 0)
(-0.0125352 0.00117265 0)
(-0.0131796 0.00117003 0)
(-0.0138189 0.00116422 0)
(-0.0144513 0.0011548 0)
(-6.13715e-06 -8.978e-06 0)
(-6.74658e-05 0.000110978 0)
(-0.000222363 0.000300387 0)
(-0.000465005 0.000517674 0)
(-0.000792702 0.000737023 0)
(-0.00120071 0.000942373 0)
(-0.00168132 0.00112497 0)
(-0.00222543 0.00128124 0)
(-0.00282366 0.00141097 0)
(-0.00346697 0.00151604 0)
(-0.00414712 0.00159946 0)
(-0.00485688 0.0016647 0)
(-0.00559014 0.00171527 0)
(-0.0063419 0.00175443 0)
(-0.00710815 0.00178498 0)
(-0.00788575 0.00180925 0)
(-0.00867227 0.00182903 0)
(-0.00946578 0.00184559 0)
(-0.0102648 0.00185979 0)
(-0.0110679 0.00187207 0)
(-0.011874 0.00188256 0)
(-0.0126819 0.00189112 0)
(-0.0134903 0.00189743 0)
(-0.0142979 0.00190103 0)
(-0.015103 0.00190134 0)
(-0.015904 0.00189773 0)
(-0.0166988 0.00188954 0)
(-0.0174854 0.00187608 0)
(-0.0182612 0.00185671 0)
(-1.26019e-05 3.42374e-05 0)
(-0.000106332 0.000248175 0)
(-0.000324451 0.000534186 0)
(-0.000649421 0.000846254 0)
(-0.00107339 0.00115504 0)
(-0.0015888 0.001442 0)
(-0.00218571 0.00169691 0)
(-0.00285339 0.00191561 0)
(-0.00358123 0.00209803 0)
(-0.00435924 0.00224669 0)
(-0.00517835 0.00236556 0)
(-0.00603066 0.00245923 0)
(-0.00690943 0.00253236 0)
(-0.0078091 0.00258925 0)
(-0.00872516 0.00263371 0)
(-0.00965396 0.00266883 0)
(-0.0105926 0.00269704 0)
(-0.0115388 0.00272009 0)
(-0.0124905 0.00273914 0)
(-0.013446 0.00275482 0)
(-0.0144037 0.00276729 0)
(-0.0153621 0.00277642 0)
(-0.0163193 0.00278177 0)
(-0.0172737 0.00278272 0)
(-0.0182233 0.00277852 0)
(-0.019166 0.00276834 0)
(-0.0200993 0.00275129 0)
(-0.0210207 0.00272646 0)
(-0.0219274 0.00269302 0)
(-1.89213e-05 9.81139e-05 0)
(-0.00014541 0.000436644 0)
(-0.000428291 0.000841939 0)
(-0.00083792 0.00126567 0)
(-0.00136071 0.00167658 0)
(-0.00198575 0.00205485 0)
(-0.00270051 0.00238963 0)
(-0.00349232 0.00267681 0)
(-0.00434922 0.00291685 0)
(-0.00526022 0.00311317 0)
(-0.00621553 0.00327086 0)
(-0.00720662 0.00339575 0)
(-0.00822626 0.00349367 0)
(-0.00926844 0.00357009 0)
(-0.0103282 0.00362977 0)
(-0.0114016 0.00367664 0)
(-0.0124852 0.00371377 0)
(-0.0135764 0.00374337 0)
(-0.0146728 0.00376692 0)
(-0.0157723 0.00378522 0)
(-0.0168728 0.00379852 0)
(-0.0179723 0.00380662 0)
(-0.0190689 0.00380902 0)
(-0.0201604 0.00380495 0)
(-0.0212443 0.00379347 0)
(-0.0223183 0.00377358 0)
(-0.0233797 0.00374418 0)
(-0.0244256 0.00370416 0)
(-0.0254529 0.00365252 0)
(-2.50211e-05 0.000182384 0)
(-0.000184013 0.000676702 0)
(-0.000531857 0.00122466 0)
(-0.0010268 0.00177735 0)
(-0.00164927 0.0023031 0)
(-0.0023847 0.002782 0)
(-0.00321763 0.00320358 0)
(-0.00413326 0.00356442 0)
(-0.00511813 0.00386604 0)
(-0.00616018 0.0041131 0)
(-0.00724886 0.00431204 0)
(-0.00837509 0.00447004 0)
(-0.00953119 0.00459425 0)
(-0.0107108 0.00469128 0)
(-0.0119086 0.00476691 0)
(-0.0131203 0.00482589 0)
(-0.0143422 0.00487192 0)
(-0.0155713 0.00490771 0)
(-0.0168048 0.00493502 0)
(-0.0180404 0.00495482 0)
(-0.0192755 0.00496743 0)
(-0.0205079 0.00497264 0)
(-0.0217353 0.00496985 0)
(-0.022955 0.00495817 0)
(-0.0241645 0.00493654 0)
(-0.0253611 0.00490376 0)
(-0.026542 0.00485858 0)
(-0.0277039 0.00479973 0)
(-0.0288439 0.00472607 0)
(-3.09102e-05 0.000286651 0)
(-0.00022186 0.000967925 0)
(-0.000634067 0.0016822 0)
(-0.00121387 0.00238138 0)
(-0.00193568 0.00303471 0)
(-0.00278106 0.0036234 0)
(-0.00373147 0.00413826 0)
(-0.00476979 0.00457737 0)
(-0.00588092 0.00494384 0)
(-0.00705168 0.00524397 0)
(-0.00827073 0.00548583 0)
(-0.00952843 0.00567813 0)
(-0.0108167 0.00582942 0)
(-0.0121288 0.00594755 0)
(-0.0134593 0.00603931 0)
(-0.0148034 0.00611028 0)
(-0.0161573 0.0061648 0)
(-0.0175177 0.00620603 0)
(-0.0188814 0.00623602 0)
(-0.0202459 0.00625593 0)
(-0.0216083 0.00626613 0)
(-0.0229661 0.00626641 0)
(-0.0243166 0.00625611 0)
(-0.0256571 0.00623426 0)
(-0.0269849 0.00619966 0)
(-0.0282971 0.00615104 0)
(-0.0295907 0.00608701 0)
(-0.0308627 0.00600619 0)
(-0.0321101 0.00590739 0)
(-3.66155e-05 0.000410445 0)
(-0.000258847 0.00130949 0)
(-0.000734346 0.00221367 0)
(-0.00139785 0.0030769 0)
(-0.00221777 0.00387053 0)
(-0.00317178 0.00457798 0)
(-0.00423813 0.00519233 0)
(-0.00539727 0.00571389 0)
(-0.0066324 0.00614797 0)
(-0.00792914 0.00650294 0)
(-0.00927531 0.00678881 0)
(-0.0106607 0.00701603 0)
(-0.0120769 0.00719468 0)
(-0.0135169 0.00733388 0)
(-0.0149749 0.0074415 0)
(-0.0164459 0.00752395 0)
(-0.017926 0.0075862 0)
(-0.0194115 0.00763183 0)
(-0.0208992 0.00766322 0)
(-0.0223861 0.00768167 0)
(-0.0238693 0.00768765 0)
(-0.0253459 0.00768096 0)
(-0.0268133 0.00766092 0)
(-0.0282686 0.00762651 0)
(-0.0297089 0.00757651 0)
(-0.0311315 0.00750957 0)
(-0.0325336 0.00742429 0)
(-0.0339123 0.00731923 0)
(-0.0352647 0.00719322 0)
(-4.21601e-05 0.000553281 0)
(-0.000294936 0.00170035 0)
(-0.000832383 0.00281773 0)
(-0.00157795 0.00386239 0)
(-0.00249416 0.00480891 0)
(-0.0035548 0.00564394 0)
(-0.00473489 0.00636374 0)
(-0.00601241 0.00697163 0)
(-0.00736879 0.0074757 0)
(-0.0087884 0.00788688 0)
(-0.0102582 0.00821742 0)
(-0.0117675 0.00847975 0)
(-0.0133075 0.0086856 0)
(-0.0148707 0.00884547 0)
(-0.0164513 0.00896833 0)
(-0.0180442 0.00906144 0)
(-0.019645 0.0091304 0)
(-0.0212502 0.00917923 0)
(-0.0228562 0.00921059 0)
(-0.0244599 0.009226 0)
(-0.0260583 0.009226 0)
(-0.0276486 0.00921048 0)
(-0.0292278 0.00917877 0)
(-0.0307933 0.00912989 0)
(-0.0323424 0.00906264 0)
(-0.0338725 0.00897573 0)
(-0.0353812 0.0088678 0)
(-0.0368659 0.00873744 0)
(-0.0383244 0.00858362 0)
(-4.75601e-05 0.000714679 0)
(-0.000330115 0.00213934 0)
(-0.000928001 0.00349274 0)
(-0.00175368 0.00473592 0)
(-0.00276394 0.00584767 0)
(-0.00392875 0.00681889 0)
(-0.00521988 0.00764989 0)
(-0.00661287 0.00834775 0)
(-0.00808734 0.00892393 0)
(-0.00962643 0.00939237 0)
(-0.0112163 0.00976793 0)
(-0.0128455 0.0100652 0)
(-0.014505 0.0102978 0)
(-0.0161871 0.0104777 0)
(-0.0178857 0.0106149 0)
(-0.0195956 0.0107177 0)
(-0.0213125 0.0107922 0)
(-0.0230323 0.010843 0)
(-0.0247518 0.0108729 0)
(-0.0264676 0.0108838 0)
(-0.0281769 0.0108763 0)
(-0.0298766 0.0108505 0)
(-0.0315643 0.0108057 0)
(-0.0332373 0.0107411 0)
(-0.0348933 0.0106557 0)
(-0.0365303 0.0105483 0)
(-0.0381464 0.0104177 0)
(-0.0397397 0.0102626 0)
(-0.0413088 0.0100823 0)
(-5.2825e-05 0.000894164 0)
(-0.000364375 0.00262522 0)
(-0.00102108 0.00423691 0)
(-0.00192473 0.00569525 0)
(-0.00302652 0.00698427 0)
(-0.00429265 0.00810005 0)
(-0.00569177 0.00904779 0)
(-0.00719696 0.00983902 0)
(-0.00878609 0.0104892 0)
(-0.0104411 0.0110158 0)
(-0.0121471 0.0114365 0)
(-0.0138924 0.0117684 0)
(-0.0156673 0.0120271 0)
(-0.0174641 0.0122262 0)
(-0.0192764 0.0123768 0)
(-0.021099 0.0124882 0)
(-0.0229274 0.0125671 0)
(-0.0247578 0.0126186 0)
(-0.0265867 0.0126459 0)
(-0.0284109 0.0126511 0)
(-0.0302276 0.012635 0)
(-0.0320342 0.0125979 0)
(-0.0338284 0.0125394 0)
(-0.0356081 0.012459 0)
(-0.0373716 0.0123557 0)
(-0.0391174 0.0122288 0)
(-0.0408447 0.0120772 0)
(-0.0425526 0.0119001 0)
(-0.0442407 0.0116969 0)
(-5.79589e-05 0.00109126 0)
(-0.000397702 0.00315671 0)
(-0.00111154 0.00504828 0)
(-0.00209087 0.00673794 0)
(-0.00328144 0.0082159 0)
(-0.00464583 0.00948432 0)
(-0.00614962 0.0105541 0)
(-0.00776351 0.011442 0)
(-0.00946366 0.0121679 0)
(-0.0112307 0.0127533 0)
(-0.0130492 0.0132192 0)
(-0.0149065 0.0135854 0)
(-0.0167929 0.0138695 0)
(-0.0187003 0.0140867 0)
(-0.0206223 0.0142498 0)
(-0.0225537 0.0143687 0)
(-0.02449 0.014451 0)
(-0.0264273 0.0145022 0)
(-0.0283624 0.014526 0)
(-0.0302924 0.0145248 0)
(-0.0322146 0.0144997 0)
(-0.0341269 0.0144513 0)
(-0.0360275 0.0143796 0)
(-0.0379151 0.0142843 0)
(-0.0397888 0.0141651 0)
(-0.0416483 0.0140215 0)
(-0.0434938 0.013853 0)
(-0.0453256 0.0136589 0)
(-0.0471451 0.0134393 0)
(-6.29614e-05 0.00130549 0)
(-0.000430077 0.00373247 0)
(-0.0011993 0.00592483 0)
(-0.0022519 0.00786141 0)
(-0.00352837 0.00953956 0)
(-0.00498778 0.0109684 0)
(-0.00659274 0.0121653 0)
(-0.00831167 0.0131529 0)
(-0.010119 0.0139563 0)
(-0.0119944 0.0146012 0)
(-0.0139213 0.0151122 0)
(-0.0158868 0.0155121 0)
(-0.0178808 0.0158209 0)
(-0.0198951 0.0160556 0)
(-0.0219233 0.0162302 0)
(-0.02396 0.0163558 0)
(-0.0260009 0.0164407 0)
(-0.0280425 0.016491 0)
(-0.0300816 0.0165109 0)
(-0.0321157 0.0165032 0)
(-0.0341426 0.0164695 0)
(-0.036161 0.0164108 0)
(-0.0381698 0.0163277 0)
(-0.0401687 0.0162203 0)
(-0.0421579 0.0160889 0)
(-0.0441387 0.0159338 0)
(-0.0461126 0.0157548 0)
(-0.0480818 0.0155519 0)
(-0.0500491 0.0153256 0)
(-6.78294e-05 0.00153635 0)
(-0.000461471 0.00435113 0)
(-0.00128426 0.00686444 0)
(-0.00240765 0.00906298 0)
(-0.00376704 0.0109521 0)
(-0.0053181 0.0125489 0)
(-0.00702061 0.0138778 0)
(-0.0088408 0.0149681 0)
(-0.0107515 0.0158505 0)
(-0.0127312 0.0165555 0)
(-0.0147628 0.0171116 0)
(-0.0168328 0.0175448 0)
(-0.0189308 0.0178777 0)
(-0.0210485 0.0181291 0)
(-0.0231795 0.0183146 0)
(-0.0253186 0.0184464 0)
(-0.0274617 0.0185335 0)
(-0.0296055 0.0185829 0)
(-0.0317473 0.0185992 0)
(-0.033885 0.0185859 0)
(-0.0360175 0.0185451 0)
(-0.0381439 0.0184785 0)
(-0.0402646 0.0183873 0)
(-0.0423803 0.0182725 0)
(-0.0444931 0.0181352 0)
(-0.0466056 0.0179761 0)
(-0.0487216 0.0177962 0)
(-0.0508449 0.0175959 0)
(-0.0529809 0.0173764 0)
(-7.25568e-05 0.00178333 0)
(-0.000491849 0.00501128 0)
(-0.00136634 0.00786495 0)
(-0.00255796 0.0103399 0)
(-0.00399719 0.0124504 0)
(-0.00563645 0.0142221 0)
(-0.00743281 0.0156878 0)
(-0.00935041 0.0168837 0)
(-0.0113606 0.0178466 0)
(-0.0134409 0.0186123 0)
(-0.0155733 0.0192136 0)
(-0.0177441 0.01968 0)
(-0.0199426 0.0200365 0)
(-0.0221605 0.0203042 0)
(-0.0243915 0.0205003 0)
(-0.0266306 0.020638 0)
(-0.028874 0.0207276 0)
(-0.0311188 0.0207766 0)
(-0.033363 0.0207905 0)
(-0.0356052 0.0207735 0)
(-0.0378452 0.0207285 0)
(-0.0400835 0.020658 0)
(-0.0423215 0.0205641 0)
(-0.0445621 0.0204489 0)
(-0.0468088 0.0203143 0)
(-0.0490667 0.0201622 0)
(-0.0513416 0.0199943 0)
(-0.0536396 0.0198117 0)
(-0.0559688 0.0196165 0)
(-7.71358e-05 0.00204591 0)
(-0.000521168 0.00571145 0)
(-0.00144542 0.00892411 0)
(-0.00270264 0.0116892 0)
(-0.00421856 0.014031 0)
(-0.0059425 0.0159846 0)
(-0.00782896 0.0175916 0)
(-0.0098401 0.0188958 0)
(-0.0119459 0.0199408 0)
(-0.0141228 0.0207679 0)
(-0.0163524 0.0214147 0)
(-0.0186206 0.021914 0)
(-0.0209164 0.022294 0)
(-0.0232317 0.022578 0)
(-0.0255603 0.0227847 0)
(-0.0278975 0.0229289 0)
(-0.03024 0.0230217 0)
(-0.0325854 0.0230718 0)
(-0.0349326 0.0230856 0)
(-0.0372813 0.0230681 0)
(-0.0396323 0.0230234 0)
(-0.0419876 0.0229549 0)
(-0.0443506 0.022866 0)
(-0.046726 0.0227599 0)
(-0.0491197 0.0226399 0)
(-0.0515392 0.0225088 0)
(-0.053993 0.0223695 0)
(-0.0564898 0.0222239 0)
(-0.0590405 0.0220749 0)
(-8.15567e-05 0.00232353 0)
(-0.000549379 0.00645012 0)
(-0.0015214 0.0100396 0)
(-0.00284151 0.0131081 0)
(-0.0044309 0.0156906 0)
(-0.00623593 0.0178327 0)
(-0.00820868 0.0195852 0)
(-0.0103095 0.0210004 0)
(-0.0125071 0.0221292 0)
(-0.0147769 0.0230187 0)
(-0.0171001 0.0237112 0)
(-0.0194622 0.0242438 0)
(-0.0218524 0.0246475 0)
(-0.0242625 0.024948 0)
(-0.0266866 0.025166 0)
(-0.0291206 0.0253177 0)
(-0.0315616 0.0254155 0)
(-0.0340081 0.0254692 0)
(-0.0364599 0.0254864 0)
(-0.0389181 0.0254731 0)
(-0.0413849 0.0254349 0)
(-0.0438642 0.0253764 0)
(-0.0463616 0.0253026 0)
(-0.0488839 0.0252182 0)
(-0.05144 0.0251277 0)
(-0.05404 0.0250355 0)
(-0.0566955 0.0249453 0)
(-0.0594178 0.0248601 0)
(-0.0622216 0.0247837 0)
(-8.58085e-05 0.0026156 0)
(-0.000576423 0.00722571 0)
(-0.00159414 0.0112091 0)
(-0.00297434 0.0145935 0)
(-0.00463389 0.0174258 0)
(-0.00651638 0.0197626 0)
(-0.00857159 0.0216649 0)
(-0.0107582 0.0231939 0)
(-0.0130436 0.024408 0)
(-0.0154027 0.0253608 0)
(-0.017816 0.0260999 0)
(-0.020269 0.0266662 0)
(-0.0227508 0.0270942 0)
(-0.0252535 0.0274122 0)
(-0.0277715 0.0276427 0)
(-0.0303013 0.0278037 0)
(-0.0328408 0.0279092 0)
(-0.0353896 0.0279702 0)
(-0.0379486 0.0279956 0)
(-0.0405203 0.0279931 0)
(-0.043109 0.0279696 0)
(-0.0457208 0.0279316 0)
(-0.0483634 0.0278858 0)
(-0.0510468 0.0278385 0)
(-0.0537826 0.0277961 0)
(-0.0565843 0.0277642 0)
(-0.0594665 0.0277478 0)
(-0.0624435 0.0277508 0)
(-0.0655359 0.0277792 0)
(-8.98783e-05 0.00292151 0)
(-0.000602236 0.00803657 0)
(-0.00166348 0.01243 0)
(-0.00310088 0.0161423 0)
(-0.00482722 0.019233 0)
(-0.00678345 0.0217705 0)
(-0.00891725 0.0238267 0)
(-0.0111857 0.0254722 0)
(-0.0135552 0.0267735 0)
(-0.0159999 0.0277909 0)
(-0.0185 0.0285774 0)
(-0.0210408 0.0291784 0)
(-0.0236116 0.0296318 0)
(-0.0262049 0.0299687 0)
(-0.0288156 0.0302138 0)
(-0.0314408 0.0303869 0)
(-0.0340794 0.0305038 0)
(-0.0367322 0.0305769 0)
(-0.0394017 0.0306171 0)
(-0.0420921 0.0306337 0)
(-0.04481 0.0306354 0)
(-0.0475638 0.0306309 0)
(-0.0503642 0.0306288 0)
(-0.0532242 0.0306375 0)
(-0.056159 0.0306653 0)
(-0.0591854 0.0307193 0)
(-0.062321 0.0308054 0)
(-0.065586 0.0309303 0)
(-9.37517e-05 0.0032406 0)
(-0.000626742 0.00888097 0)
(-0.00172924 0.0136999 0)
(-0.00322086 0.0177515 0)
(-0.00501049 0.0211087 0)
(-0.00703667 0.0238527 0)
(-0.00924512 0.0260668 0)
(-0.0115915 0.0278315 0)
(-0.0140412 0.0292219 0)
(-0.0165679 0.0303054 0)
(-0.0191515 0.0311406 0)
(-0.0217773 0.0317777 0)
(-0.0244348 0.0322582 0)
(-0.0271169 0.0326161 0)
(-0.0298192 0.0328786 0)
(-0.0325398 0.0330676 0)
(-0.0352786 0.0332007 0)
(-0.0380378 0.0332924 0)
(-0.0408218 0.0333556 0)
(-0.0436369 0.0334015 0)
(-0.0464921 0.0334413 0)
(-0.0493986 0.033486 0)
(-0.0523705 0.0335464 0)
(-0.0554241 0.0336334 0)
(-0.0585782 0.0337572 0)
(-0.0618537 0.0339267 0)
(-0.0652714 0.0341489 0)
(-0.0688554 0.0344316 0)
(-9.74125e-05 0.00357217 0)
(-0.000649857 0.00975709 0)
(-0.00179124 0.015016 0)
(-0.00333394 0.0194176 0)
(-0.00518326 0.0230492 0)
(-0.0072755 0.0260052 0)
(-0.0095546 0.0283811 0)
(-0.0119749 0.030268 0)
(-0.014501 0.0317496 0)
(-0.0171061 0.0329009 0)
(-0.0197699 0.0337866 0)
(-0.0224779 0.0344616 0)
(-0.0252198 0.0349714 0)
(-0.0279892 0.0353531 0)
(-0.0307825 0.0356366 0)
(-0.0335986 0.0358463 0)
(-0.036439 0.0360018 0)
(-0.0393076 0.0361202 0)
(-0.0422106 0.0362162 0)
(-0.0451569 0.036304 0)
(-0.0481582 0.0363972 0)
(-0.051229 0.0365095 0)
(-0.0543867 0.0366545 0)
(-0.0576515 0.0368455 0)
(-0.0610461 0.0370948 0)
(-0.0645952 0.037413 0)
(-0.0683231 0.0378082 0)
(-0.0722572 0.0382885 0)
(-0.000100843 0.00391547 0)
(-0.000671485 0.010663 0)
(-0.00184923 0.0163755 0)
(-0.00343975 0.0211373 0)
(-0.00534503 0.0250506 0)
(-0.00749932 0.0282241 0)
(-0.00984494 0.0307657 0)
(-0.0123351 0.0327776 0)
(-0.0149337 0.0343528 0)
(-0.0176136 0.035574 0)
(-0.0203544 0.0365122 0)
(-0.0231418 0.0372275 0)
(-0.025966 0.0377694 0)
(-0.0288212 0.0381786 0)
(-0.0317048 0.0384879 0)
(-0.0346169 0.0387241 0)
(-0.0375607 0.0389097 0)
(-0.0405417 0.0390641 0)
(-0.0435686 0.0392049 0)
(-0.046653 0.0393492 0)
(-0.0498096 0.0395135 0)
(-0.0530564 0.0397147 0)
(-0.0564146 0.0399692 0)
(-0.0599083 0.040293 0)
(-0.0635641 0.0407007 0)
(-0.0674107 0.0412043 0)
(-0.0714756 0.0418123 0)
(-0.0757894 0.042533 0)
(-0.000104022 0.0042697 0)
(-0.000691523 0.0115967 0)
(-0.00190297 0.0177755 0)
(-0.00353788 0.0229069 0)
(-0.00549521 0.0271091 0)
(-0.00770739 0.0305052 0)
(-0.0101153 0.0332165 0)
(-0.0126712 0.0353564 0)
(-0.0153383 0.0370278 0)
(-0.0180893 0.0383213 0)
(-0.0209038 0.0393146 0)
(-0.0237678 0.040073 0)
(-0.0266722 0.0406507 0)
(-0.0296118 0.0410917 0)
(-0.0325851 0.0414323 0)
(-0.0355938 0.0417021 0)
(-0.0386426 0.0419266 0)
(-0.0417393 0.0421282 0)
(-0.0448952 0.0423276 0)
(-0.0481246 0.0425451 0)
(-0.0514458 0.0428008 0)
(-0.0548803 0.0431147 0)
(-0.0584533 0.0435066 0)
(-0.0621928 0.0439951 0)
(-0.0661296 0.0445969 0)
(-0.0702959 0.0453251 0)
(-0.0747223 0.0461884 0)
(-0.079442 0.0471943 0)
(-0.00010693 0.00463401 0)
(-0.000709854 0.0125559 0)
(-0.00195218 0.0192129 0)
(-0.00362786 0.0247229 0)
(-0.00563315 0.0292204 0)
(-0.00789888 0.0328443 0)
(-0.0103647 0.0357291 0)
(-0.0129819 0.0380002 0)
(-0.0157135 0.0397706 0)
(-0.0185318 0.0411392 0)
(-0.0214167 0.0421905 0)
(-0.0243545 0.0429957 0)
(-0.0273367 0.0436132 0)
(-0.0303592 0.0440914 0)
(-0.0334216 0.0444698 0)
(-0.0365273 0.0447815 0)
(-0.0396829 0.0450552 0)
(-0.0428985 0.0453167 0)
(-0.046188 0.0455903 0)
(-0.0495693 0.0458999 0)
(-0.0530637 0.0462694 0)
(-0.056697 0.0467224 0)
(-0.0604981 0.047282 0)
(-0.0644992 0.0479695 0)
(-0.0687347 0.0488035 0)
(-0.0732404 0.0497977 0)
(-0.0780492 0.0509602 0)
(-0.0831966 0.0522969 0)
(-0.000109542 0.00500747 0)
(-0.00072635 0.0135384 0)
(-0.00199655 0.0206843 0)
(-0.00370917 0.0265811 0)
(-0.00575812 0.0313804 0)
(-0.00807286 0.0352368 0)
(-0.010592 0.038299 0)
(-0.0132661 0.0407048 0)
(-0.0160579 0.0425773 0)
(-0.0189395 0.0440241 0)
(-0.0218912 0.045137 0)
(-0.0248998 0.0459928 0)
(-0.0279575 0.0466552 0)
(-0.0310612 0.0471766 0)
(-0.034212 0.0476003 0)
(-0.0374149 0.0479633 0)
(-0.0406786 0.0482978 0)
(-0.0440159 0.0486334 0)
(-0.0474435 0.0489985 0)
(-0.0509826 0.049421 0)
(-0.0546584 0.0499287 0)
(-0.0585002 0.0505493 0)
(-0.0625412 0.0513091 0)
(-0.0668173 0.0522319 0)
(-0.0713665 0.0533377 0)
(-0.0762273 0.0546404 0)
(-0.0814346 0.0561464 0)
(-0.0870251 0.0578593 0)
(-0.000111832 0.00538908 0)
(-0.000740875 0.0145416 0)
(-0.00203575 0.0221863 0)
(-0.00378124 0.0284774 0)
(-0.00586931 0.0335844 0)
(-0.00822827 0.0376781 0)
(-0.0107959 0.0409218 0)
(-0.0135222 0.0434656 0)
(-0.0163696 0.0454436 0)
(-0.0193105 0.0469722 0)
(-0.0223253 0.0481506 0)
(-0.0254014 0.0490617 0)
(-0.0285319 0.0497745 0)
(-0.0317149 0.0503458 0)
(-0.0349529 0.0508234 0)
(-0.0382528 0.0512481 0)
(-0.0416257 0.0516563 0)
(-0.0450868 0.0520817 0)
(-0.0486561 0.0525571 0)
(-0.0523581 0.0531149 0)
(-0.0562218 0.0537872 0)
(-0.0602804 0.0546055 0)
(-0.0645707 0.0555994 0)
(-0.0691322 0.056795 0)
(-0.0740061 0.058213 0)
(-0.079233 0.0598667 0)
(-0.0848489 0.0617599 0)
(-0.0908906 0.0638925 0)
(-0.000113775 0.00577776 0)
(-0.000753282 0.015563 0)
(-0.00206941 0.0237151 0)
(-0.00384347 0.0304074 0)
(-0.00596586 0.0358277 0)
(-0.008364 0.0401633 0)
(-0.010975 0.0435924 0)
(-0.0137485 0.0462781 0)
(-0.0166469 0.0483652 0)
(-0.0196426 0.0499795 0)
(-0.0227164 0.0512276 0)
(-0.0258565 0.0521992 0)
(-0.0290569 0.0529686 0)
(-0.0323168 0.0535975 0)
(-0.0356405 0.0541382 0)
(-0.0390367 0.0546361 0)
(-0.0425189 0.0551318 0)
(-0.0461053 0.055664 0)
(-0.0498187 0.05627 0)
(-0.0536873 0.0569868 0)
(-0.0577437 0.0578512 0)
(-0.0620247 0.0588985 0)
(-0.0665708 0.0601613 0)
(-0.0714245 0.0616675 0)
(-0.0766293 0.063438 0)
(-0.0822274 0.0654841 0)
(-0.0882545 0.067806 0)
(-0.0947466 0.0703981 0)
(-0.000115341 0.00617237 0)
(-0.000763416 0.0165997 0)
(-0.00209715 0.0252668 0)
(-0.00389521 0.0323665 0)
(-0.00604682 0.0381052 0)
(-0.0084788 0.0426872 0)
(-0.0111278 0.0463057 0)
(-0.0139433 0.0491371 0)
(-0.0168876 0.0513373 0)
(-0.0199333 0.0530414 0)
(-0.0230619 0.0543642 0)
(-0.026262 0.0554019 0)
(-0.0295288 0.0562346 0)
(-0.0328628 0.0569294 0)
(-0.03627 0.0575433 0)
(-0.0397611 0.0581266 0)
(-0.043352 0.0587249 0)
(-0.0470637 0.0593816 0)
(-0.0509225 0.0601394 0)
(-0.0549595 0.06104 0)
(-0.059211 0.0621248 0)
(-0.0637174 0.0634329 0)
(-0.0685221 0.0649995 0)
(-0.0736701 0.0668537 0)
(-0.0792065 0.0690153 0)
(-0.085174 0.0714929 0)
(-0.091607 0.0742812 0)
(-0.0985392 0.0773681 0)
(-0.000116502 0.00657167 0)
(-0.000771119 0.0176487 0)
(-0.00211858 0.026837 0)
(-0.00393578 0.0343496 0)
(-0.00611121 0.0404115 0)
(-0.00857139 0.0452442 0)
(-0.0112527 0.0490563 0)
(-0.0141046 0.0520373 0)
(-0.0170894 0.0543548 0)
(-0.0201801 0.0561534 0)
(-0.0233585 0.057556 0)
(-0.0266143 0.0586659 0)
(-0.0299436 0.0595692 0)
(-0.0333482 0.0603386 0)
(-0.0368359 0.0610365 0)
(-0.0404196 0.0617181 0)
(-0.0441175 0.0624346 0)
(-0.0479534 0.0632346 0)
(-0.0519567 0.0641659 0)
(-0.0561619 0.0652756 0)
(-0.0606083 0.0666094 0)
(-0.0653395 0.0682098 0)
(-0.0704013 0.0701144 0)
(-0.0758406 0.0723521 0)
(-0.0817031 0.0749412 0)
(-0.0880307 0.0778856 0)
(-0.0948555 0.0811733 0)
(-0.102207 0.0847835 0)
(-0.000117229 0.00697434 0)
(-0.000776227 0.0187067 0)
(-0.0021333 0.0284215 0)
(-0.00396447 0.0363516 0)
(-0.00615801 0.042741 0)
(-0.00864039 0.0478285 0)
(-0.011348 0.0518383 0)
(-0.0142303 0.0549732 0)
(-0.0172498 0.0574123 0)
(-0.0203799 0.0593102 0)
(-0.0236031 0.0607982 0)
(-0.0269096 0.0619867 0)
(-0.0302968 0.0629684 0)
(-0.0337679 0.0638217 0)
(-0.0373324 0.0646146 0)
(-0.0410051 0.0654081 0)
(-0.0448069 0.0662588 0)
(-0.0487643 0.067221 0)
(-0.0529094 0.068348 0)
(-0.0572798 0.0696919 0)
(-0.0619179 0.0713028 0)
(-0.0668694 0.0732262 0)
(-0.0721823 0.075501 0)
(-0.0779041 0.0781556 0)
(-0.0840803 0.0812046 0)
(-0.0907509 0.0846464 0)
(-0.0979443 0.08846 0)
(-0.105685 0.0926145 0)
(-0.000117492 0.00737895 0)
(-0.00077858 0.0197704 0)
(-0.0021409 0.0300152 0)
(-0.00398059 0.0383667 0)
(-0.0061862 0.0450876 0)
(-0.00868444 0.050434 0)
(-0.0114119 0.0546455 0)
(-0.0143182 0.0579386 0)
(-0.0173663 0.060504 0)
(-0.0205299 0.0625063 0)
(-0.023792 0.0640855 0)
(-0.0271438 0.0653594 0)
(-0.0305836 0.0664274 0)
(-0.0341162 0.0673741 0)
(-0.0377526 0.0682737 0)
(-0.0415099 0.0691927 0)
(-0.045411 0.0701938 0)
(-0.0494851 0.0713372 0)
(-0.0537671 0.0726817 0)
(-0.0582971 0.0742844 0)
(-0.0631199 0.0761993 0)
(-0.0682832 0.0784746 0)
(-0.0738359 0.0811495 0)
(-0.0798256 0.0842503 0)
(-0.0862962 0.0877872 0)
(-0.0932847 0.0917507 0)
(-0.100815 0.0961097 0)
(-0.108904 0.100821 0)
(-0.000117264 0.00778402 0)
(-0.000778019 0.0208361 0)
(-0.00214098 0.0316134 0)
(-0.00398343 0.0403892 0)
(-0.00619472 0.0474449 0)
(-0.00870212 0.0530541 0)
(-0.0114426 0.0574714 0)
(-0.0143663 0.060927 0)
(-0.0174362 0.0636235 0)
(-0.0206268 0.0657355 0)
(-0.0239215 0.0674119 0)
(-0.0273125 0.0687782 0)
(-0.030799 0.0699407 0)
(-0.0343871 0.0709906 0)
(-0.0380896 0.0720083 0)
(-0.0419254 0.0730666 0)
(-0.0459196 0.0742342 0)
(-0.0501038 0.0755773 0)
(-0.0545152 0.0771603 0)
(-0.0591961 0.0790451 0)
(-0.0641932 0.0812893 0)
(-0.0695552 0.0839427 0)
(-0.0753314 0.0870439 0)
(-0.0815681 0.090616 0)
(-0.0883069 0.0946629 0)
(-0.0955804 0.0991658 0)
(-0.103406 0.104081 0)
(-0.111794 0.109352 0)
(-0.000116518 0.00818798 0)
(-0.000774394 0.0219 0)
(-0.00213315 0.0332106 0)
(-0.00397232 0.0424128 0)
(-0.00618258 0.0498064 0)
(-0.00869207 0.0556817 0)
(-0.0114384 0.060309 0)
(-0.0143722 0.0639316 0)
(-0.017457 0.066764 0)
(-0.0206675 0.0689912 0)
(-0.023988 0.0707709 0)
(-0.0274113 0.0722366 0)
(-0.0309377 0.0735019 0)
(-0.0345745 0.0746648 0)
(-0.038336 0.075812 0)
(-0.0422429 0.0770229 0)
(-0.0463223 0.0783725 0)
(-0.0506077 0.079933 0)
(-0.0551384 0.0817743 0)
(-0.0599583 0.0839628 0)
(-0.0651153 0.0865589 0)
(-0.0706587 0.0896133 0)
(-0.0766366 0.0931629 0)
(-0.0830937 0.0972261 0)
(-0.0900678 0.101799 0)
(-0.0975862 0.106851 0)
(-0.105659 0.112325 0)
(-0.114289 0.118149 0)
(-0.000115232 0.00858915 0)
(-0.000767566 0.0229582 0)
(-0.00211706 0.0348013 0)
(-0.00394662 0.0444309 0)
(-0.00614881 0.0521648 0)
(-0.00865298 0.0583097 0)
(-0.0113976 0.0631508 0)
(-0.0143339 0.066945 0)
(-0.0174259 0.0699183 0)
(-0.0206489 0.0722662 0)
(-0.0239877 0.0741554 0)
(-0.0274358 0.0757276 0)
(-0.0309943 0.0771038 0)
(-0.034672 0.078389 0)
(-0.0384842 0.0796767 0)
(-0.0424533 0.0810531 0)
(-0.0466081 0.0825993 0)
(-0.0509837 0.0843937 0)
(-0.0556209 0.0865113 0)
(-0.0605648 0.0890226 0)
(-0.0658637 0.0919902 0)
(-0.0715663 0.0954645 0)
(-0.0777194 0.0994796 0)
(-0.0843646 0.104047 0)
(-0.0915349 0.109155 0)
(-0.0992516 0.114758 0)
(-0.107517 0.120785 0)
(-0.116324 0.127146 0)
(-0.000113384 0.00898582 0)
(-0.000757414 0.0240064 0)
(-0.00209238 0.0363798 0)
(-0.00390575 0.0464369 0)
(-0.00609253 0.0545128 0)
(-0.00858361 0.0609303 0)
(-0.0113186 0.0659892 0)
(-0.0142493 0.0699593 0)
(-0.0173406 0.0730786 0)
(-0.020568 0.0755527 0)
(-0.0239169 0.0775575 0)
(-0.0273815 0.0792431 0)
(-0.0309638 0.080738 0)
(-0.0346733 0.0821547 0)
(-0.0385267 0.0835934 0)
(-0.0425476 0.085147 0)
(-0.0467662 0.0869032 0)
(-0.0512187 0.0889462 0)
(-0.055947 0.0913559 0)
(-0.0609966 0.0942062 0)
(-0.0664156 0.097561 0)
(-0.0722515 0.10147 0)
(-0.0785485 0.105962 0)
(-0.0853442 0.111042 0)
(-0.0926665 0.116685 0)
(-0.100529 0.122834 0)
(-0.108927 0.129399 0)
(-0.117842 0.136271 0)
(-0.000110959 0.0093762 0)
(-0.000743838 0.0250403 0)
(-0.00205886 0.0379399 0)
(-0.00384921 0.0484235 0)
(-0.00601297 0.0568427 0)
(-0.00848287 0.0635355 0)
(-0.0111998 0.0688158 0)
(-0.0141166 0.0729664 0)
(-0.0171986 0.0762365 0)
(-0.0204219 0.0788422 0)
(-0.0237722 0.0809687 0)
(-0.0272444 0.0827743 0)
(-0.030841 0.0843955 0)
(-0.0345724 0.085952 0)
(-0.0384562 0.0875513 0)
(-0.042517 0.0892928 0)
(-0.0467859 0.0912708 0)
(-0.0513 0.093575 0)
(-0.0561013 0.0962898 0)
(-0.0612354 0.0994919 0)
(-0.0667493 0.103246 0)
(-0.0726885 0.107598 0)
(-0.079094 0.112573 0)
(-0.0859986 0.118166 0)
(-0.0934241 0.124339 0)
(-0.101377 0.131019 0)
(-0.109843 0.1381 0)
(-0.118796 0.145451 0)
(-0.000107947 0.00975846 0)
(-0.000726765 0.0260556 0)
(-0.00201627 0.0394755 0)
(-0.00377659 0.0503835 0)
(-0.00590946 0.0591464 0)
(-0.00834982 0.0661169 0)
(-0.0110401 0.0716222 0)
(-0.0139342 0.0759575 0)
(-0.0169979 0.0793834 0)
(-0.0202079 0.082126 0)
(-0.0235504 0.0843798 0)
(-0.0270204 0.0863117 0)
(-0.0306212 0.0880661 0)
(-0.0343636 0.0897701 0)
(-0.0382659 0.0915383 0)
(-0.0423532 0.093477 0)
(-0.0466572 0.0956867 0)
(-0.0512153 0.0982622 0)
(-0.0560693 0.101292 0)
(-0.061264 0.104855 0)
(-0.0668446 0.109015 0)
(-0.0728539 0.113815 0)
(-0.0793289 0.119273 0)
(-0.0862973 0.125372 0)
(-0.0937742 0.132062 0)
(-0.101759 0.139253 0)
(-0.110228 0.146818 0)
(-0.119145 0.154609 0)
(-0.000104347 0.0101308 0)
(-0.000706152 0.0270477 0)
(-0.00196447 0.0409804 0)
(-0.0036876 0.0523094 0)
(-0.00578152 0.0614158 0)
(-0.00818369 0.0686659 0)
(-0.0108384 0.0743994 0)
(-0.0137005 0.0789236 0)
(-0.0167366 0.0825098 0)
(-0.0199238 0.0853944 0)
(-0.0232486 0.087781 0)
(-0.0267062 0.089845 0)
(-0.0303001 0.0917388 0)
(-0.0340417 0.0935969 0)
(-0.0379493 0.0955412 0)
(-0.0420484 0.0976846 0)
(-0.0463709 0.100134 0)
(-0.0509536 0.102988 0)
(-0.0558378 0.106339 0)
(-0.0610668 0.110268 0)
(-0.0666833 0.114837 0)
(-0.0727268 0.120083 0)
(-0.0792298 0.126017 0)
(-0.0862142 0.132611 0)
(-0.0936886 0.139799 0)
(-0.101644 0.147473 0)
(-0.11005 0.155486 0)
(-0.118861 0.16367 0)
(-0.000100168 0.0104912 0)
(-0.000682003 0.028012 0)
(-0.0019034 0.0424479 0)
(-0.00358207 0.0541935 0)
(-0.00562881 0.0636425 0)