/*--------------------------------*- C++ -*----------------------------------*\
  =========                 |
  \\      /  F ield         | OpenFOAM: The Open Source CFD Toolbox
   \\    /   O peration     | Website:  https://openfoam.org
    \\  /    A nd           | Version:  9
     \\/     M anipulation  |
\*---------------------------------------------------------------------------*/
FoamFile
{
    format      ascii;
    class       volScalarField;
    location    "2.25";
    object      p;
}
// * * * * * * * * * * * * * * * * * * * * * * * * * * * * * * * * * * * * * //

dimensions      [0 2 -2 0 0 0 0];

internalField   nonuniform List<scalar> 
1260
(
-0.104461
-0.10541
-0.106255
-0.106994
-0.107625
-0.108148
-0.108561
-0.108863
-0.109055
-0.109134
-0.109103
-0.10896
-0.108708
-0.108346
-0.107876
-0.1073
-0.106619
-0.105836
-0.104953
-0.103972
-0.102896
-0.101728
-0.100472
-0.0991318
-0.0977109
-0.0962141
-0.104537
-0.10549
-0.106339
-0.107081
-0.107715
-0.108241
-0.108656
-0.108959
-0.109151
-0.109232
-0.1092
-0.109057
-0.108803
-0.108439
-0.107967
-0.107388
-0.106704
-0.105916
-0.105028
-0.104042
-0.102961
-0.101788
-0.100526
-0.0991802
-0.0977535
-0.0962509
-0.104502
-0.105458
-0.106311
-0.107056
-0.107693
-0.108221
-0.108638
-0.108943
-0.109136
-0.109217
-0.109185
-0.109041
-0.108786
-0.10842
-0.107945
-0.107362
-0.106674
-0.105882
-0.104989
-0.103997
-0.10291
-0.10173
-0.100462
-0.0991085
-0.0976748
-0.0961652
-0.104354
-0.105314
-0.10617
-0.106919
-0.10756
-0.10809
-0.108509
-0.108816
-0.10901
-0.109091
-0.109059
-0.108914
-0.108656
-0.108288
-0.10781
-0.107223
-0.10653
-0.105733
-0.104834
-0.103836
-0.102741
-0.101554
-0.100278
-0.0989169
-0.0974749
-0.0959571
-0.104093
-0.105059
-0.105919
-0.106672
-0.107315
-0.107849
-0.10827
-0.108578
-0.108774
-0.108855
-0.108822
-0.108676
-0.108417
-0.108046
-0.107564
-0.106973
-0.106275
-0.105471
-0.104566
-0.10356
-0.102458
-0.101262
-0.0999768
-0.0986061
-0.0971545
-0.0956269
-0.103722
-0.104692
-0.105557
-0.106314
-0.106961
-0.107498
-0.107921
-0.108232
-0.108428
-0.108509
-0.108476
-0.108329
-0.108068
-0.107693
-0.107208
-0.106612
-0.105908
-0.105098
-0.104185
-0.103171
-0.102059
-0.100854
-0.0995586
-0.0981771
-0.0967144
-0.0951754
-0.10324
-0.104215
-0.105085
-0.105847
-0.106498
-0.107038
-0.107465
-0.107777
-0.107975
-0.108057
-0.108023
-0.107875
-0.107611
-0.107233
-0.106743
-0.106142
-0.105432
-0.104615
-0.103693
-0.10267
-0.101549
-0.100332
-0.0990251
-0.0976313
-0.0961558
-0.0946036
-0.102647
-0.10363
-0.104505
-0.105272
-0.105928
-0.106472
-0.106902
-0.107217
-0.107416
-0.107499
-0.107465
-0.107315
-0.107049
-0.106668
-0.106173
-0.105566
-0.104849
-0.104024
-0.103093
-0.10206
-0.100927
-0.0996984
-0.0983781
-0.0969704
-0.0954804
-0.0939133
-0.101946
-0.102936
-0.103818
-0.104591
-0.105253
-0.105801
-0.106235
-0.106553
-0.106754
-0.106837
-0.106803
-0.106652
-0.106383
-0.105999
-0.105499
-0.104886
-0.104161
-0.103327
-0.102386
-0.101342
-0.100197
-0.0989546
-0.0976197
-0.0961966
-0.0946903
-0.0931063
-0.101138
-0.102136
-0.103026
-0.103806
-0.104474
-0.105027
-0.105465
-0.105787
-0.10599
-0.106075
-0.106041
-0.105888
-0.105617
-0.105229
-0.104724
-0.104104
-0.103371
-0.102528
-0.101576
-0.100519
-0.0993606
-0.0981036
-0.0967527
-0.0953124
-0.0937879
-0.092185
-0.100223
-0.101231
-0.10213
-0.102918
-0.103593
-0.104153
-0.104596
-0.104921
-0.105127
-0.105214
-0.10518
-0.105026
-0.104753
-0.104361
-0.10385
-0.103224
-0.102482
-0.101629
-0.100665
-0.0995952
-0.0984216
-0.0971484
-0.0957799
-0.0943207
-0.0927762
-0.0911524
-0.099204
-0.100223
-0.101132
-0.101929
-0.102613
-0.10318
-0.103629
-0.103959
-0.104168
-0.104257
-0.104224
-0.10407
-0.103794
-0.103398
-0.102882
-0.102248
-0.101497
-0.100633
-0.0996572
-0.0985727
-0.0973832
-0.0960924
-0.0947047
-0.093225
-0.0916586
-0.0900118
-0.0980815
-0.0991133
-0.100034
-0.100842
-0.101535
-0.10211
-0.102567
-0.102902
-0.103116
-0.103208
-0.103176
-0.103021
-0.102743
-0.102343
-0.101821
-0.10118
-0.10042
-0.0995444
-0.0985552
-0.0974556
-0.096249
-0.0949393
-0.093531
-0.092029
-0.090439
-0.0887671
-0.0968575
-0.0979039
-0.0988386
-0.0996589
-0.100363
-0.100948
-0.101412
-0.101755
-0.101974
-0.102069
-0.102039
-0.101884
-0.101604
-0.1012
-0.100673
-0.100024
-0.0992543
-0.0983667
-0.0973635
-0.0962479
-0.0950231
-0.0936933
-0.092263
-0.0907372
-0.0891216
-0.0874227
-0.0955337
-0.096597
-0.0975471
-0.0983815
-0.0990979
-0.0996941
-0.100168
-0.100519
-0.100744
-0.100843
-0.100816
-0.100662
-0.100381
-0.0999734
-0.0994406
-0.0987836
-0.0980041
-0.0971042
-0.0960865
-0.094954
-0.0937102
-0.0923592
-0.0909055
-0.0893543
-0.0877116
-0.0859838
-0.0941123
-0.0951946
-0.0961623
-0.0970129
-0.0977438
-0.0983529
-0.0988381
-0.0991979
-0.0994307
-0.0995355
-0.0995117
-0.0993589
-0.099077
-0.0986665
-0.0981283
-0.0974636
-0.096674
-0.0957616
-0.0947289
-0.0935789
-0.0923153
-0.090942
-0.0894638
-0.0878859
-0.0862144
-0.084456
-0.0826184
-0.08071
-0.0787403
-0.0925952
-0.093699
-0.0946867
-0.0955556
-0.0963031
-0.0969269
-0.097425
-0.0977956
-0.0980372
-0.0981488
-0.0981294
-0.0979788
-0.0976969
-0.0972839
-0.0967407
-0.0960685
-0.0952688
-0.0943437
-0.0932958
-0.0921279
-0.0908438
-0.0894475
-0.0879438
-0.086338
-0.0846364
-0.0828458
-0.0809742
-0.0790302
-0.0770235
-0.0909849
-0.0921129
-0.0931232
-0.0940127
-0.094779
-0.0954196
-0.0959324
-0.0963156
-0.0965675
-0.0966872
-0.0966735
-0.0965262
-0.096245
-0.0958303
-0.0952827
-0.0946034
-0.0937938
-0.0928562
-0.0917928
-0.0906069
-0.0893018
-0.0878819
-0.0863519
-0.0847173
-0.0829845
-0.0811605
-0.0792533
-0.077272
-0.0752266
-0.0892844
-0.0904394
-0.0914748
-0.0923875
-0.0931749
-0.0938345
-0.0943641
-0.0947617
-0.0950258
-0.095155
-0.0951485
-0.0950057
-0.0947263
-0.0943107
-0.0937595
-0.0930736
-0.0922548
-0.0913048
-0.0902262
-0.0890221
-0.087696
-0.0862521
-0.0846954
-0.0830314
-0.0812665
-0.079408
-0.0774642
-0.0754443
-0.0733584
-0.087497
-0.0886819
-0.0897451
-0.0906837
-0.0914948
-0.0921758
-0.0927243
-0.0931385
-0.0934165
-0.0935571
-0.0935593
-0.0934224
-0.0931462
-0.0927308
-0.0921768
-0.0914854
-0.0906578
-0.0896961
-0.0886027
-0.0873807
-0.0860337
-0.0845659
-0.0829823
-0.0812885
-0.0794912
-0.0775976
-0.0756163
-0.0735567
-0.0714292
-0.0856268
-0.0868444
-0.0879385
-0.0889057
-0.0897431
-0.0904479
-0.0910178
-0.0914507
-0.0917448
-0.0918987
-0.0919113
-0.0917819
-0.0915103
-0.0910965
-0.0905411
-0.089845
-0.0890098
-0.0880372
-0.0869297
-0.0856905
-0.084323
-0.0828317
-0.0812214
-0.079498
-0.0776681
-0.0757393
-0.0737201
-0.0716202
-0.0694503
-0.0836785
-0.0849319
-0.0860597
-0.0870584
-0.0879248
-0.0886562
-0.0892499
-0.0897039
-0.0900163
-0.0901855
-0.0902105
-0.0900906
-0.0898253
-0.0894147
-0.0888593
-0.08816
-0.0873182
-0.0863359
-0.0852155
-0.0839599
-0.0825729
-0.0810588
-0.0794226
-0.0776701
-0.0758081
-0.0738443
-0.0717873
-0.0696471
-0.0674344
-0.0816582
-0.0829504
-0.0841149
-0.0851479
-0.0860461
-0.0868067
-0.0874269
-0.0879044
-0.0882374
-0.0884243
-0.0884639
-0.0883553
-0.0880982
-0.0876927
-0.087139
-0.0864382
-0.0855916
-0.084601
-0.083469
-0.0821986
-0.0807933
-0.0792576
-0.0775966
-0.0758161
-0.0739229
-0.0719249
-0.0698308
-0.0676506
-0.0653953
-0.0795731
-0.0809069
-0.0821109
-0.0831811
-0.084114
-0.0849065
-0.0855558
-0.0860595
-0.0864156
-0.0866225
-0.0866789
-0.086584
-0.0863374
-0.0859389
-0.085389
-0.0846886
-0.083839
-0.0828422
-0.0817004
-0.0804169
-0.0789951
-0.0774396
-0.0757553
-0.0739484
-0.0720256
-0.0699948
-0.0678648
-0.0656457
-0.0633485
-0.0774318
-0.0788099
-0.0800562
-0.0811663
-0.0821366
-0.0829638
-0.0836449
-0.0841774
-0.0845592
-0.0847887
-0.0848644
-0.0847856
-0.0845517
-0.0841627
-0.0836188
-0.0829211
-0.0820708
-0.0810699
-0.0799207
-0.0786262
-0.0771902
-0.075617
-0.0739118
-0.0720806
-0.0701302
-0.0680686
-0.0659045
-0.0636481
-0.0613104
-0.0752445
-0.0766695
-0.0779607
-0.0791134
-0.0801238
-0.0809882
-0.0817038
-0.0822677
-0.0826779
-0.0829325
-0.0830302
-0.08297
-0.0827514
-0.0823744
-0.0818392
-0.0811467
-0.0802984
-0.0792959
-0.0781419
-0.0768392
-0.0753917
-0.0738036
-0.0720802
-0.0702274
-0.0682522
-0.0661623
-0.0639666
-0.0616751
-0.0592988
-0.0730234
-0.0744975
-0.0758359
-0.0770337
-0.0780866
-0.0789909
-0.0797434
-0.0803414
-0.0807826
-0.081065
-0.0811873
-0.0811484
-0.0809479
-0.0805855
-0.0800618
-0.0793775
-0.078534
-0.077533
-0.0763772
-0.0750695
-0.0736136
-0.0720139
-0.0702755
-0.0684045
-0.0664076
-0.0642926
-0.0620684
-0.0597446
-0.0573322
-0.0707823
-0.0723075
-0.0736952
-0.0749401
-0.0760378
-0.0769843
-0.0777763
-0.0784109
-0.0788856
-0.0791984
-0.079348
-0.0793333
-0.0791536
-0.078809
-0.0782998
-0.0776266
-0.0767911
-0.075795
-0.0746408
-0.0733316
-0.0718709
-0.0702633
-0.0685138
-0.0666283
-0.0646136
-0.0624773
-0.0602281
-0.0578754
-0.0554299
-0.0685371
-0.0701148
-0.0715534
-0.0728474
-0.0739919
-0.0749828
-0.0758165
-0.07649
-0.0770007
-0.0773466
-0.0775261
-0.0775383
-0.0773825
-0.0770586
-0.0765669
-0.0759084
-0.0750843
-0.0740966
-0.0729478
-0.0716409
-0.0701795
-0.068568
-0.0668116
-0.0649159
-0.0628876
-0.0607342
-0.0584641
-0.0560863
-0.0536111
-0.0663052
-0.0679365
-0.0694274
-0.0707719
-0.0719649
-0.073002
-0.0738794
-0.0745939
-0.0751429
-0.0755243
-0.0757364
-0.0757783
-0.0756492
-0.0753491
-0.0748783
-0.0742378
-0.0734287
-0.0724533
-0.0713138
-0.0700133
-0.0685555
-0.0669446
-0.0651857
-0.0632844
-0.0612472
-0.0590812
-0.0567944
-0.0543956
-0.0518943
-0.0641058
-0.0657914
-0.0673354
-0.0687315
-0.0699741
-0.0710589
-0.0719817
-0.0727392
-0.0733285
-0.0737476
-0.0739948
-0.074069
-0.0739695
-0.0736962
-0.0732496
-0.0726306
-0.0718402
-0.0708808
-0.0697547
-0.0684649
-0.0670151
-0.0654094
-0.0636527
-0.0617505
-0.0597089
-0.0575349
-0.0552359
-0.0528202
-0.0502966
-0.0619595
-0.0636995
-0.0652969
-0.0667451
-0.0680383
-0.0691718
-0.0701412
-0.0709431
-0.0715746
-0.0720335
-0.0723179
-0.0724268
-0.0723596
-0.072116
-0.0716966
-0.0711022
-0.0703344
-0.0693949
-0.0682862
-0.0670113
-0.0655738
-0.0639777
-0.0622278
-0.0603293
-0.058288
-0.0561104
-0.0538034
-0.0513747
-0.0488321
-0.0598874
-0.0616814
-0.0633323
-0.0648326
-0.0661768
-0.0673595
-0.0683764
-0.0692239
-0.0698988
-0.070399
-0.0707225
-0.0708683
-0.0708356
-0.0706244
-0.0702351
-0.0696686
-0.0689264
-0.0680102
-0.0669226
-0.0656665
-0.0642454
-0.0626631
-0.0609241
-0.0590335
-0.0569966
-0.0548194
-0.0525083
-0.0500699
-0.0475114
-0.0579115
-0.0597586
-0.0614621
-0.0630142
-0.064409
-0.065641
-0.0667058
-0.0675993
-0.0683186
-0.0688611
-0.0692251
-0.0694093
-0.0694131
-0.0692364
-0.0688795
-0.0683434
-0.0676296
-0.0667398
-0.0656764
-0.0644423
-0.0630409
-0.0614758
-0.0597513
-0.057872
-0.0558429
-0.0536694
-0.0513571
-0.0489118
-0.0463395
-0.0560531
-0.0579518
-0.0597066
-0.0613094
-0.062754
-0.0640347
-0.0651469
-0.0660864
-0.0668502
-0.0674355
-0.0678406
-0.0680642
-0.0681056
-0.0679647
-0.0676418
-0.0671379
-0.0664543
-0.065593
-0.0645561
-0.0633464
-0.0619672
-0.0604218
-0.0587143
-0.0568487
-0.0548298
-0.0526622
-0.0503506
-0.0479002
-0.0453155
-0.0543324
-0.0562805
-0.0580845
-0.0597362
-0.0612289
-0.062557
-0.0637154
-0.0647
-0.0655074
-0.066135
-0.066581
-0.0668439
-0.066923
-0.0668183
-0.0665299
-0.0660589
-0.0654065
-0.0645746
-0.0635652
-0.0623811
-0.0610252
-0.0595008
-0.0578115
-0.055961
-0.0539534
-0.0517927
-0.0494829
-0.0470279
-0.0444313
-0.0527665
-0.054761
-0.0566114
-0.0583091
-0.0598474
-0.0612203
-0.0624227
-0.0634503
-0.0642997
-0.064968
-0.0654533
-0.0657543
-0.0658701
-0.0658006
-0.0655461
-0.0651074
-0.0644857
-0.0636828
-0.0627008
-0.061542
-0.0602093
-0.0587058
-0.0570346
-0.0551992
-0.0532029
-0.051049
-0.0487409
-0.0462812
-0.0436722
-0.0513673
-0.0534041
-0.0552969
-0.0570368
-0.0586169
-0.0600311
-0.0612741
-0.0623414
-0.0632295
-0.0639357
-0.0644577
-0.0647942
-0.0649443
-0.0649078
-0.064685
-0.0642767
-0.0636839
-0.0629084
-0.0619522
-0.0608174
-0.0595067
-0.0580227
-0.0563685
-0.0545471
-0.0525611
-0.0504132
-0.0481058
-0.0456406
-0.0430185
-0.050138
-0.0522119
-0.054142
-0.0559191
-0.0575361
-0.0589867
-0.0602657
-0.0613683
-0.0622909
-0.0630307
-0.0635855
-0.0639538
-0.0641348
-0.064128
-0.0639338
-0.0635528
-0.0629862
-0.0622355
-0.0613025
-0.0601894
-0.0588985
-0.0574323
-0.0557932
-0.053984
-0.0520068
-0.0498636
-0.0475559
-0.0450842
-0.0424481
-0.0490704
-0.0511754
-0.0531366
-0.054945
-0.0565931
-0.0580746
-0.059384
-0.0605167
-0.0614688
-0.0622375
-0.0628205
-0.0632163
-0.0634238
-0.0634429
-0.0632735
-0.0629165
-0.0623728
-0.0616438
-0.0607314
-0.0596373
-0.0583639
-0.0569133
-0.0552877
-0.0534889
-0.051519
-0.0493794
-0.0470705
-0.0445917
-0.0419414
-0.0481444
-0.0502739
-0.0522601
-0.0540936
-0.0557669
-0.0572736
-0.058608
-0.0597655
-0.0607422
-0.061535
-0.0621417
-0.0625608
-0.0627911
-0.0628322
-0.0626844
-0.0623482
-0.0618245
-0.0611147
-0.0602204
-0.0591434
-0.0578856
-0.056449
-0.0548354
-0.0530467
-0.051083
-0.0489464
-0.0466363
-0.0441509
-0.0414871
-0.0473348
-0.0494833
-0.0514889
-0.0533423
-0.0550357
-0.0565628
-0.0579177
-0.0590958
-0.060093
-0.0609062
-0.0615333
-0.0619723
-0.0622225
-0.0622831
-0.0621544
-0.0618368
-0.0613311
-0.0606386
-0.059761
-0.0587001
-0.0574573
-0.056034
-0.0544319
-0.0526518
-0.0506961
-0.0485635
-0.046253
-0.0437626
-0.0410878
-0.0466268
-0.0487905
-0.0508122
-0.0526822
-0.0543927
-0.0559372
-0.05731
-0.0585061
-0.0595215
-0.0603531
-0.0609984
-0.0614558
-0.0617241
-0.0618029
-0.061692
-0.061392
-0.0609034
-0.0602272
-0.059365
-0.0583194
-0.0570916
-0.0556818
-0.0540907
-0.0523219
-0.0503748
-0.0482477
-0.0459393
-0.0434468
-0.040765
-0.0459851
-0.0481667
-0.0502069
-0.0520959
-0.0538259
-0.0553901
-0.0567827
-0.0579989
-0.0590344
-0.0598861
-0.0605514
-0.0610287
-0.0613167
-0.0614149
-0.0613232
-0.0610422
-0.0605724
-0.0599145
-0.0590679
-0.0580373
-0.0568239
-0.0554288
-0.0538537
-0.0520979
-0.050161
-0.0480424
-0.0457401
-0.0432508
-0.0405687
-0.0453053
-0.0475183
-0.0495899
-0.0515103
-0.0532715
-0.0548666
-0.0562897
-0.0575358
-0.0586008
-0.0594814
-0.0601749
-0.0606797
-0.0609944
-0.0611184
-0.0610516
-0.0607944
-0.0603477
-0.0597138
-0.0588955
-0.057887
-0.0566919
-0.0553148
-0.0537569
-0.0520174
-0.0500958
-0.0479915
-0.0457023
-0.0432244
-0.040552
)
;

boundaryField
{
    movingWall
    {
        type            zeroGradient;
    }
    fixedWalls
    {
        type            zeroGradient;
    }
    frontAndBack
    {
        type            empty;
    }
    procBoundary5to2
    {
        type            processor;
        value           nonuniform List<scalar> 
29
(
-0.0913781
-0.0897421
-0.088013
-0.0861941
-0.0842892
-0.0823033
-0.0802425
-0.0781139
-0.0759265
-0.0736907
-0.071419
-0.0691256
-0.0668267
-0.0645403
-0.062286
-0.0600847
-0.0579584
-0.0559293
-0.0540194
-0.0522495
-0.0506376
-0.0491963
-0.0479302
-0.046832
-0.0458818
-0.0450539
-0.0443313
-0.0436724
-0.0429612
)
;
    }
    procBoundary5to3
    {
        type            processor;
        value           nonuniform List<scalar> 
21
(
-0.104271
-0.105217
-0.106058
-0.106794
-0.107423
-0.103409
-0.103482
-0.103442
-0.10329
-0.103025
-0.102648
-0.10216
-0.101561
-0.100852
-0.100034
-0.0991093
-0.098078
-0.0969417
-0.0957018
-0.0943601
-0.0929182
)
;
    }
    procBoundary5to4
    {
        type            processor;
        value           nonuniform List<scalar> 
48
(
-0.0946461
-0.0946774
-0.094585
-0.0943687
-0.0940287
-0.0935658
-0.0929807
-0.0922751
-0.0914507
-0.09051
-0.0894557
-0.0882912
-0.0870203
-0.0856477
-0.0841785
-0.0841785
-0.0823037
-0.0803687
-0.0767196
-0.074965
-0.0731281
-0.0712182
-0.0692456
-0.0672223
-0.0651614
-0.0630771
-0.0609855
-0.0589037
-0.0568498
-0.054843
-0.0529031
-0.0510495
-0.0493009
-0.0476745
-0.0461841
-0.0448399
-0.0436461
-0.0426011
-0.0416959
-0.0409154
-0.0402393
-0.0396457
-0.039116
-0.03864
-0.038222
-0.037886
-0.037685
-0.0376762
)
;
    }
    procBoundary5to6
    {
        type            processor;
        value           nonuniform List<scalar> 
21
(
-0.107944
-0.108355
-0.108655
-0.108845
-0.108924
-0.108893
-0.108751
-0.108499
-0.108139
-0.107671
-0.107098
-0.10642
-0.10564
-0.104761
-0.103784
-0.102713
-0.10155
-0.100299
-0.0989633
-0.0975473
-0.0960551
)
;
    }
}


// ************************************************************************* //
