/*--------------------------------*- C++ -*----------------------------------*\
  =========                 |
  \\      /  F ield         | OpenFOAM: The Open Source CFD Toolbox
   \\    /   O peration     | Website:  https://openfoam.org
    \\  /    A nd           | Version:  9
     \\/     M anipulation  |
\*---------------------------------------------------------------------------*/
FoamFile
{
    format      ascii;
    class       volVectorField;
    location    "2.25";
    object      U;
}
// * * * * * * * * * * * * * * * * * * * * * * * * * * * * * * * * * * * * * //

dimensions      [0 1 -1 0 0 0 0];

internalField   nonuniform List<vector> 
1260
(
(-0.00615175 0.0966496 0)
(-0.00695116 0.0860458 0)
(-0.00778731 0.0753947 0)
(-0.00866326 0.064697 0)
(-0.00958175 0.0539548 0)
(-0.0105451 0.0431713 0)
(-0.0115554 0.0323505 0)
(-0.0126144 0.0214968 0)
(-0.0137235 0.0106146 0)
(-0.0148837 -0.000292069 0)
(-0.0160958 -0.0112194 0)
(-0.0173604 -0.0221639 0)
(-0.0186777 -0.0331227 0)
(-0.0200476 -0.0440934 0)
(-0.0214697 -0.0550742 0)
(-0.0229433 -0.0660636 0)
(-0.024467 -0.0770609 0)
(-0.0260392 -0.0880654 0)
(-0.0276578 -0.0990764 0)
(-0.0293198 -0.110093 0)
(-0.031022 -0.121114 0)
(-0.0327602 -0.132137 0)
(-0.0345295 -0.143157 0)
(-0.0363243 -0.154169 0)
(-0.0381381 -0.165164 0)
(-0.0399639 -0.176132 0)
(0.00407363 0.097408 0)
(0.00332183 0.0868421 0)
(0.00252737 0.0762323 0)
(0.00168675 0.065579 0)
(0.000796948 0.054884 0)
(-0.000144784 0.04415 0)
(-0.0011408 0.0333807 0)
(-0.00219298 0.0225802 0)
(-0.00330282 0.0117523 0)
(-0.00447154 0.000901072 0)
(-0.00570004 -0.00997013 0)
(-0.00698893 -0.0208581 0)
(-0.00833848 -0.0317603 0)
(-0.00974865 -0.0426747 0)
(-0.0112191 -0.0535996 0)
(-0.0127489 -0.0645343 0)
(-0.0143371 -0.0754782 0)
(-0.0159819 -0.0864312 0)
(-0.0176813 -0.0973932 0)
(-0.0194327 -0.108364 0)
(-0.0212329 -0.119342 0)
(-0.0230778 -0.130327 0)
(-0.0249629 -0.141314 0)
(-0.0268829 -0.152299 0)
(-0.0288317 -0.163274 0)
(-0.0308024 -0.174229 0)
(0.0143371 0.0981147 0)
(0.0136353 0.0875925 0)
(0.0128848 0.0770302 0)
(0.0120819 0.0664279 0)
(0.0112231 0.0557869 0)
(0.0103052 0.0451096 0)
(0.00932577 0.0343993 0)
(0.0082826 0.0236595 0)
(0.00717401 0.0128939 0)
(0.00599866 0.00210585 0)
(0.00475552 -0.00870128 0)
(0.00344393 -0.0195248 0)
(0.00206354 -0.0303623 0)
(0.000614363 -0.0412121 0)
(-0.000903232 -0.0520732 0)
(-0.00248852 -0.0629449 0)
(-0.0041404 -0.0738272 0)
(-0.00585732 -0.0847204 0)
(-0.00763729 -0.0956249 0)
(-0.00947781 -0.106541 0)
(-0.0113758 -0.117468 0)
(-0.0133277 -0.128406 0)
(-0.015329 -0.139351 0)
(-0.0173748 -0.150299 0)
(-0.0194594 -0.161244 0)
(-0.0215761 -0.172175 0)
(0.0246355 0.0987678 0)
(0.0239858 0.0882949 0)
(0.0232817 0.0777861 0)
(0.0225188 0.0672414 0)
(0.0216933 0.0566613 0)
(0.0208017 0.046048 0)
(0.0198411 0.035404 0)
(0.0188092 0.0247327 0)
(0.0177041 0.014037 0)
(0.0165242 0.00332032 0)
(0.0152684 -0.00741464 0)
(0.0139359 -0.0181654 0)
(0.0125264 -0.02893 0)
(0.0110397 -0.0397072 0)
(0.00947628 -0.050496 0)
(0.00783671 -0.0612964 0)
(0.00612208 -0.0721087 0)
(0.00433386 -0.0829336 0)
(0.00247393 -0.0937719 0)
(0.000544639 -0.104625 0)
(-0.00145112 -0.115492 0)
(-0.00350992 -0.126373 0)
(-0.00562776 -0.137266 0)
(-0.00779993 -0.148168 0)
(-0.0100211 -0.159072 0)
(-0.0122851 -0.169969 0)
(0.0349667 0.0993651 0)
(0.0343713 0.0889469 0)
(0.0337157 0.0784978 0)
(0.0329951 0.068017 0)
(0.0322051 0.0575047 0)
(0.0313421 0.0469625 0)
(0.0304029 0.0363925 0)
(0.0293846 0.0257973 0)
(0.0282853 0.0151796 0)
(0.0271031 0.00454231 0)
(0.0258368 -0.00611226 0)
(0.0244855 -0.016782 0)
(0.0230488 -0.0274653 0)
(0.0215264 -0.0381613 0)
(0.0199187 -0.0488694 0)
(0.0182262 -0.05959 0)
(0.0164501 -0.0703236 0)
(0.0145915 -0.0810715 0)
(0.0126524 -0.0918349 0)
(0.0106349 -0.102615 0)
(0.00854177 -0.113413 0)
(0.00637607 -0.124228 0)
(0.00414158 -0.13506 0)
(0.00184259 -0.145905 0)
(-0.000515904 -0.156758 0)
(-0.00292827 -0.16761 0)
(0.0453295 0.0999045 0)
(0.0447902 0.0895464 0)
(0.0441852 0.0791629 0)
(0.0435091 0.0687524 0)
(0.0427571 0.0583148 0)
(0.0419251 0.0478509 0)
(0.0410095 0.0373623 0)
(0.0400074 0.026851 0)
(0.0389162 0.0163193 0)
(0.0377342 0.00576954 0)
(0.0364598 -0.00479632 0)
(0.0350919 -0.0153766 0)
(0.03363 -0.0259701 0)
(0.032074 -0.0365763 0)
(0.0304238 -0.0471951 0)
(0.0286802 -0.057827 0)
(0.0268439 -0.0684732 0)
(0.0249163 -0.0791352 0)
(0.0228991 -0.0898146 0)
(0.0207942 -0.100513 0)
(0.0186041 -0.111232 0)
(0.0163317 -0.121972 0)
(0.0139805 -0.132732 0)
(0.0115544 -0.14351 0)
(0.0090578 -0.1543 0)
(0.00649599 -0.165096 0)
(0.0557238 0.100384 0)
(0.0552424 0.0900916 0)
(0.0546899 0.0797794 0)
(0.0540604 0.0694456 0)
(0.0533486 0.0590893 0)
(0.0525499 0.0487108 0)
(0.0516605 0.0383109 0)
(0.0506769 0.0278913 0)
(0.0495965 0.0174536 0)
(0.0484171 0.00699956 0)
(0.047137 -0.00346922 0)
(0.045755 -0.0139515 0)
(0.0442704 -0.0244466 0)
(0.0426828 -0.0349543 0)
(0.0409923 -0.0454749 0)
(0.0391994 -0.0560093 0)
(0.0373048 -0.066559 0)
(0.0353096 -0.0771259 0)
(0.0332155 -0.0877119 0)
(0.0310241 -0.0983193 0)
(0.0287378 -0.10895 0)
(0.0263592 -0.119604 0)
(0.0238914 -0.130282 0)
(0.0213378 -0.140981 0)
(0.0187025 -0.151698 0)
(0.0159901 -0.162426 0)
(0.0661505 0.100803 0)
(0.0657288 0.0905807 0)
(0.0652306 0.0803454 0)
(0.0646496 0.0700943 0)
(0.0639801 0.0598259 0)
(0.0632171 0.0495397 0)
(0.0623561 0.039236 0)
(0.0613936 0.0289156 0)
(0.0603265 0.0185799 0)
(0.0591523 0.0082298 0)
(0.0578692 -0.00213349 0)
(0.0564756 -0.0125093 0)
(0.0549708 -0.0228972 0)
(0.0533542 -0.0332975 0)
(0.0516257 -0.0437109 0)
(0.0497856 -0.0541387 0)
(0.0478346 -0.0645827 0)
(0.0457737 -0.0750451 0)
(0.0436041 -0.0855282 0)
(0.0413275 -0.0960346 0)
(0.0389459 -0.106566 0)
(0.0364616 -0.117124 0)
(0.0338773 -0.127709 0)
(0.0311961 -0.13832 0)
(0.0284215 -0.148951 0)
(0.0255575 -0.159598 0)
(0.0766121 0.101159 0)
(0.0762515 0.091012 0)
(0.0758093 0.080859 0)
(0.0752787 0.0706966 0)
(0.0746536 0.0605224 0)
(0.0739283 0.0503354 0)
(0.0730983 0.040135 0)
(0.0721593 0.0299216 0)
(0.0711081 0.0196956 0)
(0.0699418 0.00945759 0)
(0.0686583 -0.000791839 0)
(0.0672559 -0.0110525 0)
(0.0657335 -0.0213245 0)
(0.0640905 -0.0316084 0)
(0.0623264 -0.0419055 0)
(0.0604416 -0.0522174 0)
(0.0584363 -0.0625462 0)
(0.0563115 -0.0728945 0)
(0.0540682 -0.0832649 0)
(0.0517078 -0.0936602 0)
(0.049232 -0.104083 0)
(0.0466427 -0.114534 0)
(0.0439423 -0.125015 0)
(0.0411332 -0.135524 0)
(0.0382187 -0.146058 0)
(0.035202 -0.156612 0)
(0.0871121 0.101451 0)
(0.0868141 0.0913839 0)
(0.0864295 0.0813185 0)
(0.0859511 0.0712505 0)
(0.0853722 0.0611769 0)
(0.0846869 0.0510956 0)
(0.08389 0.0410056 0)
(0.082977 0.0309065 0)
(0.0819442 0.0207981 0)
(0.0807885 0.0106803 0)
(0.0795074 0.000553071 0)
(0.078099 -0.00958381 0)
(0.0765618 -0.019731 0)
(0.074895 -0.0298897 0)
(0.0730981 -0.0400612 0)
(0.071171 -0.0502478 0)
(0.0691139 -0.0604518 0)
(0.0669273 -0.0706761 0)
(0.0646122 -0.0809237 0)
(0.0621695 -0.0911975 0)
(0.0596006 -0.1015 0)
(0.0569071 -0.111834 0)
(0.0540909 -0.122199 0)
(0.0511539 -0.132595 0)
(0.0480988 -0.143019 0)
(0.0449283 -0.153465 0)
(0.0976555 0.101677 0)
(0.0974215 0.0916949 0)
(0.0970961 0.0817223 0)
(0.0966716 0.0717543 0)
(0.0961408 0.0617872 0)
(0.0954975 0.0518182 0)
(0.0947359 0.0418455 0)
(0.0938513 0.031868 0)
(0.0928395 0.0218848 0)
(0.091697 0.0118951 0)
(0.090421 0.00189846 0)
(0.0890093 -0.00810613 0)
(0.0874602 -0.0181198 0)
(0.0857725 -0.028144 0)
(0.0839455 -0.0381807 0)
(0.0819787 -0.0482324 0)
(0.0798721 -0.0583017 0)
(0.0776261 -0.0683919 0)
(0.075241 -0.0785062 0)
(0.0727177 -0.0886477 0)
(0.070057 -0.0988194 0)
(0.0672602 -0.109023 0)
(0.0643285 -0.119261 0)
(0.0612635 -0.129531 0)
(0.0580671 -0.139831 0)
(0.0547414 -0.150157 0)
(0.108248 0.101836 0)
(0.10808 0.0919436 0)
(0.107815 0.0820688 0)
(0.107446 0.0722062 0)
(0.106966 0.0623515 0)
(0.106366 0.052501 0)
(0.105642 0.0426524 0)
(0.104788 0.0328036 0)
(0.1038 0.0229531 0)
(0.102673 0.0130995 0)
(0.101405 0.00324149 0)
(0.0999928 -0.00662227 0)
(0.0984346 -0.0164935 0)
(0.0967288 -0.0263741 0)
(0.0948743 -0.0362666 0)
(0.0928705 -0.0461736 0)
(0.090717 -0.0560983 0)
(0.0884137 -0.0660441 0)
(0.0859607 -0.0760143 0)
(0.0833584 -0.0860125 0)
(0.0806072 -0.0960416 0)
(0.0777078 -0.106104 0)
(0.074661 -0.116201 0)
(0.0714677 -0.126332 0)
(0.0681292 -0.136495 0)
(0.064647 -0.146686 0)
(0.118897 0.101926 0)
(0.118797 0.0921282 0)
(0.118595 0.0823562 0)
(0.118283 0.0726045 0)
(0.117854 0.0628679 0)
(0.117301 0.0531422 0)
(0.116616 0.0434241 0)
(0.115795 0.033711 0)
(0.114833 0.0240005 0)
(0.113724 0.0142906 0)
(0.112467 0.00457948 0)
(0.111057 -0.00513499 0)
(0.109492 -0.014855 0)
(0.107771 -0.0245829 0)
(0.105892 -0.0343216 0)
(0.103853 -0.0440742 0)
(0.101655 -0.053844 0)
(0.0992969 -0.0636347 0)
(0.0967779 -0.0734499 0)
(0.0940981 -0.0832932 0)
(0.0912576 -0.0931677 0)
(0.0882563 -0.103076 0)
(0.0850946 -0.113019 0)
(0.0817727 -0.122998 0)
(0.0782912 -0.133009 0)
(0.0746508 -0.143049 0)
(0.12961 0.101946 0)
(0.129579 0.0922468 0)
(0.129442 0.0825827 0)
(0.12919 0.0729472 0)
(0.128815 0.0633344 0)
(0.128309 0.0537395 0)
(0.127666 0.0441585 0)
(0.126881 0.0345878 0)
(0.125946 0.0250246 0)
(0.124859 0.0154662 0)
(0.123614 0.00590982 0)
(0.122209 -0.00364696 0)
(0.12064 -0.0132069 0)
(0.118906 -0.022773 0)
(0.117005 -0.0323484 0)
(0.114935 -0.0419365 0)
(0.112695 -0.051541 0)
(0.110283 -0.0611657 0)
(0.1077 -0.0708145 0)
(0.104944 -0.0804911 0)
(0.102015 -0.0901986 0)
(0.0989124 -0.0999398 0)
(0.0956358 -0.109716 0)
(0.0921846 -0.119527 0)
(0.0885589 -0.129372 0)
(0.0847584 -0.139246 0)
(0.140393 0.101891 0)
(0.140435 0.0922967 0)
(0.140366 0.082746 0)
(0.140176 0.0732322 0)
(0.139857 0.063749 0)
(0.139401 0.054291 0)
(0.138802 0.0448533 0)
(0.138054 0.035432 0)
(0.13715 0.0260232 0)
(0.136085 0.0166236 0)
(0.134856 0.00723003 0)
(0.133458 -0.00216069 0)
(0.131888 -0.0115519 0)
(0.130144 -0.0209469 0)
(0.128223 -0.0303492 0)
(0.126123 -0.0397627 0)
(0.123842 -0.0491913 0)
(0.12138 -0.058639 0)
(0.118734 -0.0681097 0)
(0.115903 -0.0776073 0)
(0.112886 -0.087135 0)
(0.109683 -0.0966954 0)
(0.106291 -0.10629 0)
(0.102709 -0.115919 0)
(0.0989379 -0.125581 0)
(0.0949752 -0.135272 0)
(0.151253 0.101759 0)
(0.151372 0.0922747 0)
(0.151374 0.0828431 0)
(0.151248 0.0734569 0)
(0.150988 0.0641092 0)
(0.150586 0.0547942 0)
(0.150033 0.0455064 0)
(0.149324 0.0362411 0)
(0.148453 0.0269938 0)
(0.147414 0.0177607 0)
(0.146202 0.00853776 0)
(0.144814 -0.000678649 0)
(0.143245 -0.00989218 0)
(0.141493 -0.0191068 0)
(0.139554 -0.0283263 0)
(0.137426 -0.0375549 0)
(0.135107 -0.0467968 0)
(0.132594 -0.0560559 0)
(0.129886 -0.0653366 0)
(0.126982 -0.0746425 0)
(0.123878 -0.083977 0)
(0.120573 -0.0933427 0)
(0.117065 -0.102741 0)
(0.113352 -0.112173 0)
(0.109433 -0.121636 0)
(0.105306 -0.131127 0)
(0.100969 -0.14064 0)
(0.0964221 -0.150167 0)
(0.0916651 -0.159697 0)
(0.162193 0.101544 0)
(0.162395 0.0921766 0)
(0.162472 0.0828704 0)
(0.162416 0.073618 0)
(0.162218 0.0644123 0)
(0.161871 0.0552467 0)
(0.161368 0.0461153 0)
(0.160701 0.0370129 0)
(0.159865 0.0279343 0)
(0.158853 0.0188751 0)
(0.157661 0.00983089 0)
(0.156285 0.000797288 0)
(0.154719 -0.00822976 0)
(0.15296 -0.0172546 0)
(0.151005 -0.0262815 0)
(0.14885 -0.0353147 0)
(0.146494 -0.0443587 0)
(0.143933 -0.0534177 0)
(0.141164 -0.0624959 0)
(0.138186 -0.0715971 0)
(0.134994 -0.0807246 0)
(0.131587 -0.089881 0)
(0.127963 -0.099068 0)
(0.124117 -0.108286 0)
(0.120048 -0.117533 0)
(0.115753 -0.126806 0)
(0.111231 -0.1361 0)
(0.106479 -0.145408 0)
(0.101496 -0.154718 0)
(0.173215 0.101239 0)
(0.173506 0.0919968 0)
(0.173664 0.0828233 0)
(0.173682 0.0737117 0)
(0.173551 0.0646546 0)
(0.173263 0.0556452 0)
(0.172812 0.0466773 0)
(0.17219 0.0377448 0)
(0.171392 0.0288424 0)
(0.17041 0.0199649 0)
(0.16924 0.0111074 0)
(0.167877 0.00226521 0)
(0.166316 -0.00656639 0)
(0.164552 -0.015392 0)
(0.162582 -0.024216 0)
(0.160403 -0.0330432 0)
(0.15801 -0.041878 0)
(0.155401 -0.0507249 0)
(0.152571 -0.0595879 0)
(0.149519 -0.0684709 0)
(0.146239 -0.0773773 0)
(0.14273 -0.0863094 0)
(0.138987 -0.095269 0)
(0.135006 -0.104256 0)
(0.130785 -0.11327 0)
(0.12632 -0.122307 0)
(0.121608 -0.131363 0)
(0.116646 -0.14043 0)
(0.111434 -0.1495 0)
(0.184314 0.100837 0)
(0.184703 0.0917282 0)
(0.18495 0.0826957 0)
(0.185047 0.0737326 0)
(0.184988 0.0648318 0)
(0.184765 0.0559861 0)
(0.18437 0.0471889 0)
(0.183797 0.038434 0)
(0.183039 0.0297154 0)
(0.182089 0.0210276 0)
(0.180944 0.0123652 0)
(0.179596 0.00372312 0)
(0.17804 -0.00490371 0)
(0.176273 -0.0135202 0)
(0.17429 -0.0221312 0)
(0.172086 -0.0307413 0)
(0.169657 -0.0393553 0)
(0.167 -0.0479776 0)
(0.16411 -0.0566124 0)
(0.160983 -0.0652635 0)
(0.157614 -0.073934 0)
(0.154 -0.0826264 0)
(0.150137 -0.0913423 0)
(0.146019 -0.100082 0)
(0.141643 -0.108844 0)
(0.137004 -0.117626 0)
(0.132098 -0.126424 0)
(0.126924 -0.135231 0)
(0.121477 -0.14404 0)
(0.195479 0.100327 0)
(0.195977 0.091362 0)
(0.196322 0.0824799 0)
(0.196507 0.0736744 0)
(0.196527 0.0649383 0)
(0.196373 0.0562645 0)
(0.196039 0.0476463 0)
(0.195519 0.039077 0)
(0.194805 0.0305505 0)
(0.193891 0.0220609 0)
(0.192771 0.0136023 0)
(0.191441 0.00516949 0)
(0.189893 -0.00324301 0)
(0.188124 -0.0116403 0)
(0.186127 -0.0200275 0)
(0.183899 -0.0284093 0)
(0.181435 -0.0367906 0)
(0.178729 -0.0451757 0)
(0.175777 -0.0535688 0)
(0.172574 -0.0619737 0)
(0.169116 -0.0703933 0)
(0.165396 -0.0788301 0)
(0.16141 -0.0872856 0)
(0.157152 -0.09576 0)
(0.152618 -0.104252 0)
(0.147802 -0.11276 0)
(0.1427 -0.12128 0)
(0.137308 -0.129806 0)
(0.131622 -0.138332 0)
(0.206694 0.099697 0)
(0.207312 0.0908872 0)
(0.207766 0.0821665 0)
(0.20805 0.0735288 0)
(0.208156 0.0649672 0)
(0.208079 0.0564747 0)
(0.207812 0.0480445 0)
(0.207349 0.0396698 0)
(0.206683 0.0313444 0)
(0.205808 0.0230619 0)
(0.204718 0.0148166 0)
(0.203407 0.00660261 0)
(0.201868 -0.00158554 0)
(0.200098 -0.00975318 0)
(0.198089 -0.0179055 0)
(0.195837 -0.0260473 0)
(0.193336 -0.0341835 0)
(0.190582 -0.0423184 0)
(0.187567 -0.0504561 0)
(0.184287 -0.0586001 0)
(0.180736 -0.0667535 0)
(0.176909 -0.0749184 0)
(0.172798 -0.0830964 0)
(0.168398 -0.0912877 0)
(0.163702 -0.0994915 0)
(0.158706 -0.107706 0)
(0.153404 -0.115927 0)
(0.147791 -0.124151 0)
(0.141864 -0.132372 0)
(0.21793 0.0989316 0)
(0.218685 0.0902909 0)
(0.219261 0.0817443 0)
(0.219654 0.0732863 0)
(0.219857 0.0649102 0)
(0.219865 0.0566096 0)
(0.219673 0.0483775 0)
(0.219273 0.0402074 0)
(0.21866 0.0320929 0)
(0.217828 0.0240276 0)
(0.21677 0.0160054 0)
(0.21548 0.00802058 0)
(0.213953 6.73862e-05 0)
(0.212182 -0.00785952 0)
(0.210162 -0.0157654 0)
(0.207886 -0.0236552 0)
(0.205349 -0.0315335 0)
(0.202544 -0.0394047 0)
(0.199466 -0.0472728 0)
(0.196108 -0.0551411 0)
(0.192463 -0.0630125 0)
(0.188525 -0.0708891 0)
(0.184287 -0.0787722 0)
(0.179742 -0.0866623 0)
(0.174884 -0.0945585 0)
(0.169705 -0.102459 0)
(0.1642 -0.110362 0)
(0.158364 -0.118263 0)
(0.152194 -0.126159 0)
(0.229151 0.0980139 0)
(0.23006 0.089558 0)
(0.230773 0.0812 0)
(0.231288 0.072935 0)
(0.2316 0.0647573 0)
(0.231704 0.0566605 0)
(0.231594 0.0486381 0)
(0.231265 0.0406838 0)
(0.230712 0.0327911 0)
(0.229927 0.0249538 0)
(0.228905 0.0171657 0)
(0.22764 0.00942111 0)
(0.226126 0.00171423 0)
(0.224357 -0.00596029 0)
(0.222326 -0.0136076 0)
(0.220026 -0.0212327 0)
(0.217452 -0.02884 0)
(0.214597 -0.0364337 0)
(0.211454 -0.0440177 0)
(0.208016 -0.051595 0)
(0.204276 -0.0591685 0)
(0.200226 -0.06674 0)
(0.195859 -0.0743109 0)
(0.191167 -0.0818815 0)
(0.186144 -0.0894515 0)
(0.180781 -0.0970194 0)
(0.175072 -0.104584 0)
(0.169013 -0.112142 0)
(0.162598 -0.119691 0)
(0.240308 0.0969248 0)
(0.241389 0.0886712 0)
(0.242257 0.0805181 0)
(0.24291 0.0724617 0)
(0.243344 0.0644966 0)
(0.243555 0.0566173 0)
(0.243538 0.0488177 0)
(0.243289 0.0410917 0)
(0.242802 0.033433 0)
(0.242071 0.0258357 0)
(0.24109 0.0182937 0)
(0.239854 0.0108013 0)
(0.238356 0.00335287 0)
(0.23659 -0.00405685 0)
(0.234549 -0.0114329 0)
(0.232227 -0.0187801 0)
(0.229616 -0.0261027 0)
(0.22671 -0.0334047 0)
(0.223502 -0.0406896 0)
(0.219983 -0.0479606 0)
(0.216146 -0.05522 0)
(0.211983 -0.0624698 0)
(0.207486 -0.069711 0)
(0.202647 -0.0769442 0)
(0.197458 -0.0841691 0)
(0.191911 -0.0913852 0)
(0.185999 -0.0985912 0)
(0.179718 -0.105786 0)
(0.173062 -0.11297 0)
(0.251341 0.0956432 0)
(0.252615 0.0876115 0)
(0.253657 0.0796816 0)
(0.254464 0.0718509 0)
(0.255035 0.0641147 0)
(0.255367 0.0564683 0)
(0.255455 0.0489061 0)
(0.255295 0.0414224 0)
(0.254883 0.0340114 0)
(0.254212 0.0266673 0)
(0.253279 0.0193845 0)
(0.252076 0.0121573 0)
(0.250598 0.0049804 0)
(0.248838 -0.0021513 0)
(0.24679 -0.00924262 0)
(0.244446 -0.0162981 0)
(0.2418 -0.0233218 0)
(0.238844 -0.0303174 0)
(0.23557 -0.0372883 0)
(0.231971 -0.0442373 0)
(0.228038 -0.0511665 0)
(0.223762 -0.0580778 0)
(0.219135 -0.0649722 0)
(0.214149 -0.0718503 0)
(0.208796 -0.0787123 0)
(0.203067 -0.0855581 0)
(0.196956 -0.0923875 0)
(0.190457 -0.0992009 0)
(0.183566 -0.106 0)
(0.262176 0.0941466 0)
(0.263665 0.0863581 0)
(0.264901 0.0786718 0)
(0.265881 0.0710857 0)
(0.266606 0.0635966 0)
(0.267073 0.0562001 0)
(0.267279 0.0488916 0)
(0.26722 0.0416659 0)
(0.266893 0.0345176 0)
(0.266292 0.0274415 0)
(0.265413 0.0204321 0)
(0.264249 0.0134843 0)
(0.262796 0.00659298 0)
(0.261046 -0.000246661 0)
(0.258994 -0.007039 0)
(0.256631 -0.0137883 0)
(0.253952 -0.0204985 0)
(0.250947 -0.0271729 0)
(0.24761 -0.0338145 0)
(0.243931 -0.0404258 0)
(0.239903 -0.0470089 0)
(0.235517 -0.0535653 0)
(0.230764 -0.0600962 0)
(0.225635 -0.0666023 0)
(0.220122 -0.0730843 0)
(0.214217 -0.0795426 0)
(0.207913 -0.0859783 0)
(0.201206 -0.0923933 0)
(0.194091 -0.0987913 0)
(0.27273 0.0924119 0)
(0.274457 0.0848897 0)
(0.275907 0.0774687 0)
(0.27708 0.0701482 0)
(0.277976 0.0629258 0)
(0.278594 0.0557982 0)
(0.278932 0.0487613 0)
(0.278987 0.0418107 0)
(0.278756 0.0349418 0)
(0.278235 0.0281495 0)
(0.277418 0.0214292 0)
(0.276302 0.0147761 0)
(0.27488 0.00818542 0)
(0.273146 0.00165286 0)
(0.271094 -0.00482563 0)
(0.268717 -0.011254 0)
(0.266007 -0.0176356 0)
(0.262958 -0.0239736 0)
(0.259561 -0.0302705 0)
(0.255807 -0.0365287 0)
(0.251688 -0.04275 0)
(0.247196 -0.0489359 0)
(0.242322 -0.0550876 0)
(0.237057 -0.0612059 0)
(0.231393 -0.0672922 0)
(0.225323 -0.0733476 0)
(0.21884 -0.0793745 0)
(0.21194 -0.0853765 0)
(0.20462 -0.0913596 0)
(0.282909 0.0904157 0)
(0.284896 0.0831841 0)
(0.286581 0.0760519 0)
(0.287966 0.0690194 0)
(0.289052 0.0620851 0)
(0.289838 0.0552467 0)
(0.290324 0.0485009 0)
(0.290506 0.0418442 0)
(0.290384 0.0352725 0)
(0.289953 0.0287815 0)
(0.28921 0.0223671 0)
(0.288149 0.0160249 0)
(0.286766 0.00975093 0)
(0.285056 0.00354119 0)
(0.283011 -0.002608 0)
(0.280626 -0.00869999 0)
(0.277893 -0.0147378 0)
(0.274804 -0.0207243 0)
(0.271353 -0.0266615 0)
(0.267531 -0.0325517 0)
(0.26333 -0.0383963 0)
(0.258741 -0.044197 0)
(0.253756 -0.0499549 0)
(0.248368 -0.0556715 0)
(0.242567 -0.0613483 0)
(0.236349 -0.0669879 0)
(0.229707 -0.0725937 0)
(0.222638 -0.0781712 0)
(0.215139 -0.0837289 0)
(0.292611 0.0881355 0)
(0.294879 0.08122 0)
(0.29682 0.0744012 0)
(0.298437 0.0676802 0)
(0.29973 0.0610567 0)
(0.300701 0.0545292 0)
(0.30135 0.0480954 0)
(0.301675 0.0417525 0)
(0.301675 0.0354973 0)
(0.301348 0.0293261 0)
(0.300689 0.0232353 0)
(0.299695 0.0172214 0)
(0.298361 0.0112808 0)
(0.296683 0.00541011 0)
(0.294655 -0.000393912 0)
(0.29227 -0.00613393 0)
(0.289523 -0.0118128 0)
(0.286406 -0.0174328 0)
(0.282911 -0.0229959 0)
(0.279033 -0.0285039 0)
(0.274761 -0.0339584 0)
(0.27009 -0.0393608 0)
(0.265012 -0.0447126 0)
(0.259519 -0.0500157 0)
(0.253605 -0.0552724 0)
(0.247265 -0.0604863 0)
(0.240493 -0.0656623 0)
(0.233289 -0.070808 0)
(0.225652 -0.0759342 0)
(0.301728 0.0855506 0)
(0.304297 0.0789772 0)
(0.306514 0.072497 0)
(0.30838 0.066112 0)
(0.309899 0.0598229 0)
(0.311072 0.0536291 0)
(0.3119 0.0475292 0)
(0.312383 0.0415211 0)
(0.312519 0.0356024 0)
(0.312308 0.0297703 0)
(0.311747 0.0240219 0)
(0.310832 0.0183541 0)
(0.309561 0.0127641 0)
(0.307928 0.00724903 0)
(0.305928 0.00180619 0)
(0.303557 -0.00356663 0)
(0.300809 -0.00887193 0)
(0.297678 -0.0141116 0)
(0.294156 -0.0192873 0)
(0.290238 -0.0244007 0)
(0.285917 -0.0294533 0)
(0.281187 -0.0344468 0)
(0.276041 -0.0393829 0)
(0.270473 -0.0442642 0)
(0.264479 -0.0490938 0)
(0.258055 -0.0538764 0)
(0.251198 -0.0586186 0)
(0.243907 -0.06333 0)
(0.236185 -0.0680238 0)
(0.310152 0.0826426 0)
(0.313038 0.0764375 0)
(0.315546 0.0703214 0)
(0.317679 0.0642975 0)
(0.31944 0.0583669 0)
(0.320831 0.0525301 0)
(0.321854 0.0467864 0)
(0.322511 0.0411347 0)
(0.3228 0.0355733 0)
(0.322721 0.0301 0)
(0.322273 0.0247128 0)
(0.321453 0.0194092 0)
(0.320259 0.0141869 0)
(0.318687 0.00904366 0)
(0.316734 0.00397734 0)
(0.314395 -0.00101424 0)
(0.311666 -0.00593244 0)
(0.308542 -0.0107793 0)
(0.305018 -0.0155563 0)
(0.301088 -0.0202651 0)
(0.296749 -0.0249073 0)
(0.291993 -0.0294846 0)
(0.286818 -0.0339995 0)
(0.281219 -0.0384549 0)
(0.275194 -0.0428552 0)
(0.26874 -0.0472062 0)
(0.261857 -0.0515162 0)
(0.254546 -0.0557965 0)
(0.24681 -0.0600629 0)
(0.317774 0.0793964 0)
(0.320991 0.0735854 0)
(0.323805 0.0678589 0)
(0.326219 0.0622206 0)
(0.328237 0.0566726 0)
(0.329862 0.051216 0)
(0.331097 0.045851 0)
(0.331944 0.0405772 0)
(0.332403 0.0353935 0)
(0.332474 0.0302986 0)
(0.332158 0.025291 0)
(0.331453 0.0203689 0)
(0.330357 0.0155306 0)
(0.32887 0.0107743 0)
(0.326988 0.00609825 0)
(0.324709 0.00150073 0)
(0.32203 -0.0030194 0)
(0.318946 -0.00746387 0)
(0.315456 -0.0118343 0)
(0.311556 -0.0161322 0)
(0.307243 -0.0203593 0)
(0.302513 -0.024518 0)
(0.297365 -0.028611 0)
(0.291797 -0.0326423 0)
(0.285808 -0.0366169 0)
(0.279399 -0.0405422 0)
(0.27257 -0.0444278 0)
(0.265326 -0.0482868 0)
(0.257672 -0.0521372 0)
(0.324494 0.0758004 0)
(0.328053 0.0704081 0)
(0.331186 0.0650956 0)
(0.333895 0.0598669 0)
(0.336185 0.0547246 0)
(0.338062 0.0496707 0)
(0.339527 0.0447058 0)
(0.340583 0.0398303 0)
(0.341233 0.0350437 0)
(0.341478 0.0303454 0)
(0.341319 0.0257343 0)
(0.340757 0.0212093 0)
(0.339792 0.0167691 0)
(0.338423 0.0124123 0)
(0.33665 0.00813763 0)
(0.334471 0.00394372 0)
(0.331887 -0.000171024 0)
(0.328895 -0.00420778 0)
(0.325494 -0.00816811 0)
(0.321684 -0.0120538 0)
(0.317463 -0.0158669 0)
(0.312832 -0.0196101 0)
(0.30779 -0.023287 0)
(0.302338 -0.026902 0)
(0.296478 -0.0304614 0)
(0.290213 -0.0339734 0)
(0.283545 -0.0374492 0)
(0.276481 -0.0409034 0)
(0.269025 -0.0443554 0)
(0.330235 0.0718452 0)
(0.334147 0.0668946 0)
(0.337612 0.0620184 0)
(0.340632 0.0572212 0)
(0.343215 0.0525059 0)
(0.345363 0.0478749 0)
(0.347083 0.0433294 0)
(0.348378 0.0388703 0)
(0.34925 0.0344977 0)
(0.349704 0.0302113 0)
(0.349742 0.0260106 0)
(0.349366 0.0218949 0)
(0.348578 0.0178632 0)
(0.347379 0.0139145 0)
(0.345772 0.0100477 0)
(0.343757 0.00626149 0)
(0.341336 0.00255458 0)
(0.338509 -0.00107443 0)
(0.335279 -0.00462714 0)
(0.331646 -0.00810554 0)
(0.327613 -0.0115121 0)
(0.32318 -0.0148498 0)
(0.318352 -0.0181229 0)
(0.313132 -0.0213366 0)
(0.307522 -0.0244978 0)
(0.301527 -0.0276159 0)
(0.295154 -0.0307028 0)
(0.288407 -0.0337742 0)
(0.281293 -0.0368506 0)
(0.334983 0.0675203 0)
(0.339266 0.0630309 0)
(0.343084 0.0586103 0)
(0.346442 0.0542629 0)
(0.349347 0.0499922 0)
(0.351804 0.0458006 0)
(0.353818 0.0416899 0)
(0.355396 0.0376611 0)
(0.356542 0.0337148 0)
(0.357261 0.0298511 0)
(0.357557 0.0260697 0)
(0.357435 0.0223702 0)
(0.356898 0.0187519 0)
(0.355951 0.015214 0)
(0.354597 0.0117554 0)
(0.35284 0.00837512 0)
(0.350682 0.00507172 0)
(0.348129 0.00184371 0)
(0.345183 -0.00131066 0)
(0.341849 -0.00439366 0)
(0.33813 -0.00740793 0)
(0.334031 -0.010357 0)
(0.329557 -0.0132453 0)
(0.324712 -0.0160788 0)
(0.319503 -0.0188649 0)
(0.313934 -0.0216135 0)
(0.308013 -0.024337 0)
(0.301745 -0.0270517 0)
(0.295137 -0.0297785 0)
(0.338893 0.0628044 0)
(0.343583 0.0587909 0)
(0.347799 0.0548397 0)
(0.351544 0.0509553 0)
(0.354826 0.0471411 0)
(0.357654 0.0433997 0)
(0.360033 0.039733 0)
(0.361971 0.0361422 0)
(0.363474 0.0326281 0)
(0.364549 0.0291911 0)
(0.365202 0.0258311 0)
(0.365439 0.0225479 0)
(0.365266 0.0193409 0)
(0.36469 0.0162094 0)
(0.363716 0.0131526 0)
(0.362349 0.0101692 0)
(0.360595 0.007258 0)
(0.358461 0.00441742 0)
(0.355951 0.00164553 0)
(0.353072 -0.00106 0)
(0.34983 -0.00370229 0)
(0.34623 -0.00628485 0)
(0.342279 -0.0088124 0)
(0.337983 -0.011291 0)
(0.333348 -0.0137285 0)
(0.328381 -0.0161347 0)
(0.323088 -0.0185223 0)
(0.317474 -0.0209074 0)
(0.311546 -0.0233105 0)
(0.342528 0.0576501 0)
(0.347701 0.0541199 0)
(0.352396 0.0506447 0)
(0.356619 0.0472287 0)
(0.360379 0.0438753 0)
(0.363685 0.040587 0)
(0.366543 0.0373657 0)
(0.368964 0.0342129 0)
(0.370954 0.0311293 0)
(0.372522 0.0281155 0)
(0.373676 0.0251715 0)
(0.374424 0.0222973 0)
(0.374773 0.0194925 0)
(0.37473 0.0167563 0)
(0.374303 0.0140881 0)
(0.3735 0.0114867 0)
(0.372327 0.00895086 0)
(0.370792 0.00647906 0)
(0.368901 0.00406934 0)
(0.366663 0.00171941 0)
(0.364083 -0.000573826 0)
(0.361168 -0.00281424 0)
(0.357926 -0.00500636 0)
(0.354363 -0.00715605 0)
(0.350485 -0.009271 0)
(0.346298 -0.0113608 0)
(0.341808 -0.0134378 0)
(0.337019 -0.0155172 0)
(0.331935 -0.0176188 0)
(0.347334 0.0519618 0)
(0.353119 0.0489138 0)
(0.358431 0.0459126 0)
(0.363277 0.0429623 0)
(0.367666 0.0400658 0)
(0.371608 0.0372256 0)
(0.375112 0.0344437 0)
(0.378186 0.0317214 0)
(0.38084 0.0290596 0)
(0.383082 0.026459 0)
(0.384922 0.0239199 0)
(0.386368 0.0214421 0)
(0.387429 0.0190255 0)
(0.388112 0.0166695 0)
(0.388427 0.0143735 0)
(0.388381 0.0121366 0)
(0.387982 0.0099575 0)
(0.387238 0.00783489 0)
(0.386156 0.00576694 0)
(0.384744 0.00375138 0)
(0.383009 0.00178558 0)
(0.380957 -0.00013421 0)
(0.378596 -0.0020126 0)
(0.375931 -0.00385508 0)
(0.372969 -0.00566868 0)
(0.369714 -0.00746233 0)
(0.36617 -0.0092474 0)
(0.36234 -0.0110381 0)
(0.358227 -0.0128527 0)
(0.356391 0.0455849 0)
(0.362959 0.0430107 0)
(0.369065 0.0404749 0)
(0.374714 0.037981 0)
(0.379917 0.0355319 0)
(0.384682 0.0331299 0)
(0.389018 0.0307768 0)
(0.392934 0.0284741 0)
(0.39644 0.0262227 0)
(0.399545 0.0240233 0)
(0.402257 0.0218764 0)
(0.404585 0.0197821 0)
(0.406538 0.0177403 0)
(0.408124 0.0157507 0)
(0.409352 0.0138127 0)
(0.410229 0.0119257 0)
(0.410764 0.0100887 0)
(0.410964 0.00830043 0)
(0.410836 0.00655934 0)
(0.410388 0.00486342 0)
(0.409626 0.00321021 0)
(0.408557 0.00159668 0)
(0.407187 1.85932e-05 0)
(0.405522 -0.00152931 0)
(0.403566 -0.00305347 0)
(0.401323 -0.00456161 0)
(0.398797 -0.00606384 0)
(0.395987 -0.00757291 0)
(0.392895 -0.00910512 0)
(0.375291 0.0383377 0)
(0.382784 0.0362267 0)
(0.389824 0.034146 0)
(0.396414 0.0320989 0)
(0.402564 0.030088 0)
(0.408281 0.0281152 0)
(0.413575 0.0261825 0)
(0.418453 0.0242912 0)
(0.422925 0.0224424 0)
(0.426999 0.0206369 0)
(0.430682 0.018875 0)
(0.433984 0.0171572 0)
(0.436913 0.0154835 0)
(0.439476 0.0138538 0)
(0.441683 0.0122677 0)
(0.443539 0.0107248 0)
(0.445054 0.00922413 0)
(0.446234 0.00776485 0)
(0.447087 0.00634563 0)
(0.447619 0.00496481 0)
(0.447838 0.00362025 0)
(0.447749 0.00230922 0)
(0.447357 0.00102829 0)
(0.446668 -0.000226862 0)
(0.445687 -0.00146282 0)
(0.444417 -0.00268564 0)
(0.442859 -0.00390394 0)
(0.441014 -0.00512877 0)
(0.43888 -0.00637416 0)
(0.412629 0.0301285 0)
(0.420998 0.0284745 0)
(0.428914 0.0268442 0)
(0.436381 0.0252403 0)
(0.443407 0.0236649 0)
(0.45 0.02212 0)
(0.456165 0.020607 0)
(0.461912 0.0191275 0)
(0.467248 0.0176823 0)
(0.47218 0.0162721 0)
(0.476718 0.0148976 0)
(0.480868 0.0135591 0)
(0.484639 0.0122568 0)
(0.488038 0.0109905 0)
(0.491074 0.00976019 0)
(0.493755 0.00856537 0)
(0.496087 0.00740538 0)
(0.498079 0.00627943 0)
(0.499738 0.00518642 0)
(0.501072 0.00412524 0)
(0.502086 0.00309422 0)
(0.502787 0.00209081 0)
(0.503181 0.00111198 0)
(0.503272 0.000153417 0)
(0.503067 -0.000788119 0)
(0.502568 -0.00171882 0)
(0.501777 -0.00264622 0)
(0.500694 -0.00357925 0)
(0.499317 -0.00452934 0)
(0.479181 0.0211527 0)
(0.487963 0.0199576 0)
(0.496291 0.0187806 0)
(0.504171 0.0176239 0)
(0.511606 0.0164893 0)
(0.518605 0.0153782 0)
(0.525175 0.0142919 0)
(0.531322 0.0132315 0)
(0.537055 0.0121978 0)
(0.542381 0.0111913 0)
(0.547308 0.0102124 0)
(0.551845 0.0092616 0)
(0.556 0.00833884 0)
(0.559782 0.00744414 0)
(0.563198 0.00657735 0)
(0.566258 0.00573817 0)
(0.568969 0.00492599 0)
(0.571341 0.00414005 0)
(0.573381 0.00337877 0)
(0.575097 0.00264195 0)
(0.576497 0.00192871 0)
(0.577588 0.00123692 0)
(0.578375 0.000562922 0)
(0.578865 -9.51126e-05 0)
(0.579066 -0.000739146 0)
(0.578978 -0.00137503 0)
(0.578605 -0.00200893 0)
(0.577946 -0.00264761 0)
(0.577002 -0.0032997 0)
(0.584803 0.0120802 0)
(0.592947 0.0113453 0)
(0.600658 0.0106235 0)
(0.607938 0.00991638 0)
(0.614794 0.00922496 0)
(0.621231 0.00855017 0)
(0.627259 0.00789276 0)
(0.632885 0.00725338 0)
(0.638117 0.00663248 0)
(0.642964 0.00603041 0)
(0.647435 0.00544736 0)
(0.651538 0.00488343 0)
(0.655283 0.00433862 0)
(0.65868 0.0038128 0)
(0.661737 0.00330579 0)
(0.664463 0.00281736 0)
(0.666869 0.00234709 0)
(0.668963 0.00189478 0)
(0.670754 0.00145772 0)
(0.672253 0.00103602 0)
(0.673466 0.000629164 0)
(0.6744 0.000235934 0)
(0.675063 -0.000144266 0)
(0.675464 -0.00051301 0)
(0.675607 -0.000874182 0)
(0.675495 -0.00123102 0)
(0.675131 -0.00158737 0)
(0.674515 -0.00194781 0)
(0.673647 -0.00231819 0)
(0.732586 0.00433913 0)
(0.738505 0.00402596 0)
(0.744068 0.00372042 0)
(0.74928 0.0034232 0)
(0.754146 0.00313477 0)
(0.758674 0.00285542 0)
(0.762874 0.00258538 0)
(0.766752 0.0023248 0)
(0.770318 0.00207381 0)
(0.77358 0.00183242 0)
(0.776547 0.00160061 0)
(0.779229 0.00137827 0)
(0.781634 0.0011653 0)
(0.783772 0.000961403 0)
(0.785653 0.000766462 0)
(0.787284 0.00057984 0)
(0.788675 0.000401949 0)
(0.789833 0.000231725 0)
(0.790767 7.29718e-05 0)
(0.791489 -7.85452e-05 0)
(0.792003 -0.000225951 0)
(0.792317 -0.000369154 0)
(0.792439 -0.000506295 0)
(0.792372 -0.000639245 0)
(0.79212 -0.000770178 0)
(0.791688 -0.000900367 0)
(0.791077 -0.00103155 0)
(0.790287 -0.0011661 0)
(0.789316 -0.00130711 0)
(0.911142 0.000516144 0)
(0.913227 0.000455446 0)
(0.915145 0.000397124 0)
(0.916901 0.000341329 0)
(0.918499 0.000288133 0)