/*--------------------------------*- C++ -*----------------------------------*\
  =========                 |
  \\      /  F ield         | OpenFOAM: The Open Source CFD Toolbox
   \\    /   O peration     | Website:  https://openfoam.org
    \\  /    A nd           | Version:  9
     \\/     M anipulation  |
\*---------------------------------------------------------------------------*/
FoamFile
{
    format      ascii;
    class       volScalarField;
    location    "1";
    object      p;
}
// * * * * * * * * * * * * * * * * * * * * * * * * * * * * * * * * * * * * * //

dimensions      [0 2 -2 0 0 0 0];

internalField   nonuniform List<scalar> 
1250
(
-0.00556468
-0.00563184
-0.00596123
-0.00602475
-0.00607178
-0.00611521
-0.00616206
-0.00621484
-0.00627595
-0.00634763
-0.00643171
-0.00652977
-0.00664332
-0.00677394
-0.00692347
-0.00709411
-0.00728866
-0.00751064
-0.00776449
-0.00805579
-0.00839147
-0.00877995
-0.00923136
-0.00975758
-0.0103722
-0.0110903
-0.0119282
-0.0129029
-0.0140304
-0.0153246
-0.0167979
-0.0184593
-0.0203116
-0.0223511
-0.0245677
-0.0269449
-0.00636513
-0.0064247
-0.00647004
-0.00651332
-0.00656127
-0.00661641
-0.00668116
-0.00675776
-0.00684802
-0.00695357
-0.00707595
-0.00721684
-0.00737818
-0.00756235
-0.00777234
-0.00801196
-0.00828599
-0.00860043
-0.00896271
-0.00938186
-0.00986863
-0.0104356
-0.0110972
-0.0118691
-0.0127683
-0.0138119
-0.0150164
-0.016396
-0.0179616
-0.0197209
-0.0216751
-0.0238186
-0.0261389
-0.0286166
-0.0312271
-0.0339402
-0.0367223
-0.0395388
-0.0423556
-0.0451409
-0.0478664
-0.0505087
-0.053048
-0.00677505
-0.0068303
-0.00687373
-0.00691668
-0.00696559
-0.007023
-0.00709133
-0.0071728
-0.00726924
-0.00738228
-0.00751353
-0.00766471
-0.00783788
-0.00803557
-0.00826099
-0.00851819
-0.0088123
-0.00914972
-0.00953834
-0.00998775
-0.0105093
-0.0111164
-0.0118238
-0.0126482
-0.0136067
-0.0147169
-0.0159952
-0.0174556
-0.0191086
-0.0209599
-0.0230091
-0.0252486
-0.0276638
-0.030233
-0.0329287
-0.0357196
-0.0385712
-0.0414479
-0.0443156
-0.0471432
-0.0499033
-0.0525738
-0.0551374
-0.0575799
-0.0598918
-0.0620677
-0.0641038
-0.0659986
-0.0677501
-0.00718961
-0.00724027
-0.00728158
-0.00732403
-0.00737374
-0.00743329
-0.0075051
-0.00759135
-0.0076939
-0.00781436
-0.00795439
-0.00811578
-0.00830068
-0.00851177
-0.00875245
-0.009027
-0.00934087
-0.00970082
-0.0101152
-0.0105941
-0.0111495
-0.0117952
-0.0125468
-0.0134213
-0.0144364
-0.0156098
-0.0169577
-0.0184939
-0.020228
-0.0221644
-0.0243007
-0.0266275
-0.0291282
-0.0317792
-0.0345511
-0.0374107
-0.0403226
-0.0432513
-0.0461629
-0.0490271
-0.0518176
-0.0545134
-0.0570987
-0.059562
-0.0618945
-0.0640914
-0.0661496
-0.0680682
-0.0698452
-0.00760737
-0.00765321
-0.00769223
-0.00773405
-0.00778444
-0.007846
-0.00792116
-0.00801208
-0.0081206
-0.00824835
-0.00839702
-0.00856845
-0.0087649
-0.00898916
-0.00924481
-0.00953636
-0.00986953
-0.0102514
-0.0106908
-0.0111982
-0.0117861
-0.0124688
-0.0132625
-0.0141845
-0.0152529
-0.0164853
-0.0178981
-0.0195042
-0.0213125
-0.023326
-0.0255409
-0.0279458
-0.0305224
-0.0332452
-0.0360835
-0.0390027
-0.0419669
-0.0449405
-0.0478901
-0.0507863
-0.0536041
-0.0563238
-0.0589307
-0.0614146
-0.0637686
-0.0659883
-0.0680711
-0.0700161
-0.0718214
-0.00802682
-0.00806764
-0.00810421
-0.00814526
-0.00819617
-0.00825959
-0.00833792
-0.00843332
-0.00854761
-0.00868243
-0.00883949
-0.00902069
-0.00922836
-0.00946541
-0.00973558
-0.0100436
-0.0103954
-0.0107984
-0.0112617
-0.0117962
-0.0124149
-0.0131326
-0.0139657
-0.014932
-0.0160498
-0.0173367
-0.0188086
-0.0204782
-0.0223534
-0.0244358
-0.0267203
-0.029194
-0.0318367
-0.0346216
-0.0375169
-0.0404871
-0.043496
-0.0465081
-0.0494906
-0.0524149
-0.0552575
-0.0579999
-0.0606285
-0.0631342
-0.0655111
-0.0677554
-0.069865
-0.0718386
-0.0736745
-0.00844644
-0.00848205
-0.00851603
-0.00855614
-0.00860739
-0.00867246
-0.00875375
-0.00885337
-0.00897314
-0.00911471
-0.0092798
-0.00947035
-0.00968877
-0.00993807
-0.0102221
-0.0105458
-0.0109153
-0.0113382
-0.0118241
-0.0123841
-0.0130316
-0.0137816
-0.0146511
-0.015658
-0.0168206
-0.0181566
-0.0196816
-0.0214077
-0.0233417
-0.0254845
-0.0278295
-0.0303624
-0.0330618
-0.0358997
-0.0388432
-0.0418565
-0.0449031
-0.0479479
-0.0509588
-0.0539082
-0.0567736
-0.0595377
-0.062188
-0.0647163
-0.0671174
-0.0693879
-0.071526
-0.0735301
-0.0753983
-0.00886472
-0.00889497
-0.00892622
-0.00896521
-0.0090166
-0.00908308
-0.00916703
-0.00927055
-0.00939544
-0.00954334
-0.00971598
-0.00991536
-0.0101439
-0.0104047
-0.0107018
-0.0110402
-0.0114262
-0.0118678
-0.0123745
-0.012958
-0.0136317
-0.0144112
-0.0153135
-0.0163566
-0.0175591
-0.0189384
-0.0205098
-0.0222848
-0.0242696
-0.0264639
-0.0288601
-0.0314429
-0.0341897
-0.0370716
-0.0400551
-0.0431041
-0.0461823
-0.0492547
-0.0522902
-0.055262
-0.0581485
-0.0609336
-0.0636057
-0.0661572
-0.0685833
-0.0708811
-0.0730486
-0.0750842
-0.0769854
-0.00928013
-0.00930493
-0.0093333
-0.00937101
-0.00942231
-0.00948991
-0.00957619
-0.00968322
-0.00981277
-0.00996649
-0.0101461
-0.0103536
-0.0105916
-0.0108631
-0.0111722
-0.0115241
-0.0119253
-0.0123838
-0.0129094
-0.013514
-0.0142113
-0.0150168
-0.0159479
-0.0170227
-0.0182596
-0.019676
-0.0212867
-0.0231028
-0.0251298
-0.0273666
-0.0298048
-0.0324282
-0.0352132
-0.0381306
-0.0411463
-0.0442242
-0.0473282
-0.0504238
-0.0534805
-0.0564723
-0.0593786
-0.062184
-0.0648777
-0.0674525
-0.0699041
-0.0722296
-0.0744269
-0.076494
-0.0784282
-0.00969119
-0.00971048
-0.00973586
-0.00977211
-0.00982308
-0.00989149
-0.00997971
-0.0100898
-0.0102235
-0.0103824
-0.0105683
-0.0107832
-0.0110296
-0.0113108
-0.0116307
-0.0119948
-0.0124095
-0.0128831
-0.0134255
-0.0140487
-0.0147663
-0.0155944
-0.01655
-0.0176514
-0.0189169
-0.0203638
-0.0220065
-0.0238556
-0.0259162
-0.0281865
-0.0306574
-0.0333121
-0.0361266
-0.0390711
-0.0421116
-0.045212
-0.0483364
-0.051451
-0.0545257
-0.0575354
-0.0604601
-0.063285
-0.0659999
-0.068598
-0.0710749
-0.0734279
-0.0756545
-0.0777525
-0.0797187
-0.0100965
-0.0101102
-0.0101325
-0.0101671
-0.0102175
-0.0102864
-0.0103761
-0.0104887
-0.0106259
-0.0107893
-0.0109807
-0.0112021
-0.011456
-0.0117456
-0.0120751
-0.0124498
-0.0128763
-0.013363
-0.0139197
-0.0145585
-0.0152933
-0.0161398
-0.0171154
-0.0182382
-0.0195264
-0.0209968
-0.022664
-0.0245379
-0.0266233
-0.028918
-0.0314125
-0.0340894
-0.0369247
-0.0398884
-0.0429466
-0.0460633
-0.0492031
-0.0523326
-0.0554223
-0.0584477
-0.0613893
-0.0642327
-0.0669681
-0.0695889
-0.0720905
-0.0744701
-0.0767249
-0.0788523
-0.0808487
-0.0104946
-0.0105028
-0.010522
-0.0105548
-0.0106043
-0.0106733
-0.010764
-0.0108786
-0.0110186
-0.0111857
-0.0113817
-0.0116085
-0.0118687
-0.0121655
-0.0125031
-0.0128867
-0.0133231
-0.0138205
-0.0143889
-0.0150403
-0.0157886
-0.0166496
-0.0176404
-0.0187791
-0.0200837
-0.0215709
-0.0232548
-0.0251453
-0.0272468
-0.0295568
-0.0320657
-0.034756
-0.0376037
-0.0405788
-0.0436476
-0.0467747
-0.0499249
-0.0530654
-0.0561672
-0.059206
-0.0621627
-0.0650232
-0.0677779
-0.0704201
-0.0108843
-0.0108871
-0.0109031
-0.0109339
-0.0109822
-0.0110509
-0.0111421
-0.011258
-0.0114001
-0.0115701
-0.0117696
-0.0120007
-0.012266
-0.0125685
-0.0129125
-0.0133032
-0.0137474
-0.0142531
-0.0148305
-0.0154913
-0.0162495
-0.0171206
-0.0181218
-0.0192708
-0.0205854
-0.0220823
-0.0237753
-0.0256741
-0.0277829
-0.0300994
-0.0326137
-0.0353086
-0.0381603
-0.0411392
-0.0442119
-0.0473435
-0.0504993
-0.0536469
-0.0567575
-0.0598072
-0.0627772
-0.0656531
-0.0684254
-0.0710873
-0.0112644
-0.0112619
-0.0112746
-0.0113033
-0.0113501
-0.011418
-0.0115093
-0.0116258
-0.0117691
-0.011941
-0.012143
-0.0123772
-0.0126461
-0.0129528
-0.0133015
-0.0136974
-0.014147
-0.0146586
-0.015242
-0.015909
-0.0166732
-0.0175501
-0.0185566
-0.0197102
-0.0210287
-0.0225282
-0.0242226
-0.0261215
-0.0282291
-0.0305431
-0.033054
-0.0357449
-0.0385925
-0.0415676
-0.0446375
-0.0477678
-0.0509242
-0.0540747
-0.0571909
-0.0602489
-0.0632299
-0.0661194
-0.0689075
-0.0715875
-0.0116337
-0.0116261
-0.0116355
-0.0116619
-0.0117071
-0.0117738
-0.0118644
-0.0119808
-0.0121245
-0.0122973
-0.0125006
-0.0127366
-0.0130076
-0.0133169
-0.0136684
-0.0140673
-0.0145202
-0.0150349
-0.0156213
-0.016291
-0.0170574
-0.0179357
-0.0189425
-0.0200952
-0.0214111
-0.0229064
-0.0245946
-0.0264855
-0.0285834
-0.0308863
-0.0333852
-0.0360636
-0.0388989
-0.0418628
-0.0449231
-0.0480461
-0.0511981
-0.0543473
-0.0574655
-0.0605289
-0.0635184
-0.0664193
-0.0692212
-0.0719171
-0.0119914
-0.0119788
-0.011985
-0.012009
-0.0120521
-0.0121173
-0.0122067
-0.0123221
-0.0124653
-0.0126378
-0.0128412
-0.0130775
-0.0133492
-0.0136592
-0.0140116
-0.0144115
-0.0148651
-0.0153803
-0.0159667
-0.0166356
-0.0174002
-0.0182755
-0.0192777
-0.0204239
-0.0217311
-0.0232153
-0.0248901
-0.0267651
-0.0288451
-0.0311284
-0.0336067
-0.0362643
-0.0390794
-0.0420245
-0.0450685
-0.0481781
-0.0513203
-0.0544637
-0.0575802
-0.0606456
-0.0636407
-0.0665504
-0.0693637
-0.0720729
-0.0123365
-0.0123192
-0.0123223
-0.0123437
-0.0123846
-0.0124477
-0.0125352
-0.0126489
-0.0127906
-0.0129617
-0.0131639
-0.0133991
-0.0136696
-0.0139786
-0.0143299
-0.0147284
-0.0151803
-0.0156933
-0.0162766
-0.0169411
-0.0177001
-0.0185681
-0.0195609
-0.0206951
-0.0219877
-0.0234542
-0.0251084
-0.02696
-0.029014
-0.0312693
-0.0337191
-0.0363475
-0.0391344
-0.0420533
-0.045074
-0.0481641
-0.051291
-0.0544238
-0.0575342
-0.0605982
-0.0635957
-0.0665113
-0.0693331
-0.0720529
-0.0126683
-0.0126467
-0.0126467
-0.0126655
-0.0127038
-0.0127644
-0.0128494
-0.0129606
-0.0130997
-0.0132682
-0.0134678
-0.0137003
-0.0139681
-0.0142741
-0.0146222
-0.0150171
-0.0154648
-0.0159728
-0.0165501
-0.0172063
-0.0179561
-0.0188126
-0.0197912
-0.0209083
-0.0221804
-0.023623
-0.0252498
-0.0270706
-0.0290911
-0.0313108
-0.0337232
-0.0363146
-0.0390655
-0.0419507
-0.0449411
-0.0480052
-0.0511111
-0.0542281
-0.057328
-0.0603865
-0.0633829
-0.0663011
-0.0691285
-0.0718559
-0.0129863
-0.0129607
-0.0129577
-0.0129738
-0.0130093
-0.0130669
-0.0131488
-0.0132567
-0.0133922
-0.0135568
-0.0137524
-0.0139806
-0.0142438
-0.0145449
-0.0148877
-0.0152768
-0.0157174
-0.0162179
-0.016787
-0.0174295
-0.0181673
-0.0190084
-0.0199683
-0.0210632
-0.0223094
-0.0237223
-0.0253151
-0.0270983
-0.0290778
-0.0312542
-0.0336217
-0.0361682
-0.0388753
-0.0417193
-0.0446723
-0.0477037
-0.0507825
-0.0538782
-0.0569627
-0.0600113
-0.0630027
-0.06592
-0.0687498
-0.0714817
-0.01329
-0.0132609
-0.013255
-0.0132683
-0.0133008
-0.013355
-0.0134331
-0.0135367
-0.0136675
-0.0138271
-0.0140171
-0.0142394
-0.0144962
-0.0147905
-0.0151256
-0.0155062
-0.0159377
-0.0164273
-0.0169831
-0.0176142
-0.0183342
-0.0191555
-0.0200924
-0.0211605
-0.0223756
-0.023753
-0.0253058
-0.0270449
-0.0289766
-0.0311024
-0.0334177
-0.0359117
-0.0385674
-0.0413627
-0.044271
-0.0472629
-0.0503082
-0.0533768
-0.0564406
-0.0594744
-0.0624566
-0.0653692
-0.0681978
-0.0709311
-0.0135792
-0.0135469
-0.0135384
-0.0135489
-0.0135782
-0.0136286
-0.0137022
-0.0138007
-0.0139257
-0.0140789
-0.0142619
-0.0144765
-0.0147251
-0.0150103
-0.0153357
-0.0157055
-0.0161252
-0.0166013
-0.0171418
-0.0177562
-0.0184561
-0.019254
-0.0201639
-0.0212008
-0.0223802
-0.0237168
-0.0252242
-0.0269131
-0.0287907
-0.0308592
-0.0331151
-0.0355493
-0.0381462
-0.0408854
-0.0437418
-0.0466872
-0.0496923
-0.0527275
-0.0557649
-0.0587789
-0.0617472
-0.0646509
-0.0674746
-0.0702059
-0.0138537
-0.0138186
-0.0138077
-0.0138155
-0.0138413
-0.0138875
-0.013956
-0.0140485
-0.0141666
-0.0143121
-0.0144865
-0.0146918
-0.0149302
-0.0152044
-0.0155178
-0.0158745
-0.0162798
-0.0167399
-0.0172625
-0.0178567
-0.0185333
-0.0193045
-0.0201837
-0.0211854
-0.0223247
-0.0236161
-0.0250729
-0.0267063
-0.0285239
-0.0305288
-0.0327188
-0.0350862
-0.0376173
-0.0402932
-0.0430903
-0.0459822
-0.0489401
-0.0519355
-0.0549403
-0.0579289
-0.0608783
-0.0637686
-0.0665834
-0.0693092
-0.0141134
-0.0140762
-0.0140631
-0.0140681
-0.0140903
-0.0141319
-0.0141946
-0.0142803
-0.0143904
-0.0145268
-0.014691
-0.0148852
-0.0151115
-0.0153727
-0.0156719
-0.0160132
-0.0164016
-0.0168431
-0.017345
-0.0179161
-0.0185664
-0.0193078
-0.020153
-0.021116
-0.0222113
-0.0234533
-0.0248552
-0.0264283
-0.0281806
-0.0301163
-0.0322345
-0.0345287
-0.0369872
-0.0395927
-0.0423235
-0.0451545
-0.0480584
-0.0510071
-0.0539729
-0.0569301
-0.0598551
-0.0627272
-0.0655288
-0.0682452
-0.0143586
-0.0143198
-0.0143047
-0.0143071
-0.0143255
-0.0143621
-0.0144185
-0.0144964
-0.0145974
-0.0147232
-0.0148758
-0.0150571
-0.0152694
-0.0155153
-0.0157981
-0.0161217
-0.0164909
-0.0169113
-0.0173899
-0.0179351
-0.0185565
-0.0192651
-0.0200733
-0.0209945
-0.0220426
-0.0232316
-0.0245748
-0.0260833
-0.0277659
-0.0296275
-0.0316683
-0.0338836
-0.0362631
-0.0387916
-0.0414492
-0.0442123
-0.047055
-0.04995
-0.0528702
-0.0557897
-0.0586844
-0.061533
-0.0643167
-0.0670197
-0.0145895
-0.0145496
-0.0145329
-0.0145327
-0.0145473
-0.0145785
-0.0146279
-0.0146971
-0.0147878
-0.0149018
-0.0150411
-0.0152077
-0.015404
-0.0156327
-0.0158969
-0.0162005
-0.0165481
-0.016945
-0.017398
-0.0179148
-0.0185046
-0.019178
-0.0199465
-0.0208232
-0.0218213
-0.0229544
-0.0242355
-0.0256761
-0.0272853
-0.0290685
-0.0310273
-0.0331584
-0.0354534
-0.0378987
-0.0404765
-0.0431648
-0.0459392
-0.0487735
-0.0516411
-0.0545162
-0.0573745
-0.0601939
-0.0629548
-0.06564
-0.0148065
-0.0147662
-0.0147482
-0.0147455
-0.0147561
-0.0147816
-0.0148234
-0.0148831
-0.0149624
-0.0150631
-0.0151874
-0.0153376
-0.0155159
-0.0157253
-0.0159687
-0.0162501
-0.0165737
-0.0169449
-0.0173699
-0.0178561
-0.0184121
-0.019048
-0.0197747
-0.0206045
-0.0215503
-0.0226252
-0.0238419
-0.0252118
-0.0267445
-0.028446
-0.030319
-0.0323616
-0.0345669
-0.0369236
-0.0394155
-0.0420225
-0.0447218
-0.0474883
-0.0502962
-0.0531201
-0.0559356
-0.0587198
-0.0614524
-0.0641151
-0.0150101
-0.0149701
-0.0149512
-0.0149461
-0.0149527
-0.0149721
-0.0150057
-0.0150549
-0.0151216
-0.0152076
-0.0153154
-0.0154472
-0.0156056
-0.0157935
-0.0160141
-0.0162711
-0.0165687
-0.0169119
-0.0173068
-0.0177603
-0.0182805
-0.018877
-0.01956
-0.0203413
-0.021233
-0.0222478
-0.0233981
-0.0246955
-0.0261495
-0.0277668
-0.029551
-0.0315015
-0.0336132
-0.0358764
-0.038277
-0.0407968
-0.0434144
-0.0461064
-0.0488478
-0.0516136
-0.0543794
-0.0571222
-0.0598207
-0.0624558
-0.0152011
-0.0151621
-0.0151426
-0.0151354
-0.0151379
-0.0151509
-0.0151756
-0.0152135
-0.0152663
-0.0153362
-0.0154257
-0.0155373
-0.0156739
-0.0158383
-0.0160339
-0.0162643
-0.0165337
-0.016847
-0.0172097
-0.0176287
-0.0181115
-0.0186669
-0.0193048
-0.0200362
-0.0208727
-0.0218265
)
;

boundaryField
{
    movingWall
    {
        type            zeroGradient;
    }
    fixedWalls
    {
        type            zeroGradient;
    }
    frontAndBack
    {
        type            empty;
    }
    procBoundary3to0
    {
        type            processor;
        value           nonuniform List<scalar> 
29
(
-0.00517697
-0.00524749
-0.00568041
-0.00568041
-0.0057239
-0.00576963
-0.00582004
-0.00587755
-0.0059444
-0.0060224
-0.0061131
-0.00621798
-0.00633853
-0.00647646
-0.00663382
-0.00681319
-0.00701781
-0.00725177
-0.00752023
-0.00782959
-0.00818767
-0.0086039
-0.00908938
-0.00965688
-0.0103208
-0.0110966
-0.0120007
-0.0130486
-0.0142543
)
;
    }
    procBoundary3to1
    {
        type            processor;
        value           nonuniform List<scalar> 
23
(
-0.0156316
-0.0171903
-0.0189342
-0.020862
-0.0229661
-0.0252327
-0.0294602
-0.0294602
-0.0320847
-0.034787
-0.0375335
-0.0402906
-0.0430262
-0.0457112
-0.0483205
-0.0508326
-0.0554688
-0.0554688
-0.0577614
-0.0599183
-0.0619349
-0.0638092
-0.0655387
)
;
    }
    procBoundary3to2
    {
        type            processor;
        value           nonuniform List<scalar> 
45
(
-0.0229095
-0.0241336
-0.0255077
-0.027039
-0.0287322
-0.030588
-0.0326028
-0.0347686
-0.0370731
-0.0395002
-0.0420303
-0.0446411
-0.0473091
-0.0500099
-0.0527193
-0.055414
-0.0580724
-0.0606745
-0.0153803
-0.015343
-0.0153235
-0.0153143
-0.0153126
-0.015319
-0.0153342
-0.0153598
-0.0153976
-0.0154499
-0.0155195
-0.0156091
-0.0157218
-0.0158607
-0.0160292
-0.0162311
-0.0164704
-0.0167518
-0.0170808
-0.0174636
-0.0179075
-0.0184207
-0.0190125
-0.0196933
-0.0204742
-0.0229095
-0.0213668
)
;
    }
    procBoundary3to5
    {
        type            processor;
        value           nonuniform List<scalar> 
21
(
-0.0729453
-0.07535
-0.0776314
-0.0797861
-0.0818104
-0.0729453
-0.0736342
-0.0741541
-0.0745012
-0.0746718
-0.0746637
-0.0744757
-0.0741075
-0.0735598
-0.0728345
-0.0719346
-0.0708641
-0.0696286
-0.0682351
-0.0666924
-0.0650109
)
;
    }
    procBoundary3to6
    {
        type            processor;
        value           nonuniform List<scalar> 9(-0.0693556 -0.0714777 -0.0734839 -0.0753692 -0.0771265 -0.0787478 -0.0802245 -0.0815477 -0.0827083);
    }
}


// ************************************************************************* //
