/*--------------------------------*- C++ -*----------------------------------*\
  =========                 |
  \\      /  F ield         | OpenFOAM: The Open Source CFD Toolbox
   \\    /   O peration     | Website:  https://openfoam.org
    \\  /    A nd           | Version:  9
     \\/     M anipulation  |
\*---------------------------------------------------------------------------*/
FoamFile
{
    format      ascii;
    class       surfaceScalarField;
    location    "1";
    object      phi;
}
// * * * * * * * * * * * * * * * * * * * * * * * * * * * * * * * * * * * * * //

dimensions      [0 3 -1 0 0 0 0];

internalField   nonuniform List<scalar> 
2422
(
-3.04332e-09
1.16311e-07
3.10972e-07
-2.84127e-09
1.19152e-07
-1.06679e-08
3.18799e-07
-2.28595e-08
4.84087e-07
-3.88449e-08
6.19353e-07
-5.81003e-08
7.28895e-07
-8.01569e-08
8.16872e-07
-1.04609e-07
8.87192e-07
-1.31123e-07
9.43439e-07
-1.59443e-07
9.88835e-07
-1.8939e-07
1.02623e-06
-2.20865e-07
1.05814e-06
-2.53845e-07
1.08676e-06
-2.88378e-07
1.11404e-06
-3.24583e-07
1.14172e-06
-3.62636e-07
1.17138e-06
-4.02767e-07
1.20447e-06
-4.45241e-07
1.24232e-06
-4.90346e-07
1.28612e-06
-5.38371e-07
1.33684e-06
-5.89577e-07
1.39523e-06
-6.4417e-07
1.46169e-06
-7.02271e-07
1.53618e-06
-7.63887e-07
1.61822e-06
-8.28884e-07
1.70678e-06
-8.96968e-07
1.80029e-06
-9.67682e-07
1.8967e-06
-1.04041e-06
1.99353e-06
-1.11434e-06
2.08799e-06
-1.18854e-06
2.1771e-06
-1.26203e-06
2.25766e-06
-1.3338e-06
2.32684e-06
-1.40283e-06
2.38208e-06
-1.46819e-06
2.42129e-06
2.44291e-06
-2.62304e-09
1.21775e-07
-9.92779e-09
3.26103e-07
-2.13977e-08
4.95557e-07
-3.65425e-08
6.34498e-07
-5.48968e-08
7.47249e-07
-7.60312e-08
8.38006e-07
-9.95652e-08
9.10726e-07
-1.25178e-07
9.69052e-07
-1.52619e-07
1.01628e-06
-1.81707e-07
1.05532e-06
-2.12337e-07
1.08877e-06
-2.44475e-07
1.1189e-06
-2.78159e-07
1.14772e-06
-3.13488e-07
1.17705e-06
-3.50622e-07
1.20851e-06
-3.89764e-07
1.24361e-06
-4.31154e-07
1.28371e-06
-4.75047e-07
1.33001e-06
-5.21694e-07
1.38349e-06
-5.71313e-07
1.44485e-06
-6.24067e-07
1.51444e-06
-6.80032e-07
1.59215e-06
-7.3917e-07
1.67736e-06
-8.01309e-07
1.76892e-06
-8.66126e-07
1.86511e-06
-9.33143e-07
1.96372e-06
-1.00173e-06
2.06212e-06
-1.07109e-06
2.15736e-06
-1.14032e-06
2.24633e-06
-1.2085e-06
2.32584e-06
-1.27468e-06
2.39302e-06
-1.33795e-06
2.44535e-06
-1.39747e-06
2.48081e-06
-1.45255e-06
2.49798e-06
-1.50269e-06
2.49616e-06
-1.54759e-06
2.47528e-06
-1.5872e-06
2.43603e-06
-1.62168e-06
2.37968e-06
-1.6514e-06
2.30798e-06
-1.67689e-06
2.22299e-06
-1.6988e-06
2.12696e-06
-1.71785e-06
2.02211e-06
1.91051e-06
-2.39214e-09
1.24167e-07
-9.13711e-09
3.32848e-07
-1.98297e-08
5.0625e-07
-3.40638e-08
6.48732e-07
-5.14361e-08
7.64622e-07
-7.15598e-08
8.5813e-07
-9.40809e-08
9.33247e-07
-1.18693e-07
9.93665e-07
-1.45149e-07
1.04273e-06
-1.73267e-07
1.08344e-06
-2.02933e-07
1.11844e-06
-2.34102e-07
1.15007e-06
-2.66795e-07
1.18042e-06
-3.01095e-07
1.21135e-06
-3.37135e-07
1.24455e-06
-3.75096e-07
1.28157e-06
-4.15184e-07
1.3238e-06
-4.57619e-07
1.37244e-06
-5.02612e-07
1.42848e-06
-5.50341e-07
1.49258e-06
-6.00925e-07
1.56502e-06
-6.54398e-07
1.64562e-06
-7.10685e-07
1.73365e-06
-7.69583e-07
1.82782e-06
-8.30748e-07
1.92628e-06
-8.93693e-07
2.02666e-06
-9.57787e-07
2.12621e-06
-1.02227e-06
2.22185e-06
-1.0863e-06
2.31035e-06
-1.149e-06
2.38855e-06
-1.20953e-06
2.45354e-06
-1.26705e-06
2.50287e-06
-1.32085e-06
2.53461e-06
-1.37037e-06
2.5475e-06
-1.4152e-06
2.54099e-06
-1.45519e-06
2.51527e-06
-1.49037e-06
2.47122e-06
-1.521e-06
2.41031e-06
-1.5475e-06
2.33448e-06
-1.57043e-06
2.24593e-06
-1.59047e-06
2.147e-06
-1.60831e-06
2.03994e-06
-1.62464e-06
1.92685e-06
-1.64008e-06
1.80946e-06
-1.65519e-06
1.68925e-06
-1.67036e-06
1.56721e-06
-1.68586e-06
1.44399e-06
-1.70183e-06
1.31994e-06
1.19509e-06
-2.14914e-09
1.26316e-07
-8.3015e-09
3.39001e-07
-1.81648e-08
5.16113e-07
-3.14219e-08
6.61989e-07
-4.77346e-08
7.80934e-07
-6.67613e-08
8.77157e-07
-8.81765e-08
9.54662e-07
-1.11689e-07
1.01718e-06
-1.37057e-07
1.0681e-06
-1.64093e-07
1.11048e-06
-1.92677e-07
1.14702e-06
-2.2275e-07
1.18014e-06
-2.54314e-07
1.21198e-06
-2.8743e-07
1.24446e-06
-3.22207e-07
1.27933e-06
-3.58796e-07
1.31816e-06
-3.97368e-07
1.36237e-06
-4.38107e-07
1.41318e-06
-4.81184e-07
1.47156e-06
-5.26734e-07
1.53813e-06
-5.74835e-07
1.61312e-06
-6.25484e-07
1.69627e-06
-6.78575e-07
1.78674e-06
-7.33882e-07
1.88312e-06
-7.91051e-07
1.98344e-06
-8.49598e-07
2.08521e-06
-9.08913e-07
2.18553e-06
-9.68283e-07
2.28121e-06
-1.02693e-06
2.369e-06
-1.08406e-06
2.44568e-06
-1.13891e-06
2.50839e-06
-1.19077e-06
2.55473e-06
-1.23903e-06
2.58287e-06
-1.28324e-06
2.59171e-06
-1.32313e-06
2.58088e-06
-1.35862e-06
2.55076e-06
-1.38984e-06
2.50244e-06
-1.4171e-06
2.43757e-06
-1.44086e-06
2.35824e-06
-1.46171e-06
2.26678e-06
-1.4803e-06
2.16558e-06
-1.49729e-06
2.05693e-06
-1.51331e-06
1.94286e-06
-1.52893e-06
1.82508e-06
-1.54457e-06
1.7049e-06
-1.56057e-06
1.58321e-06
-1.57713e-06
1.46054e-06
-1.5943e-06
1.33711e-06
1.21284e-06
-1.89488e-09
1.28211e-07
-7.42442e-09
3.4453e-07
-1.64116e-08
5.251e-07
-2.86304e-08
6.74208e-07
-4.38109e-08
7.96115e-07
-6.1659e-08
8.95005e-07
-8.18793e-08
9.74883e-07
-1.04197e-07
1.03949e-06
-1.28374e-07
1.09228e-06
-1.54223e-07
1.13632e-06
-1.81609e-07
1.17441e-06
-2.10461e-07
1.20899e-06
-2.40761e-07
1.24228e-06
-2.72545e-07
1.27625e-06
-3.05896e-07
1.31268e-06
-3.4093e-07
1.35319e-06
-3.77784e-07
1.39923e-06
-4.16604e-07
1.452e-06
-4.57517e-07
1.51247e-06
-5.00621e-07
1.58123e-06
-5.45953e-07
1.65846e-06
-5.93478e-07
1.7438e-06
-6.43065e-07
1.83633e-06
-6.94474e-07
1.93453e-06
-7.47351e-07
2.03632e-06
-8.01228e-07
2.13909e-06
-8.55533e-07
2.23983e-06
-9.09607e-07
2.33529e-06
-9.62753e-07
2.42214e-06
-1.01427e-06
2.4972e-06
-1.06348e-06
2.55761e-06
-1.1098e-06
2.60104e-06
-1.15272e-06
2.62579e-06
-1.1919e-06
2.63089e-06
-1.22717e-06
2.61615e-06
-1.25855e-06
2.58214e-06
-1.28622e-06
2.53011e-06
-1.31054e-06
2.46189e-06
-1.33199e-06
2.37969e-06
-1.35114e-06
2.28593e-06
-1.3686e-06
2.18305e-06
-1.38499e-06
2.07332e-06
-1.40086e-06
1.95873e-06
-1.41669e-06
1.84092e-06
-1.43286e-06
1.72107e-06
-1.4496e-06
1.59995e-06
-1.46704e-06
1.47798e-06
-1.48518e-06
1.35525e-06
1.23158e-06
-1.63107e-09
1.29842e-07
-6.51127e-09
3.49411e-07
-1.45805e-08
5.33169e-07
-2.57057e-08
6.85333e-07
-3.96871e-08
8.10096e-07
-5.62801e-08
9.11598e-07
-7.52214e-08
9.93824e-07
-9.62531e-08
1.06053e-06
-1.19143e-07
1.11517e-06
-1.437e-07
1.16088e-06
-1.69779e-07
1.20049e-06
-1.97291e-07
1.23651e-06
-2.26197e-07
1.27119e-06
-2.56509e-07
1.30656e-06
-2.88276e-07
1.34445e-06
-3.21584e-07
1.3865e-06
-3.56531e-07
1.43418e-06
-3.93222e-07
1.48869e-06
-4.31747e-07
1.551e-06
-4.7216e-07
1.62165e-06
-5.14467e-07
1.70076e-06
-5.58602e-07
1.78793e-06
-6.04415e-07
1.88214e-06
-6.51662e-07
1.98178e-06
-7e-07
2.08466e-06
-7.48988e-07
2.18808e-06
-7.98101e-07
2.28894e-06
-8.46754e-07
2.38394e-06
-8.9433e-07
2.46972e-06
-9.40225e-07
2.54309e-06
-9.83873e-07
2.60125e-06
-1.02478e-06
2.64195e-06
-1.06257e-06
2.66358e-06
-1.09699e-06
2.66532e-06
-1.12797e-06
2.64713e-06
-1.15558e-06
2.60975e-06
-1.18006e-06
2.55459e-06
-1.2018e-06
2.48362e-06
-1.22125e-06
2.39914e-06
-1.23897e-06
2.30365e-06
-1.25551e-06
2.19959e-06
-1.27143e-06
2.08923e-06
-1.28721e-06
1.97451e-06
-1.30324e-06
1.85695e-06
-1.31982e-06
1.73764e-06
-1.33712e-06
1.61725e-06
-1.35519e-06
1.49605e-06
-1.374e-06
1.37406e-06
1.25099e-06
-1.35981e-09
1.31202e-07
-5.56869e-09
3.53619e-07
-1.2684e-08
5.40285e-07
-2.26667e-08
6.95316e-07
-3.53886e-08
8.22818e-07
-5.06564e-08
9.26866e-07
-6.82402e-08
1.01141e-06
-8.79006e-08
1.08019e-06
-1.09412e-07
1.13668e-06
-1.32578e-07
1.18405e-06
-1.57245e-07
1.22515e-06
-1.83304e-07
1.26256e-06
-2.10695e-07
1.29858e-06
-2.394e-07
1.33526e-06
-2.6944e-07
1.37449e-06
-3.00861e-07
1.41792e-06
-3.33727e-07
1.46704e-06
-3.68101e-07
1.52307e-06
-4.04033e-07
1.58693e-06
-4.4154e-07
1.65915e-06
-4.80594e-07
1.73982e-06
-5.21108e-07
1.82844e-06
-5.62918e-07
1.92395e-06
-6.05784e-07
2.02465e-06
-6.4938e-07
2.12826e-06
-6.93307e-07
2.232e-06
-7.37096e-07
2.33273e-06
-7.8024e-07
2.42709e-06
-8.22215e-07
2.51169e-06
-8.62516e-07
2.58339e-06
-9.00684e-07
2.63942e-06
-9.36334e-07
2.6776e-06
-9.69188e-07
2.69643e-06
-9.99099e-07
2.69523e-06
-1.02606e-06
2.67409e-06
-1.0502e-06
2.63389e-06
-1.07179e-06
2.57618e-06
-1.0912e-06
2.50303e-06
-1.10889e-06
2.41684e-06
-1.12536e-06
2.32012e-06
-1.14111e-06
2.21534e-06
-1.1566e-06
2.10473e-06
-1.17225e-06
1.99016e-06
-1.18836e-06
1.87307e-06
-1.20517e-06
1.75445e-06
-1.22277e-06
1.63485e-06
-1.24119e-06
1.51447e-06
-1.26032e-06
1.39319e-06
1.27068e-06
-1.08333e-09
1.32285e-07
-4.60393e-09
3.5714e-07
-1.07359e-08
5.46417e-07
-1.95343e-08
7.04114e-07
-3.09435e-08
8.34227e-07
-4.48231e-08
9.40745e-07
-6.09778e-08
1.02756e-06
-7.9188e-08
1.0984e-06
-9.92347e-08
1.15672e-06
-1.20919e-07
1.20573e-06
-1.44075e-07
1.24831e-06
-1.68576e-07
1.28707e-06
-1.94337e-07
1.32434e-06
-2.21314e-07
1.36224e-06
-2.49492e-07
1.40266e-06
-2.78883e-07
1.44731e-06
-3.09511e-07
1.49767e-06
-3.414e-07
1.55496e-06
-3.74559e-07
1.62009e-06
-4.08971e-07
1.69357e-06
-4.4458e-07
1.77543e-06
-4.81277e-07
1.86514e-06
-5.18895e-07
1.96157e-06
-5.57201e-07
2.06295e-06
-5.95898e-07
2.16695e-06
-6.34633e-07
2.27074e-06
-6.73005e-07
2.37111e-06
-7.10589e-07
2.46467e-06
-7.46958e-07
2.54806e-06
-7.81711e-07
2.61814e-06
-8.14495e-07
2.67221e-06
-8.45031e-07
2.70813e-06
-8.73139e-07
2.72454e-06
-8.98752e-07
2.72084e-06
-9.21924e-07
2.69726e-06
-9.42828e-07
2.65479e-06
-9.61744e-07
2.5951e-06
-9.79033e-07
2.52032e-06
-9.95114e-07
2.43292e-06
-1.01043e-06
2.33543e-06
-1.0254e-06
2.23032e-06
-1.04044e-06
2.11976e-06
-1.05585e-06
2.00557e-06
-1.07188e-06
1.8891e-06
-1.08868e-06
1.77125e-06
-1.10631e-06
1.65248e-06
-1.12473e-06
1.53289e-06
-1.14383e-06
1.41229e-06
1.2903e-06
-8.03978e-10
1.33089e-07
-3.62467e-09
3.59961e-07
-8.75095e-09
5.51543e-07
-1.63312e-08
7.11694e-07
-2.63829e-08
8.44279e-07
-3.88191e-08
9.53181e-07
-5.34808e-08
1.04222e-06
-7.01693e-08
1.11509e-06
-8.86734e-08
1.17523e-06
-1.08791e-07
1.22585e-06
-1.30346e-07
1.26986e-06
-1.53192e-07
1.30991e-06
-1.7722e-07
1.34837e-06
-2.02356e-07
1.38737e-06
-2.28553e-07
1.42886e-06
-2.55786e-07
1.47455e-06
-2.84038e-07
1.52592e-06
-3.13295e-07
1.58421e-06
-3.43528e-07
1.65032e-06
-3.74687e-07
1.72473e-06
-4.0669e-07
1.80743e-06
-4.39413e-07
1.89786e-06
-4.72686e-07
1.99484e-06
-5.06294e-07
2.09656e-06
-5.39974e-07
2.20063e-06
-5.73426e-07
2.30419e-06
-6.06321e-07
2.404e-06
-6.38322e-07
2.49667e-06
-6.69101e-07
2.57884e-06
-6.98362e-07
2.6474e-06
-7.25857e-07
2.6997e-06
-7.5141e-07
2.73369e-06
-7.74929e-07
2.74806e-06
-7.9642e-07
2.74233e-06
-8.15988e-07
2.71683e-06
-8.33831e-07
2.67264e-06
-8.50228e-07
2.61149e-06
-8.65515e-07
2.53561e-06
-8.80062e-07
2.44746e-06
-8.94245e-07
2.34961e-06
-9.08417e-07
2.24449e-06
-9.22888e-07
2.13423e-06
-9.37907e-07
2.02059e-06
-9.53642e-07
1.90484e-06
-9.70184e-07
1.78779e-06
-9.87541e-07
1.66984e-06
-1.00565e-06
1.55099e-06
-1.02438e-06
1.43103e-06
1.30949e-06
-5.24206e-10
1.33614e-07
-2.63898e-09
3.62075e-07
-6.74478e-09
5.55649e-07
-1.30817e-08
7.18031e-07
-2.17398e-08
8.52937e-07
-3.26864e-08
9.64128e-07
-4.57999e-08
1.05534e-06
-6.09034e-08
1.13019e-06
-7.77948e-08
1.19212e-06
-9.62705e-08
1.24432e-06
-1.16142e-07
1.28974e-06
-1.37246e-07
1.33102e-06
-1.59448e-07
1.37057e-06
-1.82645e-07
1.41057e-06
-2.06755e-07
1.45297e-06
-2.31717e-07
1.49951e-06
-2.57476e-07
1.55168e-06
-2.83978e-07
1.61072e-06
-3.11159e-07
1.6775e-06
-3.38937e-07
1.7525e-06
-3.67207e-07
1.8357e-06
-3.95833e-07
1.92649e-06
-4.24649e-07
2.02366e-06
-4.53459e-07
2.12537e-06
-4.82041e-07
2.22922e-06
-5.10151e-07
2.3323e-06
-5.37538e-07
2.43139e-06
-5.63954e-07
2.52309e-06
-5.89172e-07
2.60406e-06
-6.13e-07
2.67123e-06
-6.35294e-07
2.72199e-06
-6.55973e-07
2.75437e-06
-6.75029e-07
2.76712e-06
-6.92532e-07
2.75983e-06
-7.08626e-07
2.73292e-06
-7.23524e-07
2.68753e-06
-7.37493e-07
2.62546e-06
-7.50833e-07
2.54895e-06
-7.63858e-07
2.46049e-06
-7.76873e-07
2.36263e-06
-7.90153e-07
2.25777e-06
-8.03927e-07
2.148e-06
-8.18367e-07
2.03503e-06
-8.33579e-07
1.92005e-06
-8.49598e-07
1.80381e-06
-8.66395e-07
1.68663e-06
-8.83883e-07
1.56848e-06
-9.01934e-07
1.44908e-06
1.32795e-06
-2.46768e-10
1.3386e-07
-1.65516e-09
3.63484e-07
-4.73373e-09
5.58727e-07
-9.81126e-09
7.23109e-07
-1.70494e-08
8.60175e-07
-2.64699e-08
9.73548e-07
-3.79893e-08
1.06686e-06
-5.14539e-08
1.14365e-06
-6.66719e-08
1.20734e-06
-8.34384e-08
1.26109e-06
-1.01555e-07
1.30785e-06
-1.2084e-07
1.3503e-06
-1.41135e-07
1.39087e-06
-1.62307e-07
1.43174e-06
-1.84241e-07
1.47491e-06
-2.06838e-07
1.52211e-06
-2.30007e-07
1.57485e-06
-2.53655e-07
1.63436e-06
-2.77684e-07
1.70153e-06
-3.01983e-07
1.7768e-06
-3.26425e-07
1.86014e-06
-3.50867e-07
1.95093e-06
-3.75149e-07
2.04794e-06
-3.99098e-07
2.14932e-06
-4.22534e-07
2.25265e-06
-4.45274e-07
2.35504e-06
-4.67146e-07
2.45326e-06
-4.87993e-07
2.54393e-06
-5.07687e-07
2.62375e-06
-5.26138e-07
2.68968e-06
-5.43305e-07
2.73916e-06
-5.59196e-07
2.77026e-06
-5.73881e-07
2.7818e-06
-5.87483e-07
2.77344e-06
-6.00181e-07
2.74562e-06
-6.12192e-07
2.69955e-06
-6.23764e-07
2.63704e-06
-6.35155e-07
2.56034e-06
-6.46618e-07
2.47195e-06
-6.58382e-07
2.37439e-06
-6.70644e-07
2.27003e-06
-6.83554e-07
2.16091e-06
-6.97217e-07
2.04869e-06
-7.1168e-07
1.93451e-06
-7.26928e-07
-7.429e-07
-7.59494e-07
-7.76582e-07
2.79653e-11
1.33832e-07
-6.81239e-10
3.64193e-07
-2.73457e-09
5.60781e-07
-6.54645e-09
7.26921e-07
-1.23485e-08
8.65977e-07
-2.02168e-08
9.81417e-07
-3.01066e-08
1.07675e-06
-4.18885e-08
1.15544e-06
-5.5382e-08
1.22083e-06
-7.03827e-08
1.27609e-06
-8.66825e-08
1.32415e-06
-1.04083e-07
1.3677e-06
-1.22402e-07
1.40918e-06
-1.41477e-07
1.45082e-06
-1.6116e-07
1.49459e-06
-1.81318e-07
1.54226e-06
-2.01821e-07
1.59535e-06
-2.22541e-07
1.65508e-06
-2.43346e-07
1.72233e-06
-2.64097e-07
1.79755e-06
-2.8465e-07
1.88069e-06
-3.04853e-07
1.97113e-06
-3.24558e-07
2.06764e-06
-3.43615e-07
2.16838e-06
-3.61889e-07
2.27093e-06
-3.79259e-07
2.37241e-06
-3.9563e-07
2.46963e-06
-4.10935e-07
2.55924e-06
-4.25146e-07
2.63796e-06
-4.38273e-07
2.70281e-06
-4.50369e-07
2.75126e-06
-4.61532e-07
2.78142e-06
-4.719e-07
2.79217e-06
-4.81648e-07
2.78318e-06
-4.90977e-07
2.75495e-06
-5.00107e-07
2.70868e-06
-5.09261e-07
2.64619e-06
-5.1865e-07
2.56973e-06
-5.28465e-07
2.48177e-06
-5.38862e-07
2.38479e-06
-5.4996e-07
2.28113e-06
-5.61836e-07
2.17279e-06
-5.74529e-07
2.06138e-06
1.94801e-06
2.93331e-10
1.33539e-07
2.73607e-10
3.64213e-07
-7.63985e-10
5.61818e-07
-3.31462e-09
7.29471e-07
-7.67514e-09
8.70338e-07
-1.39763e-08
9.87718e-07
-2.22119e-08
1.08498e-06
-3.2278e-08
1.1655e-06
-4.4007e-08
1.23256e-06
-5.71959e-08
1.28928e-06
-7.16286e-08
1.33858e-06
-8.70906e-08
1.38316e-06
-1.03377e-07
1.42547e-06
-1.20298e-07
1.46774e-06
-1.37674e-07
1.51197e-06
-1.55335e-07
1.55992e-06
-1.73117e-07
1.61313e-06
-1.90857e-07
1.67282e-06
-2.08392e-07
1.73987e-06
-2.25556e-07
1.81472e-06
-2.42188e-07
1.89733e-06
-2.58133e-07
1.98708e-06
-2.7325e-07
2.08276e-06
-2.87416e-07
2.18254e-06
-3.00541e-07
2.28405e-06
-3.12563e-07
2.38443e-06
-3.23465e-07
2.48053e-06
-3.33268e-07
2.56904e-06
-3.42039e-07
2.64673e-06
-3.49884e-07
2.71066e-06
-3.56951e-07
2.75832e-06
-3.63418e-07
2.78789e-06
-3.69489e-07
2.79824e-06
-3.75384e-07
2.78908e-06
-3.81327e-07
2.76089e-06
-3.87534e-07
2.71488e-06
-3.94201e-07
2.65286e-06
-4.01494e-07
2.57702e-06
-4.09541e-07
2.48981e-06
-4.18426e-07
2.39368e-06
-4.28196e-07
2.2909e-06
-4.38857e-07
2.18345e-06
-4.50382e-07
2.07291e-06
1.96034e-06
5.50459e-10
1.32989e-07
1.19992e-09
3.63563e-07
1.15974e-09
5.61859e-07
-1.40699e-10
7.30772e-07
-3.06793e-09
8.73265e-07
-7.7989e-09
9.92449e-07
-1.43676e-08
1.09155e-06
-2.26966e-08
1.17383e-06
-3.26322e-08
1.2425e-06
-4.39748e-08
1.30062e-06
-5.65016e-08
1.35111e-06
-6.99837e-08
1.39664e-06
-8.41953e-08
1.43968e-06
-9.89188e-08
1.48246e-06
-1.13945e-07
1.52699e-06
-1.29071e-07
1.57505e-06
-1.44098e-07
1.62816e-06
-1.58831e-07
1.68756e-06
-1.73074e-07
1.75411e-06
-1.8664e-07
1.82828e-06
-1.99351e-07
1.91004e-06
-2.11046e-07
1.99878e-06
-2.21595e-07
2.09331e-06
-2.30902e-07
2.19185e-06
-2.38916e-07
2.29206e-06
-2.45636e-07
2.39115e-06
-2.51118e-07
2.48601e-06
-2.55467e-07
2.57339e-06
-2.58842e-07
2.65011e-06
-2.61442e-07
2.71326e-06
-2.63503e-07
2.76039e-06
-2.65281e-07
2.78967e-06
-2.67042e-07
2.8e-06
-2.6905e-07
2.79109e-06
-2.71547e-07
2.76339e-06
-2.74746e-07
2.71808e-06
-2.78817e-07
2.65693e-06
-2.83882e-07
2.58209e-06
-2.9001e-07
2.49594e-06
-2.97218e-07
2.40088e-06
-3.05482e-07
2.29916e-06
-3.1474e-07
2.19271e-06
-3.24901e-07
2.08307e-06
1.97129e-06
7.95785e-10
1.32193e-07
2.09131e-09
3.62268e-07
3.0193e-09
5.60931e-07
2.94024e-09
7.30851e-07
1.43247e-09
8.74773e-07
-1.73653e-09
9.95618e-07
-6.63792e-09
1.09645e-06
-1.32203e-08
1.18041e-06
-2.13459e-08
1.25062e-06
-3.08195e-08
1.3101e-06
-4.14137e-08
1.36171e-06
-5.28869e-08
1.40812e-06
-6.49937e-08
1.45179e-06
-7.74918e-08
1.49496e-06
-9.01429e-08
1.53964e-06
-1.02713e-07
1.58762e-06
-1.14971e-07
1.64042e-06
-1.2669e-07
1.69927e-06
-1.37646e-07
1.76507e-06
-1.47629e-07
1.83827e-06
-1.56444e-07
1.91885e-06
-1.63929e-07
2.00626e-06
-1.6996e-07
2.09934e-06
-1.74465e-07
2.19636e-06
-1.77433e-07
2.29503e-06
-1.78918e-07
2.39264e-06
-1.79043e-07
2.48614e-06
-1.77997e-07
2.57234e-06
-1.76022e-07
2.64813e-06
-1.73406e-07
2.71064e-06
-1.7047e-07
2.75745e-06
-1.67544e-07
2.78674e-06
-1.64955e-07
2.79741e-06
-1.63005e-07
2.78914e-06
-1.61959e-07
2.76234e-06
-1.62028e-07
2.71815e-06
-1.63359e-07
2.65826e-06
-1.66033e-07
2.58476e-06
-1.70066e-07
2.49997e-06
-1.75413e-07
2.40623e-06
-1.81983e-07
2.30573e-06
-1.89651e-07
2.20038e-06
-1.9827e-07
2.09169e-06
1.9807e-06
1.02714e-09
1.31166e-07
2.93864e-09
3.60356e-07
4.79919e-09
5.5907e-07
5.90791e-09
7.29742e-07
5.78691e-09
8.74894e-07
4.15834e-09
9.97246e-07
9.1283e-10
1.0997e-06
-3.92699e-09
1.18525e-06
-1.02386e-08
1.25693e-06
-1.78328e-08
1.31769e-06
-2.64803e-08
1.37035e-06
-3.59282e-08
1.41757e-06
-4.5914e-08
1.46178e-06
-5.61724e-08
1.50522e-06
-6.64387e-08
1.54991e-06
-7.64493e-08
1.59763e-06
-8.59431e-08
1.64991e-06
-9.46629e-08
1.70799e-06
-1.02359e-07
1.77276e-06
-1.08798e-07
1.84471e-06
-1.13771e-07
1.92383e-06
-1.17111e-07
2.0096e-06
-1.187e-07
2.10093e-06
-1.18488e-07
2.19614e-06
-1.16498e-07
2.29304e-06
-1.12835e-07
2.38898e-06
-1.07685e-07
2.48099e-06
-1.01311e-07
2.56597e-06
-9.40357e-08
2.64086e-06
-8.62298e-08
2.70284e-06
-7.82955e-08
2.74951e-06
-7.06335e-08
2.77908e-06
-6.36276e-08
2.79041e-06
-5.76233e-08
2.78313e-06
-5.29067e-08
2.75762e-06
-4.96905e-08
2.71493e-06
-4.81054e-08
2.65667e-06
-4.81984e-08
2.58485e-06
-4.99376e-08
2.50171e-06
-5.32242e-08
2.40952e-06
-5.79077e-08
2.31042e-06
-6.38044e-08
2.20627e-06
-7.07153e-08
2.0986e-06
1.98843e-06
1.24238e-09
1.29923e-07
3.7341e-09
3.57865e-07
6.48225e-09
5.56322e-07
8.73227e-09
7.27492e-07
9.95658e-09
8.7367e-07
9.83333e-09
9.9737e-07
8.21687e-09
1.10131e-06
5.10414e-09
1.18837e-06
5.99208e-10
1.26144e-06
-5.11932e-09
1.32341e-06
-1.18188e-08
1.37705e-06
-1.9238e-08
1.42498e-06
-2.70997e-08
1.46964e-06
-3.51183e-08
1.51324e-06
-4.30047e-08
1.5578e-06
-5.04685e-08
1.60509e-06
-5.72203e-08
1.65667e-06
-6.2976e-08
1.71375e-06
-6.74613e-08
1.77725e-06
-7.04177e-08
1.84766e-06
-7.16255e-08
1.92503e-06
-7.091e-08
2.00888e-06
-6.8159e-08
2.09818e-06
-6.33386e-08
2.19132e-06
-5.6507e-08
2.28621e-06
-4.77995e-08
2.38027e-06
-3.74727e-08
2.47066e-06
-2.58511e-08
2.55435e-06
-1.33335e-08
2.62834e-06
-3.71555e-10
2.68987e-06
1.25725e-08
2.73657e-06
2.50209e-08
2.76663e-06
3.65292e-08
2.7789e-06
4.67102e-08
2.77295e-06
5.52522e-08
2.74908e-06
6.19349e-08
2.70825e-06
6.66375e-08
2.65197e-06
6.93388e-08
2.58215e-06
7.01089e-08
2.50094e-06
6.90942e-08
2.41053e-06
6.64966e-08
2.31301e-06
6.2551e-08
2.21022e-06
5.75024e-08
2.10365e-06
1.99436e-06
1.43948e-09
1.28484e-07
4.47013e-09
3.54834e-07
8.05238e-09
5.5274e-07
1.13867e-08
7.24158e-07
1.39019e-08
8.71154e-07
1.52364e-08
9.96035e-07
1.52103e-08
1.10134e-06
1.37932e-08
1.18978e-06
1.10706e-08
1.26416e-06
7.21407e-09
1.32727e-06
2.45241e-09
1.38181e-06
-2.94762e-09
1.43038e-06
-8.69532e-09
1.47539e-06
-1.44873e-08
1.51903e-06
-2.00134e-08
1.56332e-06
-2.49583e-08
1.61004e-06
-2.90063e-08
1.66071e-06
-3.18498e-08
1.71659e-06
-3.31944e-08
1.77859e-06
-3.27492e-08
1.84722e-06
-3.02898e-08
1.92257e-06
-2.5633e-08
2.00423e-06
-1.86667e-08
2.09121e-06
-9.36662e-09
2.18202e-06
2.19318e-09
2.27465e-06
1.57951e-08
2.36667e-06
3.11797e-08
2.45528e-06
4.79547e-08
2.53757e-06
6.56528e-08
2.61064e-06
8.37555e-08
2.67177e-06
1.01715e-07
2.71861e-06
1.18996e-07
2.74935e-06
1.35099e-07
2.76279e-06
1.49591e-07
2.75846e-06
1.62129e-07
2.73654e-06
1.72479e-07
2.6979e-06
1.80522e-07
2.64393e-06
1.86251e-07
2.57642e-06
1.89765e-07
2.49743e-06
1.91247e-07
2.40905e-06
1.90943e-07
2.31332e-06
1.89131e-07
2.21203e-06
1.86096e-07
2.10668e-06
1.99835e-06
1.61657e-09
1.26867e-07
5.13953e-09
3.51311e-07
9.49415e-09
5.48385e-07
1.3845e-08
7.19807e-07
1.75845e-08
8.67415e-07
2.03156e-08
9.93304e-07
2.18267e-08
1.09983e-06
2.20614e-08
1.18955e-06
2.10864e-08
1.26514e-06
1.90614e-08
1.32929e-06
1.62121e-08
1.38466e-06
1.28097e-08
1.43379e-06
9.15389e-09
1.47904e-06
5.56354e-09
1.52262e-06
2.36911e-09
1.56652e-06
-9.57893e-11
1.6125e-06
-1.49587e-09
1.66211e-06
-1.49043e-09
1.71659e-06
2.48044e-10
1.77686e-06
3.97214e-09
1.84349e-06
9.96773e-09
1.91658e-06
1.84267e-08
1.99577e-06
2.94581e-08
2.08018e-06
4.30737e-08
2.16841e-06
5.91735e-08
2.25855e-06
7.75539e-08
2.34829e-06
9.78711e-08
2.43496e-06
1.1969e-07
2.51575e-06
1.42488e-07
2.58785e-06
1.65683e-07
2.64858e-06
1.88664e-07
2.69563e-06
2.10833e-07
2.72718e-06
2.31631e-07
2.742e-06
2.5058e-07
2.73951e-06
2.67301e-07
2.71982e-06
2.81536e-07
2.68367e-06
2.93158e-07
2.63231e-06
3.02166e-07
2.56742e-06
3.08675e-07
2.49092e-06
3.12895e-07
2.40483e-06
3.15104e-07
2.31111e-06
3.15616e-07
2.21152e-06
3.14752e-07
2.10754e-06
2.0003e-06
1.77189e-09
1.25095e-07
5.73552e-09
3.47347e-07
1.07927e-08
5.43328e-07
1.60821e-08
7.14517e-07
2.09669e-08
8.6253e-07
2.50199e-08
9.89251e-07
2.80011e-08
1.09685e-06
2.98292e-08
1.18772e-06
3.05518e-08
1.26441e-06
3.03161e-08
1.32953e-06
2.93424e-08
1.38564e-06
2.79025e-08
1.43523e-06
2.6303e-08
1.48064e-06
2.48737e-08
1.52405e-06
2.39593e-08
1.56743e-06
2.39145e-08
1.61255e-06
2.50978e-08
1.66093e-06
2.78599e-08
1.71383e-06
3.25366e-08
1.77218e-06
3.94564e-08
1.83657e-06
4.88729e-08
1.90716e-06
6.09894e-08
1.98365e-06
7.59233e-08
2.06525e-06
9.36859e-08
2.15064e-06
1.14169e-07
2.23807e-06
1.37137e-07
2.32532e-06
1.62226e-07
2.40987e-06
1.88957e-07
2.48902e-06
2.16758e-07
2.56004e-06
2.44991e-07
2.62034e-06
2.72987e-07
2.66763e-06
3.00086e-07
2.70008e-06
3.25677e-07
2.71641e-06
3.49228e-07
2.71596e-06
3.7032e-07
2.69873e-06
3.88665e-07
2.66532e-06
4.04117e-07
2.61686e-06
4.16669e-07
2.55486e-06
4.26439e-07
2.48115e-06
4.33653e-07
2.39762e-06
4.38609e-07
2.30615e-06
4.41648e-07
2.20848e-06
4.43122e-07
2.10607e-06
2.00007e-06
1.90384e-09
1.23192e-07
6.25166e-09
3.43e-07
1.1934e-08
5.37645e-07
1.80734e-08
7.08378e-07
2.40124e-08
8.56591e-07
2.92993e-08
9.83964e-07
3.36693e-08
1.09248e-06
3.70181e-08
1.18437e-06
3.93745e-08
1.26206e-06
4.08721e-08
1.32803e-06
4.17237e-08
1.38479e-06
4.21994e-08
1.43475e-06
4.26098e-08
1.48023e-06
4.32931e-08
1.52337e-06
4.46065e-08
1.56612e-06
4.6919e-08
1.61024e-06
5.06049e-08
1.65724e-06
5.60346e-08
1.7084e-06
6.35652e-08
1.76465e-06
7.35289e-08
1.82661e-06
8.62044e-08
1.89449e-06
1.01806e-07
1.96805e-06
1.20458e-07
2.04659e-06
1.42173e-07
2.12893e-06
1.66838e-07
2.2134e-06
1.94205e-07
2.29795e-06
2.23889e-07
2.38019e-06
2.55379e-07
2.45753e-06
2.88065e-07
2.52736e-06
3.2126e-07
2.58715e-06
3.54244e-07
2.63465e-06
3.86303e-07
2.66802e-06
4.16768e-07
2.68594e-06
4.45059e-07
2.68767e-06
4.70708e-07
2.67308e-06
4.93389e-07
2.64264e-06
5.12927e-07
2.59732e-06
5.29296e-07
2.5385e-06
5.42607e-07
2.46784e-06
5.53084e-07
2.38714e-06
5.61038e-07
2.2982e-06
5.66827e-07
2.20269e-06
5.70824e-07
2.10207e-06
1.99752e-06
2.01089e-09
1.21181e-07
6.68186e-09
3.38329e-07
1.29043e-08
5.31423e-07
1.97954e-08
7.01487e-07
2.66853e-08
8.49701e-07
3.31047e-08
9.77545e-07
3.8768e-08
1.08681e-06
4.35505e-08
1.17959e-06
4.74627e-08
1.25814e-06
5.06241e-08
1.32487e-06
5.32381e-08
1.38217e-06
5.55708e-08
1.43242e-06
5.79333e-08
1.47787e-06
6.06692e-08
1.52063e-06
6.41442e-08
1.56264e-06
6.87387e-08
1.60564e-06
7.48401e-08
1.65114e-06
8.28338e-08
1.7004e-06
9.30924e-08
1.75439e-06
1.0596e-07
1.81374e-06
1.21733e-07
1.87871e-06
1.40638e-07
1.94915e-06
1.62809e-07
2.02442e-06
1.88266e-07
2.10347e-06
2.16898e-07
2.18477e-06
2.48451e-07
2.2664e-06
2.82529e-07
2.34611e-06
3.18601e-07
2.42146e-06
3.56027e-07
2.48993e-06
3.94083e-07
2.54909e-06
4.32004e-07
2.59673e-06
4.69027e-07
2.631e-06
5.04431e-07
2.65054e-06
5.3758e-07
2.65452e-06
5.67959e-07
2.6427e-06
5.95195e-07
2.6154e-06
6.19072e-07
2.57344e-06
6.39535e-07
2.51803e-06
6.56673e-07
2.4507e-06
6.70698e-07
2.37311e-06
6.81919e-07
2.28698e-06
6.90701e-07
2.19391e-06
6.97429e-07
2.09535e-06
1.99248e-06
2.09162e-09
1.19089e-07
7.02026e-09
3.334e-07
1.36905e-08
5.24753e-07
2.12251e-08
6.93952e-07
2.89508e-08
8.41976e-07
3.63878e-08
9.70108e-07
4.32349e-08
1.07997e-06
4.93497e-08
1.17347e-06
5.47258e-08
1.25277e-06
5.9468e-08
1.32013e-06
6.3769e-08
1.37787e-06
6.78882e-08
1.4283e-06
7.21347e-08
1.47362e-06
7.68534e-08
1.51591e-06
8.24153e-08
1.55708e-06
8.92083e-08
1.59885e-06
9.76295e-08
1.64272e-06
1.08076e-07
1.68996e-06
1.20932e-07
1.74153e-06
1.36554e-07
1.79812e-06
1.55253e-07
1.86001e-06
1.77269e-07
1.92713e-06
2.02749e-07
1.99894e-06
2.31723e-07
2.0745e-06
2.64089e-07
2.1524e-06
2.99596e-07
2.23089e-06
3.37845e-07
2.30786e-06
3.78296e-07
2.38101e-06
4.20289e-07
2.44794e-06
4.63074e-07
2.50631e-06
5.0585e-07
2.55395e-06
5.47811e-07
2.58904e-06
5.88185e-07
2.61016e-06
6.26287e-07
2.61642e-06
6.61545e-07
2.60744e-06
6.93536e-07
2.58341e-06
7.21996e-07
2.54498e-06
7.46826e-07
2.4932e-06
7.6808e-07
2.42945e-06
7.85948e-07
2.35525e-06
8.00722e-07
2.2722e-06
8.12761e-07
2.18187e-06
8.22456e-07
2.08565e-06
1.98475e-06
2.14464e-09
1.16944e-07
7.26113e-09
3.28283e-07
1.42796e-08
5.17734e-07
2.23398e-08
6.85892e-07
3.07746e-08
8.33541e-07
3.91012e-08
9.61781e-07
4.70084e-08
1.07206e-06
5.434e-08
1.16614e-06
6.1074e-08
1.24603e-06
6.73008e-08
1.3139e-06
7.32011e-08
1.37197e-06
7.90254e-08
1.42248e-06
8.50776e-08
1.46757e-06
9.1701e-08
1.50929e-06
9.92674e-08
1.54951e-06
1.08169e-07
1.58995e-06
1.18808e-07
1.63208e-06
1.3159e-07
1.67717e-06
1.46908e-07
1.72622e-06
1.6513e-07
1.7799e-06
1.86579e-07
1.83857e-06
2.11507e-07
1.9022e-06
2.40075e-07
1.97037e-06
2.72331e-07
2.04224e-06
3.08184e-07
2.11655e-06
3.47394e-07
2.19168e-06
3.8957e-07
2.26568e-06
4.3417e-07
2.33641e-06
4.80527e-07
2.40158e-06
5.27875e-07
2.45896e-06
5.75387e-07
2.50644e-06
6.2222e-07
2.54221e-06
6.6756e-07
2.56482e-06
7.10671e-07
2.57331e-06
7.50926e-07
2.56719e-06
7.87845e-07
2.54649e-06
8.21108e-07
2.51172e-06
8.50564e-07
2.46375e-06
8.7622e-07
2.40379e-06
8.98229e-07
2.33324e-06
9.16853e-07
2.25358e-06
9.32435e-07
2.16629e-06
9.45359e-07
2.07273e-06
1.9741e-06
2.16852e-09
1.14776e-07
7.39867e-09
3.23053e-07
1.46588e-08
5.10474e-07
2.31169e-08
6.77434e-07
3.21222e-08
8.24535e-07
4.11974e-08
9.52706e-07
5.00273e-08
1.06323e-06
5.84459e-08
1.15772e-06
6.64182e-08
1.23806e-06
7.40206e-08
1.3063e-06
8.14207e-08
1.36457e-06
8.88583e-08
1.41504e-06
9.6629e-08
1.4598e-06
1.05071e-07
1.50085e-06
1.14553e-07
1.54003e-06
1.25468e-07
1.57903e-06
1.3822e-07
1.61933e-06
1.53217e-07
1.66218e-06
1.7086e-07
1.70857e-06
1.91524e-07
1.75923e-06
2.15541e-07
1.81455e-06
2.43178e-07
1.87456e-06
2.74612e-07
1.93894e-06
3.09905e-07
2.00695e-06
3.48986e-07
2.07747e-06
3.91634e-07
2.14903e-06
4.3747e-07
2.21985e-06
4.85964e-07
2.28792e-06
5.3645e-07
2.3511e-06
5.88159e-07
2.40725e-06
6.40246e-07
2.45435e-06
6.91843e-07
2.49061e-06
7.42099e-07
2.51456e-06
7.9023e-07
2.52518e-06
8.35557e-07
2.52186e-06
8.77538e-07
2.50451e-06
9.15792e-07
2.47346e-06
9.50108e-07
2.42943e-06
9.80436e-07
2.37346e-06
1.00688e-06
2.3068e-06
1.02965e-06
2.2308e-06
1.04908e-06
2.14686e-06
1.06552e-06
2.05629e-06
1.96027e-06
2.16173e-09
1.12614e-07
7.42686e-09
3.17788e-07
1.48147e-08
5.03086e-07
2.35332e-08
6.68716e-07
3.2959e-08
8.1511e-07
4.26284e-08
9.43036e-07
5.22299e-08
1.05363e-06
6.1592e-08
1.14836e-06
7.06696e-08
1.22898e-06
7.95259e-08
1.29744e-06
8.83151e-08
1.35578e-06
9.72642e-08
1.40609e-06
1.06658e-07
1.4504e-06
1.16826e-07
1.49068e-06
1.28131e-07
1.52873e-06
1.4096e-07
1.5662e-06
1.55716e-07
1.60457e-06
1.72808e-07
1.64509e-06
1.92638e-07
1.68874e-06
2.15586e-07
1.73628e-06
2.41993e-07
1.78814e-06
2.72137e-07
1.84442e-06
3.06208e-07
1.90487e-06
3.4429e-07
1.96887e-06
3.86333e-07
2.03543e-06
4.3214e-07
2.10322e-06
4.81352e-07
2.17064e-06
5.33461e-07
2.23581e-06
5.87811e-07
2.29675e-06
6.43638e-07
2.35142e-06
7.00096e-07
2.39789e-06
7.563e-07
2.43441e-06
8.11369e-07
2.45949e-06
8.64478e-07
2.47207e-06
9.14897e-07
2.47144e-06
9.62025e-07
2.45739e-06
1.00542e-06
2.43007e-06
1.04479e-06
2.39006e-06
1.08003e-06
2.33822e-06
1.11118e-06
2.27565e-06
1.13841e-06
2.20358e-06
1.16198e-06
2.12329e-06
1.18224e-06
2.03603e-06
1.94297e-06
2.1227e-09
1.10491e-07
7.33931e-09
3.12572e-07
1.4733e-08
4.95693e-07
2.35644e-08
6.59884e-07
3.32481e-08
8.05426e-07
4.33445e-08
9.3294e-07
5.35524e-08
1.04342e-06
6.37008e-08
1.13821e-06
7.37375e-08
1.21895e-06
8.37142e-08
1.28746e-06
9.37711e-08
1.34572e-06
1.04121e-07
1.39574e-06
1.15035e-07
1.43949e-06
1.26831e-07
1.47888e-06
1.39861e-07
1.5157e-06
1.54505e-07
1.55156e-06
1.71158e-07
1.58792e-06
1.90225e-07
1.62602e-06
2.12107e-07
1.66686e-06
2.37185e-07
1.71121e-06
2.65805e-07
1.75952e-06
2.98255e-07
1.81197e-06
3.34739e-07
1.86838e-06
3.7536e-07
1.92825e-06
4.20094e-07
1.99069e-06
4.68775e-07
2.05454e-06
5.2107e-07
5.76499e-07
6.3442e-07
6.94093e-07
7.54677e-07
8.15281e-07
8.75005e-07
9.3299e-07
9.88461e-07
1.04076e-06
1.08937e-06
1.13395e-06
1.1743e-06
1.2104e-06
1.24235e-06
1.27037e-06
1.29475e-06
2.05007e-09
7.1298e-09
1.43994e-08
2.31849e-08
3.29515e-08
4.32932e-08