/*--------------------------------*- C++ -*----------------------------------*\
  =========                 |
  \\      /  F ield         | OpenFOAM: The Open Source CFD Toolbox
   \\    /   O peration     | Website:  https://openfoam.org
    \\  /    A nd           | Version:  9
     \\/     M anipulation  |
\*---------------------------------------------------------------------------*/
FoamFile
{
    format      ascii;
    class       volVectorField;
    location    "1";
    object      U;
}
// * * * * * * * * * * * * * * * * * * * * * * * * * * * * * * * * * * * * * //

dimensions      [0 1 -1 0 0 0 0];

internalField   nonuniform List<vector> 
1250
(
(-8.41759e-05 0.011483 0)
(-0.000588628 0.0306925 0)
(-7.76315e-05 0.0117778 0)
(-0.000550459 0.0315 0)
(-0.00156763 0.0478155 0)
(-0.00299562 0.0611551 0)
(-0.00477027 0.0719471 0)
(-0.0068468 0.0806051 0)
(-0.0091818 0.087517 0)
(-0.0117378 0.0930381 0)
(-0.014485 0.0974867 0)
(-0.0174018 0.101144 0)
(-0.0204743 0.104258 0)
(-0.0236965 0.107045 0)
(-0.0270697 0.109695 0)
(-0.0306025 0.112379 0)
(-0.0343098 0.115254 0)
(-0.038212 0.11846 0)
(-0.0423344 0.12213 0)
(-0.0467052 0.126381 0)
(-0.0513537 0.131311 0)
(-0.0563081 0.136995 0)
(-0.0615926 0.143476 0)
(-0.0672245 0.150757 0)
(-0.073211 0.158794 0)
(-0.0795462 0.167489 0)
(-0.0862094 0.176696 0)
(-0.0931638 0.186216 0)
(-0.100355 0.19581 0)
(-0.10771 0.205204 0)
(-0.115145 0.214112 0)
(-0.122559 0.222214 0)
(-0.129851 0.229225 0)
(-0.13692 0.234892 0)
(-0.143665 0.238999 0)
(-0.149999 0.241388 0)
(-7.0589e-05 0.0120513 0)
(-0.000509202 0.032258 0)
(-0.00146174 0.0490002 0)
(-0.00280951 0.0627136 0)
(-0.00449588 0.0738299 0)
(-0.00648048 0.0827671 0)
(-0.008723 0.089919 0)
(-0.0111878 0.0956473 0)
(-0.0138459 0.100278 0)
(-0.0166759 0.104099 0)
(-0.0196634 0.107367 0)
(-0.0228015 0.110304 0)
(-0.0260906 0.11311 0)
(-0.0295375 0.11596 0)
(-0.0331555 0.119018 0)
(-0.036963 0.122429 0)
(-0.0409825 0.126329 0)
(-0.0452393 0.130837 0)
(-0.0497591 0.136052 0)
(-0.0545663 0.142044 0)
(-0.0596807 0.148853 0)
(-0.065115 0.15647 0)
(-0.0708718 0.164841 0)
(-0.0769413 0.173856 0)
(-0.083299 0.18335 0)
(-0.0899055 0.193111 0)
(-0.0967051 0.202883 0)
(-0.103626 0.212378 0)
(-0.110582 0.221289 0)
(-0.11748 0.2293 0)
(-0.124226 0.236123 0)
(-0.130725 0.241504 0)
(-0.136888 0.245238 0)
(-0.142636 0.247174 0)
(-0.147911 0.247238 0)
(-0.152668 0.245403 0)
(-0.156893 0.241732 0)
(-0.16059 0.236341 0)
(-0.163786 0.229394 0)
(-0.166529 0.221091 0)
(-0.168879 0.21165 0)
(-0.170907 0.201292 0)
(-0.172683 0.19022 0)
(-6.32356e-05 0.0123023 0)
(-0.000465361 0.0329612 0)
(-0.00134845 0.0501097 0)
(-0.00260958 0.0641844 0)
(-0.00420004 0.0756184 0)
(-0.00608419 0.0848325 0)
(-0.00822503 0.0922245 0)
(-0.0105889 0.0981615 0)
(-0.0131478 0.102976 0)
(-0.0158801 0.106963 0)
(-0.0187712 0.110385 0)
(-0.0218129 0.113474 0)
(-0.0250044 0.116433 0)
(-0.0283508 0.119446 0)
(-0.0318632 0.122682 0)
(-0.0355576 0.12629 0)
(-0.0394537 0.13041 0)
(-0.0435734 0.135161 0)
(-0.0479387 0.140642 0)
(-0.0525697 0.146921 0)
(-0.0574821 0.15403 0)
(-0.0626843 0.161954 0)
(-0.0681749 0.170625 0)
(-0.0739405 0.179921 0)
(-0.0799542 0.189663 0)
(-0.0861747 0.199623 0)
(-0.092546 0.209529 0)
(-0.098998 0.219082 0)
(-0.105449 0.227963 0)
(-0.111811 0.235853 0)
(-0.117998 0.242464 0)
(-0.123925 0.247548 0)
(-0.129512 0.250906 0)
(-0.134693 0.252403 0)
(-0.139419 0.251977 0)
(-0.143663 0.249637 0)
(-0.147418 0.24546 0)
(-0.150699 0.239584 0)
(-0.153541 0.232192 0)
(-0.155994 0.2235 0)
(-0.158122 0.213736 0)
(-0.159994 0.203126 0)
(-0.161685 0.19188 0)
(-0.163254 0.180171 0)
(-0.164769 0.168157 0)
(-0.166273 0.155941 0)
(-0.167801 0.143595 0)
(-0.169374 0.131162 0)
(-0.170995 0.11865 0)
(-5.55547e-05 0.0125297 0)
(-0.000419194 0.0336068 0)
(-0.0012285 0.0511386 0)
(-0.00239696 0.0655604 0)
(-0.00388423 0.0773043 0)
(-0.00565968 0.0867919 0)
(-0.00768986 0.0944233 0)
(-0.00994318 0.10057 0)
(-0.0123926 0.105569 0)
(-0.0150167 0.109723 0)
(-0.0177998 0.1133 0)
(-0.020733 0.116538 0)
(-0.0238136 0.119648 0)
(-0.027045 0.12282 0)
(-0.0304357 0.126226 0)
(-0.0339991 0.130022 0)
(-0.0377517 0.134347 0)
(-0.0417117 0.139325 0)
(-0.0458974 0.145051 0)
(-0.0503247 0.151591 0)
(-0.055005 0.158971 0)
(-0.0599427 0.167166 0)
(-0.065133 0.176101 0)
(-0.0705598 0.185638 0)
(-0.0761944 0.195586 0)
(-0.0819951 0.205704 0)
(-0.087907 0.215705 0)
(-0.0938631 0.225279 0)
(-0.0997874 0.234099 0)
(-0.1056 0.241846 0)
(-0.111223 0.248232 0)
(-0.11658 0.253014 0)
(-0.121603 0.256004 0)
(-0.126239 0.257084 0)
(-0.130451 0.256207 0)
(-0.134219 0.253403 0)
(-0.137549 0.248771 0)
(-0.140461 0.242467 0)
(-0.142997 0.234694 0)
(-0.145209 0.225678 0)
(-0.147161 0.215657 0)
(-0.14892 0.204858 0)
(-0.150553 0.193487 0)
(-0.15212 0.181721 0)
(-0.153672 0.169693 0)
(-0.155246 0.1575 0)
(-0.15687 0.145201 0)
(-0.158557 0.132823 0)
(-0.160306 0.120366 0)
(-4.7554e-05 0.0127321 0)
(-0.000370867 0.0341916 0)
(-0.00110247 0.0520822 0)
(-0.00217276 0.0668356 0)
(-0.0035501 0.0788807 0)
(-0.00520909 0.0886375 0)
(-0.00712001 0.0965072 0)
(-0.00925358 0.102864 0)
(-0.0115838 0.108049 0)
(-0.014089 0.11237 0)
(-0.0167532 0.116102 0)
(-0.019566 0.119487 0)
(-0.0225228 0.122745 0)
(-0.025625 0.126069 0)
(-0.0288785 0.129636 0)
(-0.0322937 0.133607 0)
(-0.0358835 0.138123 0)
(-0.0396626 0.143308 0)
(-0.0436451 0.149256 0)
(-0.047843 0.15603 0)
(-0.0522634 0.163649 0)
(-0.0569073 0.172082 0)
(-0.0617667 0.181241 0)
(-0.0668237 0.19098 0)
(-0.0720488 0.201095 0)
(-0.077401 0.21133 0)
(-0.0828278 0.221391 0)
(-0.0882672 0.230954 0)
(-0.0936499 0.23969 0)
(-0.0989048 0.247278 0)
(-0.103962 0.253434 0)
(-0.108757 0.257919 0)
(-0.113233 0.260558 0)
(-0.117348 0.261247 0)
(-0.121075 0.259957 0)
(-0.124405 0.256738 0)
(-0.12735 0.251706 0)
(-0.129937 0.245037 0)
(-0.132209 0.236946 0)
(-0.134221 0.227671 0)
(-0.136033 0.217453 0)
(-0.137707 0.206522 0)
(-0.139304 0.195079 0)
(-0.140877 0.183291 0)
(-0.142468 0.171283 0)
(-0.144107 0.159138 0)
(-0.145814 0.146903 0)
(-0.147596 0.134593 0)
(-0.149444 0.122196 0)
(-3.92937e-05 0.0129086 0)
(-0.000320691 0.0347127 0)
(-0.000971129 0.052936 0)
(-0.00193833 0.0680041 0)
(-0.00319956 0.0803404 0)
(-0.00473487 0.0903614 0)
(-0.00651849 0.0984673 0)
(-0.00852354 0.105033 0)
(-0.010725 0.110404 0)
(-0.0131015 0.114893 0)
(-0.015636 0.118778 0)
(-0.0183169 0.122309 0)
(-0.0211377 0.125708 0)
(-0.0240972 0.129177 0)
(-0.0271987 0.132896 0)
(-0.0304493 0.137028 0)
(-0.0338583 0.141718 0)
(-0.0374367 0.147088 0)
(-0.0411943 0.153233 0)
(-0.0451391 0.160212 0)
(-0.0492746 0.168037 0)
(-0.0535983 0.176671 0)
(-0.0580999 0.186017 0)
(-0.0627602 0.195919 0)
(-0.0675499 0.206161 0)
(-0.0724299 0.216479 0)
(-0.0773515 0.226566 0)
(-0.0822584 0.236093 0)
(-0.0870894 0.244727 0)
(-0.0917825 0.252149 0)
(-0.0962778 0.258076 0)
(-0.100521 0.262277 0)
(-0.104468 0.264589 0)
(-0.108085 0.264921 0)
(-0.111357 0.263263 0)
(-0.114282 0.25968 0)
(-0.116878 0.254307 0)
(-0.119176 0.247333 0)
(-0.121219 0.238985 0)
(-0.123061 0.229509 0)
(-0.124757 0.21915 0)
(-0.126364 0.208136 0)
(-0.127935 0.196662 0)
(-0.129515 0.184887 0)
(-0.131138 0.172924 0)
(-0.132828 0.160846 0)
(-0.134596 0.148686 0)
(-0.136444 0.136449 0)
(-0.13836 0.124112 0)
(-3.08491e-05 0.0130583 0)
(-0.000269053 0.0351676 0)
(-0.000835406 0.0536961 0)
(-0.00169522 0.0690607 0)
(-0.00283483 0.081677 0)
(-0.0042399 0.0919562 0)
(-0.00588875 0.100295 0)
(-0.00775705 0.10707 0)
(-0.00982102 0.112627 0)
(-0.0120592 0.117281 0)
(-0.014454 0.121317 0)
(-0.016992 0.12499 0)
(-0.019665 0.128526 0)
(-0.0224692 0.132131 0)
(-0.0254048 0.13599 0)
(-0.0284756 0.140269 0)
(-0.0316873 0.145113 0)
(-0.0350466 0.150646 0)
(-0.0385597 0.156961 0)
(-0.0422304 0.164113 0)
(-0.0460587 0.17211 0)
(-0.0500393 0.180909 0)
(-0.0541599 0.190404 0)
(-0.0584008 0.20043 0)
(-0.0627338 0.210763 0)
(-0.0671225 0.221128 0)
(-0.0715233 0.231214 0)
(-0.0758866 0.240685 0)
(-0.0801598 0.249206 0)
(-0.0842906 0.256459 0)
(-0.0882296 0.262165 0)
(-0.0919334 0.266102 0)
(-0.0953678 0.268117 0)
(-0.0985106 0.268132 0)
(-0.101354 0.266154 0)
(-0.103903 0.262261 0)
(-0.10618 0.256604 0)
(-0.108217 0.249384 0)
(-0.110058 0.240838 0)
(-0.11175 0.231215 0)
(-0.113345 0.220763 0)
(-0.114893 0.209707 0)
(-0.116438 0.198235 0)
(-0.118018 0.186498 0)
(-0.119659 0.174599 0)
(-0.121378 0.162598 0)
(-0.123179 0.150518 0)
(-0.125061 0.138354 0)
(-0.127008 0.126076 0)
(-2.22972e-05 0.0131806 0)
(-0.00021637 0.0355545 0)
(-0.000696321 0.0543591 0)
(-0.00144516 0.0700007 0)
(-0.00245838 0.0828848 0)
(-0.00372735 0.093415 0)
(-0.00523467 0.101984 0)
(-0.00695868 0.108965 0)
(-0.00887687 0.114707 0)
(-0.0109679 0.119526 0)
(-0.0132134 0.123711 0)
(-0.0155986 0.12752 0)
(-0.0181128 0.131187 0)
(-0.0207498 0.134918 0)
(-0.0235068 0.138904 0)
(-0.0263838 0.143313 0)
(-0.0293831 0.148291 0)
(-0.0325073 0.153963 0)
(-0.0357584 0.16042 0)
(-0.0391366 0.167713 0)
(-0.0426385 0.175848 0)
(-0.0462563 0.184774 0)
(-0.0499765 0.19438 0)
(-0.0537794 0.204493 0)
(-0.0576386 0.214881 0)
(-0.0615216 0.225265 0)
(-0.0653901 0.235324 0)
(-0.0692024 0.244723 0)
(-0.072915 0.253124 0)
(-0.0764855 0.260211 0)
(-0.0798751 0.26571 0)
(-0.0830514 0.269408 0)
(-0.0859904 0.271161 0)
(-0.088679 0.270904 0)
(-0.0911164 0.268656 0)
(-0.0933141 0.264509 0)
(-0.0952953 0.258625 0)
(-0.0970931 0.251216 0)
(-0.0987475 0.242524 0)
(-0.100303 0.232803 0)
(-0.101804 0.2223 0)
(-0.103292 0.211234 0)
(-0.104805 0.199791 0)
(-0.106371 0.18811 0)
(-0.108009 0.176285 0)
(-0.10973 0.164366 0)
(-0.111534 0.152368 0)
(-0.113415 0.140275 0)
(-0.115357 0.128051 0)
(-1.37166e-05 0.013275 0)
(-0.000163082 0.0358718 0)
(-0.000554964 0.0549225 0)
(-0.00119002 0.0708204 0)
(-0.00207289 0.0839589 0)
(-0.00320073 0.0947321 0)
(-0.00456053 0.103526 0)
(-0.00613345 0.110712 0)
(-0.00789836 0.116636 0)
(-0.00983417 0.121618 0)
(-0.0119216 0.125949 0)
(-0.0141445 0.12989 0)
(-0.01649 0.133679 0)
(-0.0189491 0.137527 0)
(-0.0215158 0.141626 0)
(-0.0241869 0.146147 0)
(-0.0269604 0.151239 0)
(-0.0298351 0.157024 0)
(-0.0328093 0.163593 0)
(-0.0358793 0.170996 0)
(-0.0390388 0.179233 0)
(-0.0422778 0.188249 0)
(-0.045582 0.197928 0)
(-0.0489323 0.208092 0)
(-0.0523047 0.218503 0)
(-0.0556711 0.228876 0)
(-0.0589998 0.238889 0)
(-0.0622568 0.248203 0)
(-0.0654082 0.256481 0)
(-0.0684219 0.26341 0)
(-0.0712699 0.268723 0)
(-0.0739301 0.272211 0)
(-0.0763882 0.27374 0)
(-0.0786396 0.273256 0)
(-0.0806895 0.270789 0)
(-0.0825535 0.266443 0)
(-0.084256 0.260388 0)
(-0.0858285 0.252843 0)
(-0.0873075 0.244055 0)
(-0.0887313 0.234278 0)
(-0.0901374 0.223759 0)
(-0.0915598 0.212712 0)
(-0.093027 0.201317 0)
(-0.0945601 0.189704 0)
(-0.0961721 0.177959 0)
(-0.0978675 0.166123 0)
(-0.099643 0.154202 0)
(-0.10149 0.142175 0)
(-0.103392 0.129999 0)
(-5.18941e-06 0.0133414 0)
(-0.000109645 0.0361186 0)
(-0.000412483 0.0553844 0)
(-0.000931766 0.0715168 0)
(-0.00168121 0.0848952 0)
(-0.0026638 0.0959024 0)
(-0.00387097 0.104917 0)
(-0.00528685 0.112303 0)
(-0.0068918 0.118408 0)
(-0.00866503 0.12355 0)
(-0.0105866 0.128022 0)
(-0.0126387 0.13209 0)
(-0.0148065 0.135992 0)
(-0.0170781 0.139946 0)
(-0.0194444 0.144144 0)
(-0.0218985 0.148759 0)
(-0.0244348 0.153942 0)
(-0.0270481 0.159815 0)
(-0.0297328 0.166467 0)
(-0.0324818 0.173945 0)
(-0.0352861 0.182249 0)
(-0.0381338 0.191319 0)
(-0.04101 0.201035 0)
(-0.0438968 0.211215 0)
(-0.0467734 0.221618 0)
(-0.0496162 0.231956 0)
(-0.0524003 0.241904 0)
(-0.0551003 0.251124 0)
(-0.0576919 0.259281 0)
(-0.0601533 0.266064 0)
(-0.062467 0.271211 0)
(-0.064621 0.27452 0)
(-0.0666104 0.275866 0)
(-0.0684377 0.275204 0)
(-0.0701137 0.27257 0)
(-0.0716565 0.268079 0)
(-0.0730908 0.261906 0)
(-0.0744457 0.254274 0)
(-0.0757529 0.245434 0)
(-0.0770442 0.23564 0)
(-0.0783494 0.225134 0)
(-0.0796944 0.214129 0)
(-0.0810997 0.202795 0)
(-0.0825793 0.191257 0)
(-0.0841402 0.179593 0)
(-0.0857824 0.167837 0)
(-0.0874994 0.155989 0)
(-0.0892812 0.144022 0)
(-0.0911122 0.131889 0)
(3.19077e-06 0.0133799 0)
(-5.65419e-05 0.0362948 0)
(-0.000270066 0.0557437 0)
(-0.000672486 0.0720878 0)
(-0.0012864 0.0856906 0)
(-0.00212056 0.0969216 0)
(-0.00317095 0.106149 0)
(-0.00442477 0.113733 0)
(-0.005864 0.120014 0)
(-0.00746824 0.125313 0)
(-0.00921695 0.129923 0)
(-0.0110909 0.134111 0)
(-0.0130731 0.138119 0)
(-0.0151488 0.142166 0)
(-0.017306 0.146448 0)
(-0.019534 0.151139 0)
(-0.0218235 0.156391 0)
(-0.0241655 0.162325 0)
(-0.0265508 0.16903 0)
(-0.0289689 0.176552 0)
(-0.0314082 0.184887 0)
(-0.0338554 0.193974 0)
(-0.0362953 0.203692 0)
(-0.0387116 0.213854 0)
(-0.0410865 0.22422 0)
(-0.0434019 0.234499 0)
(-0.0456397 0.244368 0)
(-0.0477831 0.253487 0)
(-0.0498174 0.261526 0)
(-0.0517312 0.268177 0)
(-0.0535172 0.273183 0)
(-0.0551733 0.276348 0)
(-0.0567029 0.277552 0)
(-0.0581154 0.276758 0)
(-0.059426 0.274009 0)
(-0.0606548 0.269424 0)
(-0.0618256 0.263183 0)
(-0.0629645 0.255512 0)
(-0.0640978 0.24666 0)
(-0.0652505 0.236882 0)
(-0.0664444 0.226415 0)
(-0.0676972 0.215467 0)
(-0.0690222 0.204205 0)
(-0.0704269 0.192746 0)
(-0.0719129 0.181162 0)
(-0.073476 0.169482 0)
(-0.0751073 0.157699 0)
(-0.076796 0.145785 0)
(-0.0785277 0.133691 0)
(1.13294e-05 0.0133908 0)
(-4.25419e-06 0.0364005 0)
(-0.000128924 0.0560002 0)
(-0.000414319 0.0725324 0)
(-0.000891597 0.0863429 0)
(-0.00157521 0.0977866 0)
(-0.00246572 0.107221 0)
(-0.00355348 0.114996 0)
(-0.00482221 0.121451 0)
(-0.00625207 0.126903 0)
(-0.00782199 0.131645 0)
(-0.0095114 0.135947 0)
(-0.0113012 0.140052 0)
(-0.0131741 0.14418 0)
(-0.0151147 0.148531 0)
(-0.0171091 0.153279 0)
(-0.0191443 0.158576 0)
(-0.0212075 0.164545 0)
(-0.0232859 0.171273 0)
(-0.025366 0.178806 0)
(-0.0274339 0.187138 0)
(-0.0294747 0.196208 0)
(-0.0314735 0.205892 0)
(-0.0334155 0.216005 0)
(-0.0352864 0.226306 0)
(-0.0370734 0.236505 0)
(-0.0387655 0.24628 0)
(-0.0403544 0.255295 0)
(-0.0418349 0.26322 0)
(-0.0432058 0.269755 0)
(-0.0444697 0.274645 0)
(-0.0456338 0.2777 0)
(-0.0467095 0.278804 0)
(-0.0477124 0.277925 0)
(-0.0486614 0.275111 0)
(-0.049578 0.270482 0)
(-0.0504848 0.264221 0)
(-0.0514041 0.256553 0)
(-0.0523567 0.247727 0)
(-0.0533606 0.237993 0)
(-0.0544299 0.227587 0)
(-0.0555745 0.216711 0)
(-0.0568011 0.205528 0)
(-0.0581106 0.194151 0)
(1.92573e-05 0.0133746 0)
(4.68634e-05 0.0364366 0)
(9.70555e-06 0.0561545 0)
(-0.000159484 0.0728504 0)
(-0.000500075 0.0868511 0)
(-0.00103211 0.0984954 0)
(-0.00176074 0.108127 0)
(-0.00267954 0.116089 0)
(-0.00377409 0.122713 0)
(-0.00502521 0.128314 0)
(-0.0064115 0.133183 0)
(-0.00791113 0.137591 0)
(-0.00950302 0.141783 0)
(-0.0111674 0.145981 0)
(-0.0128857 0.150385 0)
(-0.0146408 0.155171 0)
(-0.016416 0.160492 0)
(-0.0181951 0.166469 0)
(-0.0199617 0.173191 0)
(-0.0216995 0.180702 0)
(-0.0233923 0.188998 0)
(-0.0250241 0.198016 0)
(-0.0265802 0.207633 0)
(-0.0280474 0.217666 0)
(-0.029415 0.227876 0)
(-0.0306754 0.237974 0)
(-0.0318246 0.247643 0)
(-0.0328625 0.25655 0)
(-0.0337934 0.264369 0)
(-0.0346258 0.270804 0)
(-0.0353719 0.275603 0)
(-0.0360477 0.278581 0)
(-0.0366723 0.279627 0)
(-0.0372669 0.278709 0)
(-0.0378537 0.275876 0)
(-0.0384552 0.271251 0)
(-0.0390925 0.265014 0)
(-0.0397841 0.25739 0)
(-0.0405452 0.248624 0)
(-0.0413871 0.238962 0)
(-0.0423163 0.228635 0)
(-0.0433355 0.217843 0)
(-0.0444444 0.206744 0)
(-0.0456382 0.195447 0)
(2.68089e-05 0.0133322 0)
(9.62808e-05 0.0364047 0)
(0.000144662 0.0562079 0)
(8.98256e-05 0.0730425 0)
(-0.000115175 0.0872153 0)
(-0.000495731 0.099047 0)
(-0.00106168 0.108868 0)
(-0.00180977 0.11701 0)
(-0.00272758 0.123797 0)
(-0.00379678 0.129541 0)
(-0.00499573 0.134532 0)
(-0.00630153 0.139039 0)
(-0.00769128 0.143309 0)
(-0.00914274 0.147564 0)
(-0.0106346 0.152006 0)
(-0.0121463 0.156811 0)
(-0.0136579 0.162133 0)
(-0.0151496 0.168093 0)
(-0.016602 0.17478 0)
(-0.0179959 0.182239 0)
(-0.019313 0.190465 0)
(-0.0205362 0.199397 0)
(-0.021651 0.208916 0)
(-0.022646 0.218839 0)
(-0.0235138 0.228932 0)
(-0.0242519 0.23891 0)
(-0.0248628 0.248461 0)
(-0.0253548 0.257256 0)
(-0.0257408 0.264976 0)
(-0.0260387 0.271326 0)
(-0.02627 0.27606 0)
(-0.0264593 0.278994 0)
(-0.0266326 0.28002 0)
(-0.0268165 0.279106 0)
(-0.0270365 0.2763 0)
(-0.0273157 0.271724 0)
(-0.0276737 0.265555 0)
(-0.0281256 0.258012 0)
(-0.0286811 0.249337 0)
(-0.029345 0.239771 0)
(-0.0301169 0.229542 0)
(-0.0309924 0.218844 0)
(-0.0319644 0.207833 0)
(-0.0330226 0.196616 0)
(3.39201e-05 0.0132646 0)
(0.000143482 0.0363068 0)
(0.000274604 0.0561628 0)
(0.000331511 0.0731108 0)
(0.000259886 0.0874365 0)
(2.9302e-05 0.0994417 0)
(-0.000374346 0.109441 0)
(-0.000951195 0.117755 0)
(-0.00169093 0.124701 0)
(-0.00257618 0.130582 0)
(-0.00358529 0.135689 0)
(-0.00469444 0.140288 0)
(-0.00587907 0.144626 0)
(-0.00711471 0.148926 0)
(-0.00837731 0.15339 0)
(-0.00964329 0.158197 0)
(-0.0108894 0.163497 0)
(-0.0120928 0.169416 0)
(-0.0132309 0.17604 0)
(-0.0142818 0.183416 0)
(-0.0152252 0.19154 0)
(-0.0160431 0.200355 0)
(-0.016721 0.209744 0)
(-0.0172492 0.219528 0)
(-0.0176234 0.229479 0)
(-0.0178458 0.239319 0)
(-0.0179252 0.24874 0)
(-0.0178774 0.25742 0)
(-0.0177238 0.265045 0)
(-0.0174911 0.271325 0)
(-0.0172098 0.276017 0)
(-0.0169122 0.278938 0)
(-0.0166315 0.27998 0)
(-0.0163992 0.279111 0)
(-0.016244 0.276376 0)
(-0.0161899 0.271892 0)
(-0.0162554 0.26583 0)
(-0.016452 0.258404 0)
(-0.0167848 0.24985 0)
(-0.0172526 0.240404 0)
(-0.0178485 0.230288 0)
(-0.0185614 0.219695 0)
(-0.0193781 0.208777 0)
(-0.0202832 0.197638 0)
(4.05351e-05 0.0131731 0)
(0.000188071 0.0361457 0)
(0.000398394 0.0560224 0)
(0.000563259 0.0730584 0)
(0.00062168 0.0875172 0)
(0.000538492 0.0996809 0)
(0.000295409 0.109848 0)
(-0.000110977 0.118326 0)
(-0.000672556 0.125423 0)
(-0.0013731 0.131436 0)
(-0.00219108 0.136651 0)
(-0.003102 0.141334 0)
(-0.00407984 0.145731 0)
(-0.00509809 0.150064 0)
(-0.00613019 0.154536 0)
(-0.00714973 0.159326 0)
(-0.00813046 0.164585 0)
(-0.00904642 0.170437 0)
(-0.00987219 0.176972 0)
(-0.0105834 0.184236 0)
(-0.0111578 0.192228 0)
(-0.0115763 0.200895 0)
(-0.0118245 0.210123 0)
(-0.0118941 0.219741 0)
(-0.0117834 0.229526 0)
(-0.011499 0.239208 0)
(-0.0110554 0.248487 0)
(-0.0104753 0.257048 0)
(-0.00978817 0.264582 0)
(-0.00902877 0.270804 0)
(-0.00823593 0.275474 0)
(-0.00744993 0.27841 0)
(-0.00671024 0.279503 0)
(-0.00605359 0.278717 0)
(-0.00551187 0.276092 0)
(-0.00511037 0.271739 0)
(-0.00486656 0.265822 0)
(-0.00478953 0.258548 0)
(-0.00488015 0.250144 0)
(-0.00513187 0.240841 0)
(-0.00553202 0.230856 0)
(-0.00606349 0.220378 0)
(-0.00670728 0.209558 0)
(-0.00744375 0.1985 0)
(4.65935e-05 0.0130593 0)
(0.000229641 0.0359247 0)
(0.000514881 0.0557908 0)
(0.000782923 0.0728892 0)
(0.000966866 0.0874609 0)
(0.00102721 0.0997676 0)
(0.000941706 0.110091 0)
(0.000703687 0.118723 0)
(0.000318971 0.125963 0)
(-0.000197384 0.132101 0)
(-0.000824215 0.137419 0)
(-0.0015366 0.142178 0)
(-0.00230727 0.146623 0)
(-0.00310791 0.150978 0)
(-0.00390971 0.155444 0)
(-0.00468363 0.160199 0)
(-0.00540065 0.165396 0)
(-0.00603201 0.17116 0)
(-0.00654963 0.17758 0)
(-0.00692667 0.184704 0)
(-0.00713895 0.192535 0)
(-0.00716649 0.201024 0)
(-0.00699471 0.210062 0)
(-0.00661619 0.219487 0)
(-0.00603199 0.229082 0)
(-0.00525185 0.238587 0)
(-0.00429554 0.247711 0)
(-0.0031923 0.256147 0)
(-0.0019786 0.263591 0)
(-0.000696536 0.269765 0)
(0.000606913 0.274431 0)
(0.00188388 0.277407 0)
(0.00308897 0.27858 0)
(0.00418022 0.277911 0)
(0.00512225 0.275434 0)
(0.00588808 0.271249 0)
(0.00646041 0.265514 0)
(0.00683203 0.258424 0)
(0.00700536 0.250199 0)
(0.00699135 0.241062 0)
(0.0068077 0.231226 0)
(0.00647678 0.220875 0)
(0.00602266 0.21016 0)
(0.00546905 0.199186 0)
(5.20395e-05 0.0129248 0)
(0.000267798 0.0356476 0)
(0.000622953 0.0554729 0)
(0.000988422 0.0726085 0)
(0.0012922 0.0872725 0)
(0.00149091 0.0997058 0)
(0.0015586 0.110172 0)
(0.00148547 0.118949 0)
(0.00127509 0.126324 0)
(0.000941073 0.13258 0)
(0.000504026 0.137991 0)
(-1.07947e-05 0.142818 0)
(-0.000575171 0.147303 0)
(-0.00115929 0.151668 0)
(-0.00173235 0.156114 0)
(-0.00226298 0.160819 0)
(-0.00271953 0.165935 0)
(-0.00307073 0.171589 0)
(-0.00328632 0.177869 0)
(-0.00333674 0.184827 0)
(-0.00319591 0.19247 0)
(-0.00284313 0.200752 0)
(-0.00226332 0.209573 0)
(-0.00144967 0.218777 0)
(-0.000405882 0.228159 0)
(0.000856647 0.237468 0)
(0.00231382 0.246423 0)
(0.00392951 0.254725 0)
(0.00566171 0.262079 0)
(0.00746108 0.268212 0)
(0.00927383 0.272886 0)
(0.0110452 0.275922 0)
(0.0127231 0.277203 0)
(0.0142606 0.276682 0)
(0.0156185 0.274385 0)
(0.0167675 0.270404 0)
(0.0176899 0.264883 0)
(0.0183791 0.258009 0)
(0.0188401 0.249991 0)
(0.019087 0.241045 0)
(0.0191417 0.231377 0)
(0.019031 0.221169 0)
(0.0187834 0.210569 0)
(0.0184262 0.199685 0)
(5.68236e-05 0.0127715 0)
(0.000302173 0.0353187 0)
(0.000721548 0.0550745 0)
(0.00117774 0.0722226 0)
(0.00159448 0.086958 0)
(0.00192509 0.0995009 0)
(0.00214022 0.110096 0)
(0.00222712 0.119007 0)
(0.00218709 0.126508 0)
(0.00203222 0.132873 0)
(0.00178237 0.138371 0)
(0.00146287 0.143258 0)
(0.00110261 0.147773 0)
(0.000732667 0.152137 0)
(0.000385475 0.156549 0)
(9.44192e-05 0.161188 0)
(-0.000106306 0.166206 0)
(-0.000183083 0.171729 0)
(-0.000104876 0.177848 0)
(0.000161889 0.184616 0)
(0.00064539 0.192045 0)
(0.00136563 0.200093 0)
(0.00233912 0.208669 0)
(0.00357249 0.217628 0)
(0.00506127 0.226773 0)
(0.00679067 0.235865 0)
(0.00873318 0.244634 0)
(0.010849 0.252792 0)
(0.0130902 0.260053 0)
(0.0154009 0.266146 0)
(0.017721 0.27084 0)
(0.0199895 0.273952 0)
(0.0221478 0.275361 0)
(0.0241439 0.275014 0)
(0.0259343 0.272928 0)
(0.0274869 0.269181 0)
(0.0287822 0.263907 0)
(0.0298139 0.257279 0)
(0.0305878 0.249497 0)
(0.0311205 0.240767 0)
(0.0314368 0.231288 0)
(0.0315669 0.221239 0)
(0.0315432 0.210768 0)
(0.0313964 0.199986 0)
(6.09017e-05 0.0126016 0)
(0.000332422 0.0349431 0)
(0.000809655 0.0546022 0)
(0.00134891 0.0717386 0)
(0.00187063 0.0865248 0)
(0.00232536 0.0991597 0)
(0.00268079 0.10987 0)
(0.00292143 0.118902 0)
(0.00304636 0.126519 0)
(0.00306605 0.132985 0)
(0.00299949 0.138561 0)
(0.00287177 0.143499 0)
(0.00271219 0.148035 0)
(0.00255279 0.152387 0)
(0.00242743 0.156754 0)
(0.00237126 0.161312 0)
(0.00242014 0.166216 0)
(0.00260965 0.171589 0)
(0.00297435 0.177524 0)
(0.00354773 0.184081 0)
(0.00435952 0.191271 0)
(0.00543293 0.199061 0)
(0.0067842 0.207367 0)
(0.00842016 0.216055 0)
(0.010336 0.224939 0)
(0.0125148 0.233794 0)
(0.0149262 0.24236 0)
(0.0175276 0.250362 0)
(0.0202661 0.25752 0)
(0.0230804 0.263574 0)
(0.0259048 0.268291 0)
(0.028672 0.27149 0)
(0.0313179 0.273044 0)
(0.0337847 0.272893 0)
(0.0360245 0.271043 0)
(0.0380015 0.267558 0)
(0.039694 0.26256 0)
(0.0410941 0.256209 0)
(0.0422078 0.248691 0)
(0.0430526 0.240203 0)
(0.0436551 0.230937 0)
(0.0440482 0.221068 0)
(0.0442671 0.210743 0)
(0.0443454 0.200076 0)
(6.42347e-05 0.0124173 0)
(0.000358224 0.0345262 0)
(0.000886314 0.0540633 0)
(0.00150008 0.0711649 0)
(0.00211761 0.0859812 0)
(0.00268739 0.0986905 0)
(0.0031746 0.1095 0)
(0.00356127 0.118642 0)
(0.00384433 0.126363 0)
(0.00403264 0.13292 0)
(0.00414411 0.138566 0)
(0.00420339 0.143546 0)
(0.0042399 0.148093 0)
(0.00428633 0.152423 0)
(0.00437762 0.156732 0)
(0.00455028 0.161197 0)
(0.00484167 0.16597 0)
(0.00528918 0.171177 0)
(0.00592951 0.176911 0)
(0.00679741 0.183234 0)
(0.00792396 0.190162 0)
(0.00933428 0.19767 0)
(0.0110456 0.205683 0)
(0.0130651 0.214076 0)
(0.0153881 0.222677 0)
(0.0179965 0.231272 0)
(0.0208584 0.239617 0)
(0.0239286 0.247447 0)
(0.0271506 0.254493 0)
(0.0304587 0.260501 0)
(0.0337821 0.265242 0)
(0.0370481 0.268533 0)
(0.040187 0.270244 0)
(0.0431357 0.270305 0)
(0.0458412 0.268711 0)
(0.0482635 0.265513 0)
(0.0503774 0.260818 0)
(0.0521728 0.25477 0)
(0.0536542 0.247545 0)
(0.0548388 0.239326 0)
(0.055754 0.230299 0)
(0.0564339 0.220633 0)
(0.0569158 0.210475 0)
(0.0572358 0.199942 0)
(6.67874e-05 0.012221 0)
(0.000379278 0.0340738 0)
(0.000950612 0.0534659 0)
(0.00162942 0.0705108 0)
(0.00233252 0.0853372 0)
(0.00300698 0.0981025 0)
(0.00361604 0.108996 0)
(0.00413958 0.118233 0)
(0.00457254 0.126048 0)
(0.00492212 0.132686 0)
(0.00520506 0.138391 0)
(0.00544532 0.143404 0)
(0.00567218 0.147953 0)
(0.00591863 0.15225 0)
(0.00622035 0.156491 0)
(0.00661485 0.16085 0)
(0.0071407 0.165479 0)
(0.00783677 0.170503 0)
(0.00874127 0.176019 0)
(0.00989041 0.182089 0)
(0.0113167 0.188736 0)
(0.0130467 0.195941 0)
(0.0150989 0.203637 0)
(0.0174815 0.211712 0)
(0.02019 0.220006 0)
(0.0232064 0.228321 0)
(0.0264979 0.236424 0)
(0.0300178 0.244064 0)
(0.0337069 0.250984 0)
(0.0374963 0.256935 0)
(0.0413109 0.261695 0)
(0.0450734 0.265079 0)
(0.0487087 0.266952 0)
(0.0521484 0.267237 0)
(0.0553344 0.265914 0)
(0.0582218 0.263023 0)
(0.060781 0.258654 0)
(0.0629985 0.252937 0)
(0.0648761 0.24603 0)
(0.0664294 0.238109 0)
(0.0676852 0.229348 0)
(0.0686777 0.219911 0)
(0.0694454 0.209945 0)
(0.0700261 0.199568 0)
(6.85274e-05 0.0120153 0)
(0.000395297 0.0335922 0)
(0.00100167 0.052819 0)
(0.00173519 0.0697868 0)
(0.00251249 0.0846034 0)
(0.00328 0.0974067 0)
(0.0039996 0.108367 0)
(0.00464942 0.117685 0)
(0.0052226 0.125581 0)
(0.00572474 0.132288 0)
(0.00617127 0.138043 0)
(0.0065853 0.14308 0)
(0.00699565 0.147621 0)
(0.00743532 0.151876 0)
(0.00794033 0.156037 0)
(0.00854884 0.160279 0)
(0.00930029 0.16475 0)
(0.0102346 0.169578 0)
(0.0113913 0.17486 0)
(0.0128076 0.18066 0)
(0.0145176 0.187008 0)
(0.0165491 0.19389 0)
(0.0189221 0.201249 0)
(0.0216458 0.208985 0)
(0.0247168 0.216951 0)
(0.0281177 0.224962 0)
(0.0318158 0.232802 0)
(0.0357638 0.240233 0)
(0.039901 0.247009 0)
(0.0441562 0.25289 0)
(0.0484512 0.257658 0)
(0.0527045 0.261129 0)
(0.0568366 0.263164 0)
(0.0607737 0.263677 0)
(0.0644524 0.262636 0)
(0.0678226 0.260068 0)
(0.0708495 0.256044 0)
(0.0735151 0.25068 0)
(0.0758174 0.244119 0)
(0.077769 0.236523 0)
(0.0793946 0.228056 0)
(0.0807275 0.218878 0)
(0.0818062 0.209131 0)
(0.0826694 0.198935 0)
(6.94236e-05 0.0118028 0)
(0.000406002 0.0330882 0)
(0.00103862 0.052132 0)
(0.00181567 0.0690041 0)
(0.00265471 0.0837922 0)
(0.00350239 0.0966153 0)
(0.00431984 0.107627 0)
(0.00508391 0.11701 0)
(0.00578624 0.124973 0)
(0.00643084 0.131737 0)
(0.00703182 0.137531 0)
(0.00761122 0.142581 0)
(0.00819717 0.147104 0)
(0.00882232 0.151307 0)
(0.00952268 0.155379 0)
(0.0103367 0.159492 0)
(0.0113042 0.163795 0)
(0.012466 0.168414 0)
(0.0138622 0.173448 0)
(0.0155314 0.178964 0)
(0.0175084 0.184996 0)
(0.0198226 0.191538 0)
(0.0224953 0.198542 0)
(0.0255372 0.205917 0)
(0.0289465 0.213534 0)
(0.0327069 0.22122 0)
(0.0367865 0.228775 0)
(0.0411385 0.235975 0)
(0.0457019 0.242586 0)
(0.0504043 0.248379 0)
(0.0551651 0.253141 0)
(0.0599 0.256688 0)
(0.0645252 0.258878 0)
(0.0689624 0.259618 0)
(0.0731426 0.258864 0)
(0.0770102 0.256627 0)
(0.0805248 0.252964 0)
(0.0836628 0.247973 0)
(0.0864173 0.241781 0)
(0.0887966 0.234537 0)
(0.090822 0.226395 0)
(0.0925248 0.217506 0)
(0.0939421 0.208008 0)
(0.0951126 0.198024 0)
(6.9443e-05 0.0115865 0)
(0.000411109 0.032569 0)
(0.00106059 0.0514154 0)
(0.00186914 0.068175 0)
(0.0027564 0.0829166 0)
(0.00367008 0.0957416 0)
(0.00457133 0.106786 0)
(0.00543624 0.116219 0)
(0.0062552 0.124235 0)
(0.00703084 0.131043 0)
(0.00777589 0.136864 0)
(0.00851116 0.141915 0)
(0.00926383 0.14641 0)
(0.0100659 0.150551 0)
(0.010953 0.154524 0)
(0.0119633 0.158499 0)
(0.013137 0.162623 0)
(0.014515 0.167022 0)
(0.016138 0.171796 0)
(0.0180452 0.177016 0)
(0.0202725 0.182719 0)
(0.0228503 0.188905 0)
(0.0258013 0.195536 0)
(0.0291379 0.202534 0)
(0.0328601 0.209781 0)
(0.0369535 0.21712 0)
(0.0413879 0.224368 0)
(0.0461176 0.231313 0)
(0.0510825 0.237738 0)
(0.0562098 0.243421 0)
(0.0614182 0.248157 0)
(0.0666209 0.251764 0)
(0.0717312 0.254097 0)
(0.0766664 0.255056 0)
(0.0813526 0.254587 0)
(0.0857282 0.252685 0)
(0.0897467 0.249393 0)
(0.0933785 0.24479 0)
(0.0966106 0.23899 0)
(0.099446 0.232123 0)
(0.101901 0.224334 0)
(0.104004 0.215764 0)
(0.10579 0.206549 0)
(0.107295 0.196808 0)
(6.85483e-05 0.0113692 0)
(0.000410315 0.0320423 0)
(0.00106669 0.0506802 0)
(0.00189382 0.0673127 0)
(0.00281468 0.0819913 0)
(0.00377896 0.0948004 0)
(0.00474861 0.105861 0)
(0.00569952 0.115326 0)
(0.00662126 0.123379 0)
(0.00751521 0.130217 0)
(0.00839273 0.136051 0)
(0.00927331 0.141093 0)
(0.0101829 0.14555 0)
(0.0111526 0.149618 0)
(0.0122172 0.153483 0)
(0.0134144 0.157309 0)
(0.0147841 0.161244 0)
(0.0163669 0.165415 0)
(0.0182039 0.169919 0)
(0.0203344 0.174832 0)
(0.0227951 0.180193 0)
(0.0256173 0.186011 0)
(0.0288251 0.192255 0)
(0.0324326 0.198859 0)
(0.0364419 0.205718 0)
(0.0408408 0.212691 0)
(0.0456016 0.219608 0)
(0.0506808 0.226276 0)
(0.0560195 0.232489 0)
(0.0615462 0.238038 0)
(0.0671795 0.242723 0)
(0.0728318 0.246369 0)
(0.078414 0.248827 0)
(0.0838399 0.249992 0)
(0.0890309 0.249799 0)
(0.0939199 0.248232 0)
(0.098454 0.245314 0)
(0.102597 0.241111 0)
(0.106329 0.235718 0)
(0.109647 0.229251 0)
(0.112561 0.221842 0)
(0.115095 0.213623 0)
(0.117279 0.204723 0)
(0.119149 0.19526 0)
(6.67035e-05 0.0111543 0)
(0.000403305 0.0315162 0)
(0.00105595 0.0499381 0)
(0.00188784 0.0664315 0)
(0.00282654 0.0810317 0)
(0.00382473 0.0938079 0)
(0.00484599 0.104866 0)
(0.0058667 0.114347 0)
(0.00687599 0.122419 0)
(0.00787426 0.129272 0)
(0.00887154 0.135106 0)
(0.00988589 0.140126 0)
(0.0109419 0.144532 0)
(0.0120692 0.148518 0)
(0.0133016 0.152264 0)
(0.0146759 0.155933 0)
(0.0162312 0.159671 0)
(0.0180077 0.163604 0)
(0.0200459 0.167831 0)
(0.0223855 0.172427 0)
(0.0250631 0.177437 0)
(0.028111 0.182876 0)
(0.0315543 0.188722 0)
(0.0354088 0.194918 0)
(0.039679 0.201372 0)
(0.0443556 0.20796 0)
(0.0494138 0.214526 0)
(0.0548126 0.220894 0)
(0.0604957 0.22687 0)
(0.0663932 0.232258 0)
(0.0724252 0.236867 0)
(0.0785043 0.240525 0)
(0.08454 0.243085 0)
(0.0904435 0.244436 0)
(0.0961321 0.244505 0)
(0.101534 0.243261 0)
(0.106589 0.240716 0)
(0.111254 0.236917 0)
(0.115504 0.231943 0)
(0.119326 0.225895 0)
(0.122725 0.21889 0)
(0.125719 0.211051 0)
(0.128332 0.202499 0)
(0.130598 0.193349 0)
(6.38865e-05 0.0109448 0)
(0.000389791 0.0309992 0)
(0.00102743 0.0492016 0)
(0.00184926 0.0655466 0)
(0.00278883 0.0800547 0)