/*--------------------------------*- C++ -*----------------------------------*\
  =========                 |
  \\      /  F ield         | OpenFOAM: The Open Source CFD Toolbox
   \\    /   O peration     | Website:  https://openfoam.org
    \\  /    A nd           | Version:  9
     \\/     M anipulation  |
\*---------------------------------------------------------------------------*/
FoamFile
{
    format      ascii;
    class       surfaceScalarField;
    location    "3.25";
    object      phi;
}
// * * * * * * * * * * * * * * * * * * * * * * * * * * * * * * * * * * * * * //

dimensions      [0 3 -1 0 0 0 0];

internalField   nonuniform List<scalar> 
2445
(
-4.0206e-07
-1.85443e-06
-4.21701e-07
-1.96581e-06
-4.41337e-07
-2.07731e-06
-4.60916e-07
-2.18878e-06
-4.80418e-07
-2.30011e-06
-4.9987e-07
-2.41125e-06
-5.19374e-07
-2.52232e-06
-5.39139e-07
-2.6337e-06
-5.59513e-07
-2.74617e-06
-5.81015e-07
-2.86111e-06
-6.04351e-07
-2.98073e-06
-6.30397e-07
-3.10823e-06
-6.6012e-07
-3.24795e-06
-6.94415e-07
-3.40531e-06
-7.33821e-07
-3.58639e-06
-7.78113e-07
-3.797e-06
-8.25793e-07
-4.04103e-06
-8.73554e-07
-4.31798e-06
-9.15878e-07
-4.61981e-06
-9.44981e-07
-4.92751e-06
-9.51384e-07
-5.20821e-06
-9.2536e-07
-5.41444e-06
-8.59352e-07
-5.48733e-06
-7.51051e-07
-5.36565e-06
-6.0622e-07
-5.00143e-06
-4.39745e-07
-4.37893e-06
-2.73579e-07
-3.52881e-06
-1.31854e-07
-2.52677e-06
-3.56005e-08
-1.47261e-06
-4.58712e-07
-3.15174e-07
-1.83351e-06
-3.3625e-07
-1.94473e-06
-3.57413e-07
-2.05614e-06
-3.78603e-07
-2.16759e-06
-3.99784e-07
-2.27893e-06
-4.2096e-07
-2.39008e-06
-4.42197e-07
-2.50109e-06
-4.63655e-07
-2.61224e-06
-4.85622e-07
-2.7242e-06
-5.08545e-07
-2.83819e-06
-5.33058e-07
-2.95622e-06
-5.59979e-07
-3.08131e-06
-5.90255e-07
-3.21767e-06
-6.24824e-07
-3.37074e-06
-6.64374e-07
-3.54684e-06
-7.08952e-07
-3.75242e-06
-7.57468e-07
-3.99251e-06
-8.07133e-07
-4.26831e-06
-8.52975e-07
-4.57397e-06
-8.87658e-07
-4.89282e-06
-9.0188e-07
-5.19398e-06
-8.85644e-07
-5.43068e-06
-8.3057e-07
-5.5424e-06
-7.3304e-07
-5.46318e-06
-5.97338e-07
-5.13714e-06
-4.37207e-07
-4.53906e-06
-2.74265e-07
-3.69175e-06
-1.33214e-07
-2.66782e-06
-3.62684e-08
-1.56956e-06
-4.94981e-07
-2.27778e-07
-1.81122e-06
-2.50323e-07
-1.92219e-06
-2.73053e-07
-2.03341e-06
-2.95907e-07
-2.14474e-06
-3.18836e-07
-2.256e-06
-3.41826e-07
-2.36709e-06
-3.64914e-07
-2.478e-06
-3.88218e-07
-2.58894e-06
-4.11969e-07
-2.70045e-06
-4.36547e-07
-2.81361e-06
-4.62515e-07
-2.93025e-06
-4.90621e-07
-3.0532e-06
-5.21774e-07
-3.18652e-06
-5.56928e-07
-3.33558e-06
-5.96875e-07
-3.50689e-06
-6.41888e-07
-3.70741e-06
-6.91236e-07
-3.94316e-06
-7.42612e-07
-4.21694e-06
-7.91584e-07
-4.525e-06
-8.31295e-07
-4.85311e-06
-8.52691e-07
-5.17259e-06
-8.45614e-07
-5.43776e-06
-8.00977e-07
-5.58704e-06
-7.13944e-07
-5.55021e-06
-5.87341e-07
-5.26374e-06
-4.33728e-07
-4.69267e-06
-2.74298e-07
-3.85118e-06
-1.3423e-07
-2.80789e-06
-3.68355e-08
-1.66695e-06
-5.31816e-07
-1.39825e-07
-1.78754e-06
-1.63869e-07
-1.89814e-06
-1.88207e-07
-2.00908e-06
-2.12774e-07
-2.12017e-06
-2.37515e-07
-2.23126e-06
-2.62402e-07
-2.3422e-06
-2.87447e-07
-2.45295e-06
-3.12733e-07
-2.56365e-06
-3.38441e-07
-2.67474e-06
-3.6489e-07
-2.78716e-06
-3.92566e-07
-2.90257e-06
-4.22149e-07
-3.02362e-06
-4.54493e-07
-3.15418e-06
-4.90544e-07
-3.29953e-06
-5.31161e-07
-3.46627e-06
-5.76798e-07
-3.66177e-06
-6.27037e-07
-3.89292e-06
-6.80012e-07
-4.16396e-06
-7.31817e-07
-4.47319e-06
-7.76092e-07
-4.80884e-06
-8.04094e-07
-5.14459e-06
-8.05595e-07
-5.43625e-06
-7.70915e-07
-5.62172e-06
-6.94084e-07
-5.62704e-06
-5.76502e-07
-5.38132e-06
-4.29506e-07
-4.83967e-06
-2.73795e-07
-4.00689e-06
-1.34952e-07
-2.94673e-06
-3.73122e-08
-1.76459e-06
-5.69129e-07
-5.12596e-08
-1.76244e-06
-7.68349e-08
-1.87257e-06
-1.02819e-07
-1.98309e-06
-1.29147e-07
-2.09384e-06
-1.55761e-07
-2.20464e-06
-1.82621e-07
-2.31534e-06
-2.09722e-07
-2.42585e-06
-2.37115e-07
-2.53626e-06
-2.64938e-07
-2.64692e-06
-2.9345e-07
-2.75865e-06
-3.2307e-07
-2.87295e-06
-3.54403e-07
-2.99229e-06
-3.88239e-07
-3.12034e-06
-4.25495e-07
-3.26228e-06
-4.67068e-07
-3.4247e-06
-5.13547e-07
-3.61529e-06
-5.64784e-07
-3.84169e-06
-6.19317e-07
-4.10943e-06
-6.73738e-07
-4.41877e-06
-7.22196e-07
-4.76038e-06
-7.56308e-07
-5.11047e-06
-7.65862e-07
-5.4267e-06
-7.40683e-07
-5.6469e-06
-6.73752e-07
-5.69397e-06
-5.65077e-07
-5.48999e-06
-4.24738e-07
-4.98001e-06
-2.7288e-07
-4.15875e-06
-1.35435e-07
-3.08417e-06
-3.77109e-08
-1.86232e-06
-6.06839e-07
3.79803e-08
-1.73589e-06
1.08412e-08
-1.84543e-06
-1.68287e-08
-1.95542e-06
-4.49663e-08
-2.06571e-06
-7.3512e-08
-2.1761e-06
-1.02419e-07
-2.28643e-06
-1.31667e-07
-2.3966e-06
-1.61282e-07
-2.50664e-06
-1.91363e-07
-2.61684e-06
-2.22119e-07
-2.72789e-06
-2.539e-07
-2.84117e-06
-2.87238e-07
-2.95895e-06
-3.22851e-07
-3.08473e-06
-3.61614e-07
-3.22351e-06
-4.0443e-07
-3.38189e-06
-4.51992e-07
-3.56773e-06
-5.04374e-07
-3.7893e-06
-5.60476e-07
-4.05333e-06
-6.17367e-07
-4.36188e-06
-6.69703e-07
-4.70804e-06
-7.09499e-07
-5.07068e-06
-7.26636e-07
-5.40956e-06
-7.10535e-07
-5.663e-06
-6.53211e-07
-5.7513e-06
-5.53304e-07
-5.5899e-06
-4.19615e-07
-5.1137e-06
-2.71678e-07
-4.30669e-06
-1.3574e-07
-3.22011e-06
-3.80465e-08
-1.96001e-06
-6.44886e-07
1.27964e-07
-1.70787e-06
9.92256e-08
-1.81669e-06
6.98293e-08
-1.92603e-06
3.98341e-08
-2.03571e-06
9.29901e-09
-2.14556e-06
-2.1726e-08
-2.25541e-06
-5.32087e-08
-2.36512e-06
-8.51544e-08
-2.4747e-06
-1.17629e-07
-2.58436e-06
-1.50793e-07
-2.69473e-06
-1.84937e-07
-2.80703e-06
-2.20517e-07
-2.92337e-06
-2.5818e-07
-3.04707e-06
-2.98739e-07
-3.18295e-06
-3.43087e-07
-3.33754e-06
-3.91984e-07
-3.51883e-06
-4.45688e-07
-3.7356e-06
-5.03419e-07
-3.9956e-06
-5.62691e-07
-4.30261e-06
-6.18667e-07
-4.65207e-06
-6.63788e-07
-5.02556e-06
-6.88091e-07
-5.38526e-06
-6.80684e-07
-5.67041e-06
-6.32687e-07
-5.7993e-06
-5.41403e-07
-5.68119e-06
-4.14323e-07
-5.24078e-06
-2.70319e-07
-4.45069e-06
-1.35932e-07
-3.3545e-06
-3.83355e-08
-2.05761e-06
-6.83221e-07
2.18766e-07
-1.67834e-06
1.88393e-07
-1.78632e-06
1.57227e-07
-1.89486e-06
1.25324e-07
-2.00381e-06
9.27389e-08
-2.11298e-06
5.95259e-08
-2.2222e-06
2.57243e-08
-2.33132e-06
-8.65456e-09
-2.44032e-06
-4.36501e-08
-2.54937e-06
-7.93784e-08
-2.659e-06
-1.16072e-07
-2.77033e-06
-1.54117e-07
-2.88532e-06
-1.94083e-07
-3.0071e-06
-2.36718e-07
-3.14032e-06
-2.82882e-07
-3.29137e-06
-3.33373e-07
-3.46834e-06
-3.88597e-07
-3.68038e-06
-4.48052e-07
-3.93614e-06
-5.09669e-07
-4.24099e-06
-5.69105e-07
-4.59263e-06
-6.19251e-07
-4.97541e-06
-6.5036e-07
-5.35415e-06
-6.51303e-07
-5.66946e-06
-6.12375e-07
-5.83822e-06
-5.29573e-07
-5.76399e-06
-4.09038e-07
-5.36131e-06
-2.68931e-07
-4.5908e-06
-1.36077e-07
-3.48735e-06
-3.85962e-08
-2.15509e-06
-7.21818e-07
3.10468e-07
-1.64727e-06
2.78422e-07
-1.75427e-06
2.45443e-07
-1.86188e-06
2.11579e-07
-1.96994e-06
1.76884e-07
-2.07828e-06
1.41411e-07
-2.18672e-06
1.05205e-07
-2.29511e-06
6.82911e-08
-2.4034e-06
3.06556e-08
-2.51173e-06
-7.7816e-09
-2.62056e-06
-4.72012e-08
-2.73091e-06
-8.79202e-08
-2.8446e-06
-1.3043e-07
-2.96459e-06
-1.75406e-07
-3.09534e-06
-2.23663e-07
-3.24312e-06
-2.7601e-07
-3.41599e-06
-3.32964e-07
-3.62342e-06
-3.94268e-07
-3.87484e-06
-4.58235e-07
-4.17703e-06
-5.21002e-07
-4.52986e-06
-5.75929e-07
-4.92049e-06
-6.13534e-07
-5.31655e-06
-6.22524e-07
-5.66047e-06
-5.9244e-07
-5.86831e-06
-5.17989e-07
-5.83844e-06
-4.03926e-07
-5.47538e-06
-2.67642e-07
-4.72708e-06
-1.36247e-07
-3.61875e-06
-3.88486e-08
-2.25249e-06
-7.60666e-07
4.03156e-07
-1.61463e-06
3.69397e-07
-1.72051e-06
3.34556e-07
-1.82704e-06
2.98677e-07
-1.93406e-06
2.6181e-07
-2.04142e-06
2.24004e-07
-2.14892e-06
1.8531e-07
-2.25642e-06
1.45763e-07
-2.36386e-06
1.05369e-07
-2.47134e-06
6.40818e-08
-2.57928e-06
2.17717e-08
-2.6886e-06
-2.18164e-08
-2.80101e-06
-6.70971e-08
-2.91931e-06
-1.14667e-07
-3.04777e-06
-1.65283e-07
-3.1925e-06
-2.19745e-07
-3.36153e-06
-2.7865e-07
-3.56452e-06
-3.41949e-07
-3.81154e-06
-4.08303e-07
-4.11067e-06
-4.74318e-07
-4.46385e-06
-5.33829e-07
-4.86097e-06
-5.77666e-07
-5.27271e-06
-5.94444e-07
-5.6437e-06
-5.73011e-07
-5.88974e-06
-5.06804e-07
-5.90465e-06
-3.99142e-07
-5.58304e-06
-2.66579e-07
-4.85965e-06
-1.36514e-07
-3.74881e-06
-3.91142e-08
-2.34989e-06
-7.99781e-07
4.9692e-07
-1.58038e-06
4.61404e-07
-1.685e-06
4.24652e-07
-1.79029e-06
3.86702e-07
-1.89611e-06
3.47596e-07
-2.00231e-06
3.07383e-07
-2.1087e-06
2.66115e-07
-2.21515e-06
2.23836e-07
-2.32158e-06
1.8057e-07
-2.42807e-06
1.363e-07
-2.53501e-06
9.09408e-08
-2.64325e-06
4.42992e-08
-2.75437e-06
-3.96512e-09
-2.87105e-06
-5.43687e-08
-2.99737e-06
-1.07599e-07
-3.13927e-06
-1.6443e-07
-3.3047e-06
-2.2551e-07
-3.50344e-06
-2.90964e-07
-3.74609e-06
-3.59772e-07
-4.04186e-06
-4.28984e-07
-4.39464e-06
-4.92925e-07
-4.79703e-06
-5.42776e-07
-5.22286e-06
-5.67124e-07
-5.61935e-06
-5.54188e-07
-5.90268e-06
-4.96145e-07
-5.96269e-06
-3.94827e-07
-5.68436e-06
-2.65866e-07
-4.98861e-06
-1.36953e-07
-3.87773e-06
-3.9416e-08
-2.44742e-06
-8.39196e-07
5.9185e-07
-1.54448e-06
5.54532e-07
-1.64768e-06
5.15817e-07
-1.75157e-06
4.75735e-07
-1.85603e-06
4.34323e-07
-1.9609e-06
3.91627e-07
-2.06601e-06
3.47698e-07
-2.17122e-06
3.02589e-07
-2.27647e-06
2.56338e-07
-2.38182e-06
2.08956e-07
-2.48763e-06
1.60398e-07
-2.59469e-06
1.10528e-07
-2.7045e-06
5.90795e-08
-2.8196e-06
5.61738e-09
-2.94391e-06
-5.04699e-08
-3.08318e-06
-1.09915e-07
-3.24526e-06
-1.73395e-07
-3.43996e-06
-2.41174e-07
-3.67831e-06
-3.12521e-07
-3.97052e-06
-3.84913e-07
-4.32225e-06
-4.53166e-07
-4.72878e-06
-5.08852e-07
-5.16717e-06
-5.40592e-07
-5.58761e-06
-5.36035e-07
-5.90723e-06
-4.86117e-07
-6.01261e-06
-3.91108e-07
-5.77936e-06
-2.65622e-07
-5.11409e-06
-1.37641e-07
-4.00571e-06
-3.97784e-08
-2.54528e-06
-8.78975e-07
6.88039e-07
-1.50689e-06
6.48871e-07
-1.60851e-06
6.08138e-07
-1.71084e-06
5.65861e-07
-1.81375e-06
5.22071e-07
-1.91711e-06
4.76813e-07
-2.02075e-06
4.30136e-07
-2.12455e-06
3.82098e-07
-2.22843e-06
3.32751e-07
-2.33247e-06
2.82131e-07
-2.43701e-06
2.30231e-07
-2.54279e-06
1.76969e-07
-2.65124e-06
1.22148e-07
-2.76478e-06
6.54162e-08
-2.88718e-06
6.24123e-09
-3.02401e-06
-5.60521e-08
-3.18296e-06
-1.22151e-07
-3.37386e-06
-1.92431e-07
-3.60803e-06
-2.66418e-07
-3.89653e-06
-3.41995e-07
-4.24667e-06
-4.14473e-07
-4.6563e-06
-4.75848e-07
-5.1058e-06
-5.1484e-07
-5.54862e-06
-5.18588e-07
-5.90348e-06
-4.76795e-07
-6.0544e-06
-3.88096e-07
-5.86806e-06
-2.65965e-07
-5.23622e-06
-1.38657e-07
-4.13302e-06
-4.02276e-08
-2.64371e-06
-9.19202e-07
7.85577e-07
-1.46757e-06
7.44508e-07
-1.56744e-06
7.01698e-07
-1.66803e-06
6.5716e-07
-1.76922e-06
6.10921e-07
-1.87087e-06
5.63019e-07
-1.97285e-06
5.13505e-07
-2.07503e-06
4.62439e-07
-2.17736e-06
4.09888e-07
-2.27992e-06
3.55908e-07
-2.38303e-06
3.00528e-07
-2.48741e-06
2.43719e-07
-2.59443e-06
1.85351e-07
-2.70641e-06
1.25153e-07
-2.82698e-06
6.26757e-08
-2.96153e-06
-2.69384e-09
-3.11759e-06
-7.16206e-08
-3.30493e-06
-1.44576e-07
-3.53507e-06
-2.21313e-07
-3.81979e-06
-3.00098e-07
-4.16789e-06
-3.76739e-07
-4.57966e-06
-4.43689e-07
-5.03885e-06
-4.89826e-07
-5.50248e-06
-5.01847e-07
-5.89146e-06
-4.68229e-07
-6.08802e-06
-3.85887e-07
-5.9504e-06
-2.67006e-07
-5.35511e-06
-1.40082e-07
-4.25994e-06
-4.07918e-08
-2.743e-06
-9.59994e-07
8.84548e-07
8.41525e-07
7.96578e-07
7.49712e-07
-1.72235e-06
7.00948e-07
-1.8221e-06
6.50319e-07
-1.92222e-06
5.97877e-07
-2.02259e-06
5.43686e-07
-2.12317e-06
4.87824e-07
-2.22406e-06
4.30367e-07
-2.32557e-06
3.71378e-07
-2.42842e-06
3.10877e-07
-2.53393e-06
2.488e-07
-2.64433e-06
1.84954e-07
-2.76313e-06
1.18977e-07
-2.89556e-06
5.03311e-08
-3.04895e-06
-2.16327e-08
-3.23297e-06
-9.74376e-08
-3.45927e-06
-1.77039e-07
-3.74019e-06
-2.5907e-07
-4.08585e-06
-3.39832e-07
-4.4989e-06
-4.12267e-07
-4.96641e-06
-4.65475e-07
-5.44927e-06
-4.85775e-07
-5.87116e-06
-4.60437e-07
-6.11336e-06
-3.84556e-07
-6.02629e-06
-2.68853e-07
-5.47081e-06
-1.42002e-07
-4.38679e-06
-4.15009e-08
-2.8435e-06
-1.0015e-06
8.43586e-07
-1.67309e-06
7.9222e-07
-1.77074e-06
7.38783e-07
-1.86878e-06
6.83323e-07
-1.96713e-06
6.25911e-07
-2.06576e-06
5.66633e-07
-2.16478e-06
5.05588e-07
-2.26452e-06
4.4287e-07
-2.3657e-06
3.78544e-07
-2.4696e-06
3.12608e-07
-2.5784e-06
2.4495e-07
-2.69547e-06
1.75293e-07
-2.8259e-06
1.03175e-07
-2.97683e-06
2.79905e-08
-3.15778e-06
-5.08284e-08
-3.38045e-06
-1.33413e-07
-3.65761e-06
-2.18735e-07
-4.00053e-06
-3.03591e-07
-4.41404e-06
-3.8144e-07
-4.88856e-06
-4.41673e-07
-5.38904e-06
-4.703e-07
-5.84254e-06
-4.53403e-07
-6.13025e-06
-3.84156e-07
-6.09553e-06
-2.71605e-07
-5.58336e-06
-1.44502e-07
-4.51389e-06
-4.23873e-08
-2.94562e-06
-1.04388e-06
9.38842e-07
-1.62135e-06
8.84799e-07
-1.71669e-06
8.2847e-07
-1.81245e-06
7.69906e-07
-1.90857e-06
7.0918e-07
-2.00503e-06
6.4639e-07
-2.10199e-06
5.81653e-07
-2.19979e-06
5.15094e-07
-2.29914e-06
4.46823e-07
-2.40133e-06
3.76898e-07
-2.50847e-06
3.05281e-07
-2.62386e-06
2.31783e-07
-2.7524e-06
1.56022e-07
-2.90107e-06
7.7443e-08
-3.0792e-06
-4.54931e-09
-3.29846e-06
-9.02253e-08
-3.57193e-06
-1.78889e-07
-3.91187e-06
-2.67821e-07
-4.32511e-06
-3.51031e-07
-4.80535e-06
-4.18265e-07
-5.3218e-06
-4.55305e-07
-5.8055e-06
-4.47072e-07
-6.13849e-06
-3.84711e-07
-6.15789e-06
-2.75352e-07
-5.69272e-06
-1.47671e-07
-4.64158e-06
-4.34859e-08
-3.0498e-06
-1.08737e-06
1.03553e-06
-1.56709e-06
9.78733e-07
-1.6599e-06
9.19435e-07
-1.75316e-06
8.57684e-07
-1.84681e-06
7.93558e-07
-1.94091e-06
7.27166e-07
-2.0356e-06
6.58644e-07
-2.13127e-06
5.88147e-07
-2.22864e-06
5.15827e-07
-2.32901e-06
4.418e-07
-2.43444e-06
3.66101e-07
-2.54816e-06
2.88624e-07
-2.67492e-06
2.09071e-07
-2.82152e-06
1.26946e-07
-2.99708e-06
4.16464e-08
-3.21316e-06
-4.72358e-08
-3.48305e-06
-1.39295e-07
-3.81981e-06
-2.32294e-07
-4.23211e-06
-3.20824e-07
-4.71682e-06
-3.95054e-07
-5.24757e-06
-4.4063e-07
-5.75992e-06
-4.41348e-07
-6.13777e-06
-3.86217e-07
-6.21302e-06
-2.80172e-07
-5.79876e-06
-1.51602e-07
-4.77015e-06
-4.48345e-08
-3.15657e-06
-1.1322e-06
1.13368e-06
-1.51021e-06
1.07406e-06
-1.60028e-06
1.01172e-06
-1.69081e-06
9.46704e-07
-1.7818e-06
8.79101e-07
-1.87331e-06
8.09031e-07
-1.96553e-06
7.36647e-07
-2.05888e-06
6.62132e-07
-2.15413e-06
5.8568e-07
-2.25256e-06
5.07462e-07
-2.35623e-06
4.27582e-07
-2.46828e-06
3.46015e-07
-2.59335e-06
2.62546e-07
-2.73805e-06
1.76742e-07
-2.91127e-06
8.80048e-08
-3.12442e-06
-4.18109e-09
-3.39086e-06
-9.96809e-08
-3.72431e-06
-1.96742e-07
-4.13505e-06
-2.90556e-07
-4.62301e-06
-3.71793e-07
-5.16634e-06
-4.26059e-07
-5.70566e-06
-4.36083e-07
-6.12775e-06
-3.88631e-07
-6.26048e-06
-2.86128e-07
-5.90127e-06
-1.56387e-07
-4.89989e-06
-4.64739e-08
-3.26649e-06
-1.17868e-06
1.23329e-06
-1.45068e-06
1.17079e-06
-1.53778e-06
1.10534e-06
-1.62537e-06
1.03701e-06
-1.71346e-06
9.65866e-07
-1.80217e-06
8.92057e-07
-1.89172e-06
8.15752e-07
-1.98258e-06
7.37163e-07
-2.07554e-06
6.56522e-07
-2.17192e-06
5.74052e-07
-2.27376e-06
4.89922e-07
-2.38415e-06
4.04184e-07
-2.50762e-06
3.16706e-07
-2.65057e-06
2.27118e-07
-2.82169e-06
1.3484e-07
-3.03214e-06
3.92699e-08
-3.29529e-06
-5.97238e-08
-3.62532e-06
-1.60843e-07
-4.03393e-06
-2.59913e-07
-4.52394e-06
-3.48178e-07
-5.07807e-06
-4.1132e-07
-5.64251e-06
-4.31072e-07
-6.10799e-06
-3.91863e-07
-6.29969e-06
-2.93259e-07
-5.99987e-06
-1.62122e-07
-5.03102e-06
-4.84485e-08
-3.38016e-06
-1.22713e-06
1.33437e-06
-1.38843e-06
1.26893e-06
-1.47234e-06
1.20033e-06
-1.55677e-06
1.12862e-06
-1.64175e-06
1.0539e-06
-1.72745e-06
9.7632e-07
-1.81413e-06
8.96064e-07
-1.90232e-06
8.13374e-07
-1.99285e-06
7.28518e-07
-2.08706e-06
6.4177e-07
-2.18701e-06
5.53357e-07
-2.29573e-06
4.63405e-07
-2.41767e-06
3.71857e-07
-2.55902e-06
2.78411e-07
-2.72824e-06
1.82509e-07
-2.93624e-06
8.34763e-08
-3.19626e-06
-1.90484e-08
-3.52279e-06
-1.24222e-07
-3.92876e-06
-2.2852e-07
-4.41964e-06
-3.23842e-07
-4.98275e-06
-3.96071e-07
-5.57029e-06
-4.26042e-07
-6.07802e-06
-3.95768e-07
-6.32996e-06
-3.01578e-07
-6.09406e-06
-1.68901e-07
-5.1637e-06
-5.08065e-08
-3.49825e-06
-1.27793e-06
1.43686e-06
-1.32342e-06
1.36845e-06
-1.40394e-06
1.29667e-06
-1.48499e-06
1.22158e-06
-1.56666e-06
1.14327e-06
-1.64914e-06
1.0619e-06
-1.73277e-06
9.77702e-07
-1.81812e-06
8.90923e-07
-1.90607e-06
8.0187e-07
-1.99801e-06
7.10859e-07
-2.096e-06
6.18174e-07
-2.20305e-06
5.24005e-07
-2.3235e-06
4.28368e-07
-2.46338e-06
3.31022e-07
-2.63089e-06
2.31439e-07
-2.83665e-06
1.28887e-07
-3.09371e-06
2.27958e-08
-3.4167e-06
-8.64298e-08
-3.81953e-06
-1.95933e-07
-4.31014e-06
-2.98346e-07
-4.88034e-06
-3.79894e-07
-5.48874e-06
-4.20643e-07
-6.03727e-06
-4.00138e-07
-6.35046e-06
-3.11063e-07
-6.18313e-06
-1.76817e-07
-5.29795e-06
-5.36008e-08
-3.62147e-06
-1.33153e-06
1.5407e-06
-1.25566e-06
1.46932e-06
-1.33257e-06
1.39437e-06
-1.41003e-06
1.31589e-06
-1.48818e-06
1.23402e-06
-1.56726e-06
1.14892e-06
-1.64767e-06
1.06082e-06
-1.73002e-06
9.70009e-07
-1.81526e-06
8.76826e-07
-1.90483e-06
7.81621e-07
-2.00079e-06
6.84727e-07
-2.10616e-06
5.8639e-07
-2.22516e-06
4.86688e-07
-2.36368e-06
3.8544e-07
-2.52965e-06
2.82148e-07
-2.73336e-06
1.76037e-07
-2.9876e-06
6.63479e-08
-3.30701e-06
-4.69299e-08
-3.70625e-06
-1.61618e-07
-4.19545e-06
-2.7116e-07
-4.77079e-06
-3.6228e-07
-5.39762e-06
-4.14434e-07
-5.98512e-06
-4.04683e-07
-6.36021e-06
-3.21646e-07
-6.26617e-06
-1.85962e-07
-5.43363e-06
-5.68898e-08
-3.75054e-06
-1.38842e-06
1.64579e-06
-1.18515e-06
1.57148e-06
-1.25825e-06
1.49339e-06
-1.33194e-06
1.4116e-06
-1.4064e-06
1.32624e-06
-1.4819e-06
1.23749e-06
-1.55892e-06
1.1456e-06
-1.63813e-06
1.05089e-06
-1.72055e-06
9.53705e-07
-1.80764e-06
8.54438e-07
-1.90152e-06
7.53459e-07
-2.00518e-06
6.51061e-07
-2.12276e-06
5.47373e-07
-2.25999e-06
4.42265e-07
-2.42454e-06
3.35267e-07
-2.62636e-06
2.25574e-07
-2.87791e-06
1.1226e-07
-3.1937e-06
-5.07495e-09
-3.58892e-06
-1.24938e-07
-4.07559e-06
-2.41655e-07
-4.65408e-06
-3.42615e-07
-5.29666e-06
-4.06869e-07
-5.92086e-06
-4.0902e-07
-6.35806e-06
-3.33199e-07
-6.34199e-06
-1.96418e-07
-5.57041e-06
-6.07403e-08
-3.88622e-06
-1.44916e-06
1.75204e-06
-1.11195e-06
1.67486e-06
-1.18108e-06
1.59374e-06
-1.25082e-06
1.50875e-06
-1.32141e-06
1.42005e-06
-1.3932e-06
1.32781e-06
-1.46669e-06
1.23232e-06
-1.54264e-06
1.1339e-06
-1.62213e-06
1.03292e-06
-1.70667e-06
9.29803e-07
-1.7984e-06
8.24936e-07
-1.90031e-06
7.18651e-07
-2.01648e-06
6.11115e-07
-2.15246e-06
5.02238e-07
-2.31566e-06
3.91574e-07
-2.5157e-06
2.78294e-07
-2.76462e-06
1.61327e-07
-3.07673e-06
3.99116e-08
-3.4675e-06
-8.51287e-08
-3.95055e-06
-2.09076e-07
-4.53013e-06
-3.20164e-07
-5.18557e-06
-3.97277e-07
-5.84375e-06
-4.12654e-07
-6.34269e-06
-3.45528e-07
-6.40912e-06
-2.08264e-07
-5.70768e-06
-6.52324e-08
-4.02925e-06
-1.51439e-06
1.85932e-06
-1.03618e-06
1.77942e-06
-1.10117e-06
1.69543e-06
-1.16683e-06
1.60745e-06
-1.23343e-06
1.51562e-06
-1.30137e-06
1.42016e-06
-1.37123e-06
1.32134e-06
-1.44382e-06
1.2195e-06
-1.52028e-06
1.11503e-06
-1.6022e-06
1.00835e-06
-1.69173e-06
8.99879e-07
-1.79184e-06
7.8996e-07
-1.90656e-06
6.78783e-07
-2.04128e-06
5.66283e-07
-2.20316e-06
4.52031e-07
-2.40145e-06
3.35175e-07
-2.64777e-06
2.14524e-07
-2.95608e-06
8.89892e-08
-3.34197e-06
-4.12654e-08
-3.82029e-06
-1.72519e-07
-4.39888e-06
-2.94044e-07
-5.06405e-06
-3.84845e-07
-5.75295e-06
-4.14959e-07
-6.31257e-06
-3.58347e-07
-6.46573e-06
-2.21567e-07
-5.84446e-06
-7.04673e-08
-4.18035e-06
-1.58486e-06
1.96756e-06
-9.58031e-07
1.88517e-06
-1.01878e-06
1.79857e-06
-1.08024e-06
1.70788e-06
-1.14274e-06
1.61326e-06
-1.20675e-06
1.51492e-06
-1.27289e-06
1.41315e-06
-1.34205e-06
1.30829e-06
-1.41543e-06
1.20074e-06
-1.49464e-06
1.09091e-06
-1.5819e-06
9.79218e-07
-1.68015e-06
8.66007e-07
-1.79335e-06
7.51472e-07
-1.92675e-06
6.35556e-07
-2.08724e-06
5.17834e-07
-2.28373e-06
3.97432e-07
-2.52737e-06
2.73056e-07
-2.8317e-06
1.4333e-07
-3.21224e-06
7.8015e-09
-3.68476e-06
-1.30891e-07
-4.26018e-06
-2.63198e-07
-4.93174e-06
-3.68586e-07
-5.64756e-06
-4.1515e-07
-6.26601e-06
-3.71267e-07
-6.50961e-06
-2.36385e-07
-5.97934e-06
-7.65828e-08
-4.34015e-06
-1.66144e-06
2.07675e-06
-8.77796e-07
1.99218e-06
-9.34213e-07
1.90336e-06
-9.9141e-07
1.81038e-06
-1.04976e-06
1.71341e-06
-1.10978e-06
1.61269e-06
-1.17216e-06
1.50848e-06
-1.23785e-06
1.40114e-06
-1.30808e-06
1.29103e-06
-1.38454e-06
1.17857e-06
-1.46944e-06
1.06415e-06
-1.56573e-06
9.48091e-07
-1.67729e-06
8.30568e-07
-1.80922e-06
7.1151e-07
-1.96819e-06
5.9048e-07
-2.1627e-06
4.66576e-07
-2.40346e-06
3.38416e-07
-2.70354e-06
2.0437e-07
-3.0782e-06
6.33966e-08
-3.54379e-06
-8.28842e-08
-4.1139e-06
-2.26352e-07
-4.78827e-06
-3.47307e-07
-5.52661e-06
-4.12252e-07
-6.20106e-06
-3.83764e-07
-6.5381e-06
-2.5276e-07
-6.11034e-06
-8.37749e-08
-4.50914e-06
-1.74522e-06
2.18701e-06
-7.95891e-07
2.10075e-06
-8.47949e-07
2.0102e-06
-9.00863e-07
1.91549e-06
-9.55052e-07
1.81679e-06
-1.01108e-06
1.71431e-06
-1.06969e-06
1.60834e-06
-1.13187e-06
1.49918e-06
-1.19892e-06
1.3872e-06
-1.27256e-06
1.27277e-06
-1.35501e-06
1.15623e-06
-1.44919e-06
1.03787e-06
-1.55893e-06
9.17824e-07
-1.68917e-06
7.95969e-07
-1.84633e-06
6.71839e-07
-2.03857e-06
5.44492e-07
-2.27612e-06
4.12467e-07
-2.57152e-06
2.7392e-07
-2.93965e-06
1.27296e-07
-3.39717e-06
-2.68374e-08
-3.95977e-06
-1.81953e-07
-4.63315e-06
-3.1956e-07
-5.389e-06
-4.05054e-07
-6.11557e-06
-3.95147e-07
-6.54801e-06
-2.70711e-07
-6.23478e-06
-9.23302e-08
-4.68752e-06
-1.83755e-06
2.29877e-06
-7.12887e-07
2.21143e-06
-7.60613e-07
2.11985e-06
-8.09278e-07
2.02414e-06
-8.59343e-07
1.92447e-06
-9.11411e-07
1.82105e-06
-9.66272e-07
1.71414e-06
-1.02496e-06
1.60401e-06
-1.0888e-06
1.49099e-06
-1.15953e-06
1.37538e-06
-1.2394e-06
1.25748e-06
-1.33129e-06
1.13748e-06
-1.43893e-06
1.01546e-06
-1.56715e-06
8.91232e-07
-1.7221e-06
7.64256e-07
-1.91159e-06
6.33538e-07
-2.1454e-06
4.97536e-07
-2.43551e-06
3.54227e-07
-2.79634e-06
2.01592e-07
-3.24453e-06
3.91844e-08
-3.79736e-06
-1.28131e-07
-4.46584e-06
-2.83567e-07
-5.23356e-06
-3.92044e-07
-6.00709e-06
-4.04501e-07
-6.53555e-06
-2.90212e-07
-6.34907e-06
-1.02662e-07
-4.87507e-06
-1.94021e-06
2.41287e-06
-6.29548e-07
2.32528e-06
-6.73026e-07
2.23353e-06
-7.17532e-07
2.13775e-06
-7.63559e-07
2.03808e-06
-8.11743e-07
1.93472e-06
-8.62907e-07
1.82787e-06
-9.18111e-07
1.71779e-06
-9.78713e-07
1.60471e-06
-1.04645e-06
1.48887e-06
-1.12356e-06
1.37048e-06
-1.21289e-06
1.24964e-06
-1.31809e-06
1.1263e-06
-1.44382e-06
1.00019e-06
-1.59599e-06
8.7067e-07
-1.78207e-06
7.36664e-07
-2.01139e-06
5.96538e-07
-2.29539e-06
4.48111e-07
-2.64792e-06
2.88967e-07
-3.08539e-06
1.17713e-07
-3.62611e-06
-6.25395e-08
-4.28559e-06
-2.37111e-07
-5.05899e-06
-3.71322e-07
-5.87288e-06
-4.1061e-07
-6.49626e-06
-3.11138e-07
-6.44854e-06
-1.15344e-07
-5.07086e-06
-2.05556e-06
2.53088e-06
-5.46856e-07
2.44408e-06
-5.86228e-07
2.35326e-06
-6.26716e-07
2.25854e-06
-6.68834e-07
2.16004e-06
-7.13241e-07
2.05791e-06
-7.6078e-07
1.95232e-06
-8.12525e-07
1.84345e-06
-8.69841e-07
1.73146e-06
-9.34461e-07
1.61648e-06
-1.00859e-06
1.4986e-06
-1.09502e-06
1.3778e-06
-1.19729e-06
1.2539e-06
-1.31991e-06
1.12647e-06
-1.46856e-06
9.94759e-07
-1.65036e-06
8.57557e-07
-1.87419e-06
7.1312e-07
-2.15095e-06
5.59116e-07
-2.49391e-06
3.92799e-07
-2.91907e-06
2.11958e-07
-3.44527e-06
1.79686e-08
-4.0916e-06
-1.77474e-07
-4.86355e-06
-3.40484e-07
-5.70987e-06
-4.11801e-07
-6.42495e-06
-3.3316e-07
-6.52718e-06
-1.31124e-07
-5.2729e-06
-2.18668e-06
2.65544e-06
-4.66032e-07
2.57071e-06
-5.0149e-07
2.48213e-06
-5.3814e-07
2.3898e-06
-5.76508e-07
2.29383e-06
-6.17263e-07
2.1943e-06
-6.61253e-07
2.09132e-06
-7.09549e-07
1.98499e-06
-7.63504e-07
1.87535e-06
-8.24828e-07
1.76244e-06
-8.95674e-07
1.64618e-06
-9.78761e-07
1.52641e-06
-1.07752e-06
1.40276e-06
-1.19627e-06
1.27464e-06
-1.34044e-06
1.14112e-06
-1.51684e-06
1.00082e-06
-1.73389e-06
8.51843e-07
-2.00198e-06
6.91693e-07
-2.33376e-06
5.17335e-07
-2.74471e-06
3.25785e-07
-3.25372e-06
1.1651e-07
-3.88232e-06
-1.01496e-07
-4.64554e-06
-2.96272e-07
-5.5151e-06
-4.05724e-07
-6.31549e-06
-3.556e-07
-6.5773e-06
-1.50905e-07
-5.47759e-06
-2.33759e-06
2.79081e-06
-3.88531e-07
2.70962e-06
-4.20297e-07
2.62479e-06
-4.53311e-07
2.53638e-06
-4.88097e-07
2.44444e-06
-5.25323e-07
2.34901e-06
-5.65823e-07
2.25011e-06
-6.1065e-07
2.14773e-06
-6.61127e-07
2.04182e-06
-7.18915e-07
1.93224e-06
-7.86099e-07
1.81878e-06
-8.65298e-07
1.70107e-06
-9.59805e-07
1.57855e-06
-1.07375e-06
1.45041e-06
-1.2123e-06
1.31548e-06
-1.38191e-06
1.17218e-06
-1.59059e-06
1.0184e-06
-1.84819e-06
8.51422e-07
-2.16678e-06
6.67941e-07
-2.56123e-06
4.64381e-07
-3.05015e-06
2.38886e-07
-3.65683e-06
-2.26403e-09
-4.40439e-06
-2.34261e-07
-5.2831e-06
-3.89193e-07
-6.16056e-06
-3.77166e-07
-6.58933e-06
-1.75625e-07
-5.67914e-06
-2.51321e-06
2.94347e-06
-3.15996e-07
2.86747e-06
-3.44295e-07
2.78802e-06
-3.73865e-07
2.70515e-06
-4.05223e-07
2.61884e-06
-4.39013e-07
2.52906e-06
-4.76046e-07
2.43575e-06
-5.17336e-07
2.33877e-06
-5.64155e-07
2.23795e-06
-6.18093e-07
2.133e-06
-6.81144e-07
2.0235e-06
-7.55802e-07
1.90889e-06
-8.45193e-07
1.78837e-06
-9.53229e-07
1.66087e-06
-1.0848e-06
1.52496e-06
-1.246e-06
1.37876e-06
-1.44439e-06
1.21987e-06
-1.6893e-06
1.04529e-06
-1.99221e-06
8.51412e-07
-2.36735e-06
6.34091e-07
-2.83283e-06
3.89772e-07
-3.41251e-06
1.20418e-07
-4.13504e-06
-1.50182e-07
-5.0125e-06
-3.57537e-07
-5.95321e-06
-3.9536e-07
-6.55151e-06
-2.05939e-07
-5.86856e-06
-2.71915e-06
3.12294e-06
-2.50144e-07
3.05382e-06
-2.75169e-07
2.98141e-06
-3.01454e-07
2.90567e-06
-3.29488e-07
2.82655e-06
-3.59886e-07
2.74391e-06
-3.93414e-07
2.65761e-06
-4.31033e-07
2.5674e-06
-4.7394e-07
2.47294e-06
-5.23636e-07
2.37379e-06
-5.81992e-07
2.26934e-06
-6.51351e-07
2.15878e-06
-7.34641e-07
2.04108e-06
-8.35524e-07
1.91485e-06
-9.58573e-07
1.77834e-06
-1.10949e-06
1.62932e-06
-1.29537e-06
1.46502e-06
-1.52499e-06
1.28205e-06
-1.80924e-06
1.07639e-06
-2.1617e-06
8.43378e-07
-2.59982e-06
5.78185e-07
-3.14732e-06
2.79907e-07
-3.83676e-06
-3.40868e-08
-4.6985e-06
-3.03763e-07
-5.68353e-06
-4.05916e-07
-6.44935e-06
-2.41679e-07
-6.03279e-06
-2.96083e-06
3.34267e-06
-1.92574e-07
3.28196e-06
-2.14458e-07
3.21806e-06
-2.37546e-07
3.15086e-06
-2.62292e-07
3.08024e-06
-2.89266e-07
3.006e-06
-3.19179e-07
2.92789e-06
-3.52917e-07
2.84554e-06
-3.91587e-07
2.75847e-06
-4.36571e-07
2.66607e-06
-4.89595e-07
2.56754e-06
-5.52815e-07
2.46182e-06
-6.28925e-07
2.34759e-06
-7.21295e-07
2.22316e-06
-8.34138e-07
2.08638e-06
-9.72717e-07
1.93462e-06
-1.1436e-06
1.76461e-06
-1.35498e-06
1.57248e-06
-1.61711e-06
1.35365e-06
-1.94287e-06
1.10283e-06
-2.349e-06
8.14149e-07
-2.85864e-06
4.83458e-07
-3.50607e-06
1.20363e-07
-4.33541e-06
-2.19335e-07
-5.34383e-06
-4.01851e-07
-6.26684e-06
-2.80953e-07
-6.15369e-06
-3.24178e-06
3.62072e-06
-1.44492e-07
3.56954e-06
-1.63279e-07
3.51517e-06
-1.83172e-07
3.45746e-06
-2.04583e-07
3.39622e-06
-2.28024e-07
3.33117e-06
-2.54136e-07
3.26197e-06
-2.83716e-07
3.18815e-06
-3.17761e-07
3.10909e-06
-3.57511e-07
3.02401e-06
-4.04516e-07
2.93191e-06
-4.60713e-07
2.8315e-06
-5.2852e-07
2.72117e-06
-6.10969e-07
2.59889e-06
-7.11852e-07
2.4621e-06
-8.35927e-07
2.30767e-06
-9.89169e-07
2.13178e-06
-1.1791e-06
1.92988e-06
-1.41521e-06
1.69669e-06
-1.70968e-06
1.42611e-06
-2.07842e-06
1.11121e-06
-2.54373e-06
7.44977e-07
-3.13984e-06
3.29735e-07
-3.92017e-06
-8.84205e-08
-4.92568e-06
-3.71773e-07
-5.98349e-06
-3.18966e-07
-6.2065e-06
-3.56075e-06
3.98005e-06
-1.06359e-07
3.93877e-06
-1.22007e-07
3.89423e-06
-1.38629e-07
3.84623e-06
-1.56583e-07
3.79453e-06
-1.76318e-07
3.73878e-06
-1.98391e-07
3.67856e-06
-2.23498e-07
3.6133e-06
-2.52502e-07
3.54228e-06
-2.86484e-07
3.46455e-06
-3.26788e-07
3.37893e-06
-3.75097e-07
3.28392e-06
-4.33511e-07
3.17762e-06
-5.04667e-07
3.05764e-06
-5.91873e-07
2.92102e-06
-6.99301e-07
2.76407e-06
-8.32226e-07
2.58235e-06
-9.97374e-07
2.3705e-06
-1.20336e-06
2.12229e-06
-1.46146e-06
1.83054e-06
-1.78668e-06
1.4871e-06
-2.20029e-06
1.08258e-06
-2.73532e-06
6.11892e-07
-3.44948e-06
1.05782e-07
-4.41957e-06
-3.00086e-07
-5.57762e-06
-3.47071e-07
-6.15951e-06
-3.90782e-06
4.44776e-06
-7.75567e-08
4.41573e-06
-8.99728e-08
4.38031e-06
-1.03205e-07
4.34128e-06
-1.17554e-07
4.29835e-06
-1.33394e-07
4.25115e-06
-1.5119e-07
4.19917e-06
-1.7152e-07
4.14178e-06
-1.95105e-07
4.07813e-06
-2.22839e-07
4.00719e-06
-2.55841e-07
3.92759e-06
-2.95503e-07
3.83765e-06
-3.43569e-07
3.73521e-06
-4.02227e-07
3.61757e-06
-4.74228e-07
3.48133e-06
-5.6307e-07
3.32231e-06
-6.73198e-07
3.13532e-06
-8.10389e-07
2.91411e-06
-9.82154e-07
2.65129e-06
-1.19864e-06
2.33824e-06
-1.47364e-06
1.96526e-06
-1.8273e-06
1.5207e-06
-2.29076e-06
9.92319e-07
-2.9211e-06
3.9046e-07
-3.81771e-06
-1.59493e-07
-5.02767e-06
-3.52642e-07
-5.96636e-06
-4.26046e-06
5.05269e-06
-5.62063e-08
5.02804e-06
-6.53259e-08
4.99993e-06
-7.50906e-08
4.96811e-06
-8.57371e-08
4.93228e-06
-9.7559e-08
4.89201e-06
-1.10921e-07
4.84676e-06
-1.26275e-07
4.79584e-06
-1.44183e-07
4.73834e-06
-1.65343e-07
4.67312e-06
-1.90622e-07
4.59872e-06
-2.21103e-07
4.51329e-06
-2.58134e-07
4.41448e-06
-3.03415e-07
4.29932e-06
-3.59076e-07
4.1641e-06
-4.2785e-07
4.00413e-06
-5.1322e-07
3.81356e-06
-6.1982e-07
3.58516e-06
-7.53755e-07
3.31019e-06
-9.23669e-07
2.97818e-06
-1.14163e-06
2.57721e-06
-1.42632e-06
2.09309e-06
-1.80664e-06
1.50838e-06
-2.33639e-06
8.12304e-07
-3.12164e-06
9.6654e-08
-4.31202e-06
-3.02716e-07
-5.56699e-06
-4.56318e-06
5.82075e-06
-3.93987e-08
5.80072e-06
-4.5303e-08
5.77731e-06
-5.16761e-08
5.75026e-06
-5.86871e-08
5.71924e-06
-6.65454e-08
5.68383e-06
-7.55095e-08
5.64346e-06
-8.59002e-08
5.59739e-06
-9.81134e-08
5.54469e-06
-1.12641e-07
5.48416e-06
-1.30091e-07
5.41428e-06
-1.51222e-07
5.33311e-06
-1.76971e-07
5.23822e-06
-2.08526e-07
5.1265e-06
-2.47357e-07
4.99404e-06
-2.95382e-07
4.83583e-06
-3.55011e-07
4.64557e-06
-4.29566e-07
4.41521e-06
-5.23395e-07
4.13467e-06
-6.43124e-07
3.79118e-06
-7.98138e-07
3.36954e-06
-1.00469e-06
2.85117e-06
-1.28827e-06
2.21407e-06
-1.69929e-06
1.4288e-06
-2.33638e-06
5.39912e-07
-3.42312e-06
-1.15223e-07
-4.91186e-06
-4.6784e-06
6.76901e-06
-2.41717e-08
6.75093e-06
-2.72196e-08
6.72981e-06
-3.05599e-08
6.70542e-06
-3.42933e-08
6.67742e-06
-3.85445e-08
6.64537e-06