/*--------------------------------*- C++ -*----------------------------------*\
  =========                 |
  \\      /  F ield         | OpenFOAM: The Open Source CFD Toolbox
   \\    /   O peration     | Website:  https://openfoam.org
    \\  /    A nd           | Version:  9
     \\/     M anipulation  |
\*---------------------------------------------------------------------------*/
FoamFile
{
    format      ascii;
    class       volVectorField;
    location    "3.25";
    object      U;
}
// * * * * * * * * * * * * * * * * * * * * * * * * * * * * * * * * * * * * * //

dimensions      [0 1 -1 0 0 0 0];

internalField   nonuniform List<vector> 
1260
(
(-0.0392219 -0.186456 0)
(-0.0411844 -0.197599 0)
(-0.0431495 -0.208751 0)
(-0.045111 -0.219897 0)
(-0.047065 -0.231028 0)
(-0.0490113 -0.242141 0)
(-0.0509556 -0.25325 0)
(-0.0529129 -0.264399 0)
(-0.0549102 -0.275673 0)
(-0.0569903 -0.28722 0)
(-0.0592146 -0.299267 0)
(-0.061663 -0.312144 0)
(-0.0644305 -0.326292 0)
(-0.0676155 -0.342249 0)
(-0.0712976 -0.36061 0)
(-0.0755032 -0.38192 0)
(-0.080158 -0.406509 0)
(-0.0850321 -0.434237 0)
(-0.0896883 -0.464193 0)
(-0.0934542 -0.494356 0)
(-0.0954435 -0.521349 0)
(-0.0946547 -0.540402 0)
(-0.0901668 -0.54572 0)
(-0.0814251 -0.531431 0)
(-0.0685588 -0.493139 0)
(-0.0526047 -0.429735 0)
(-0.035455 -0.344658 0)
(-0.0194446 -0.245612 0)
(-0.00700477 -0.142436 0)
(-0.00099248 -0.0440797 0)
(-0.0304637 -0.184431 0)
(-0.0325651 -0.195564 0)
(-0.0346784 -0.206712 0)
(-0.0367971 -0.21786 0)
(-0.038916 -0.228995 0)
(-0.041033 -0.240111 0)
(-0.0431511 -0.251216 0)
(-0.045281 -0.262342 0)
(-0.0474441 -0.273561 0)
(-0.0496766 -0.285005 0)
(-0.0520322 -0.296881 0)
(-0.0545843 -0.309504 0)
(-0.057423 -0.3233 0)
(-0.0606471 -0.338814 0)
(-0.0643452 -0.356668 0)
(-0.0685644 -0.37748 0)
(-0.0732647 -0.401698 0)
(-0.0782637 -0.42936 0)
(-0.0831801 -0.459773 0)
(-0.0873949 -0.491151 0)
(-0.0900563 -0.5203 0)
(-0.0901606 -0.542498 0)
(-0.0867321 -0.55176 0)
(-0.0791052 -0.541716 0)
(-0.0672618 -0.507165 0)
(-0.0520986 -0.44607 0)
(-0.0354279 -0.361121 0)
(-0.0195949 -0.259759 0)
(-0.00712367 -0.152103 0)
(-0.0010257 -0.0476755 0)
(-0.0216532 -0.182271 0)
(-0.0238963 -0.193383 0)
(-0.0261614 -0.204518 0)
(-0.0284418 -0.215659 0)
(-0.0307315 -0.226791 0)
(-0.0330272 -0.237905 0)
(-0.0353294 -0.249003 0)
(-0.0376452 -0.260107 0)
(-0.0399912 -0.27128 0)
(-0.0423974 -0.282635 0)
(-0.0449102 -0.294364 0)
(-0.0475955 -0.30676 0)
(-0.0505376 -0.320236 0)
(-0.0538335 -0.335335 0)
(-0.0575769 -0.3527 0)
(-0.0618308 -0.373005 0)
(-0.0665846 -0.396805 0)
(-0.0716992 -0.424304 0)
(-0.0768465 -0.455024 0)
(-0.0814616 -0.487418 0)
(-0.0847334 -0.518503 0)
(-0.085665 -0.543647 0)
(-0.0832377 -0.556733 0)
(-0.0766863 -0.550936 0)
(-0.0658507 -0.520278 0)
(-0.0514863 -0.46176 0)
(-0.0353187 -0.377246 0)
(-0.0196949 -0.273821 0)
(-0.00722268 -0.161825 0)
(-0.00105579 -0.0513328 0)
(-0.0127855 -0.179973 0)
(-0.0151731 -0.191054 0)
(-0.0175936 -0.202165 0)
(-0.02004 -0.213289 0)
(-0.0225062 -0.224409 0)
(-0.0249878 -0.235513 0)
(-0.0274833 -0.246598 0)
(-0.0299971 -0.257681 0)
(-0.0325414 -0.268811 0)
(-0.0351404 -0.280089 0)
(-0.0378339 -0.291688 0)
(-0.0406799 -0.303882 0)
(-0.0437563 -0.317069 0)
(-0.0471559 -0.331783 0)
(-0.0509748 -0.348679 0)
(-0.0552876 -0.368478 0)
(-0.0601084 -0.391828 0)
(-0.0653364 -0.419084 0)
(-0.0706939 -0.449978 0)
(-0.0756705 -0.483208 0)
(-0.0794991 -0.516019 0)
(-0.0811985 -0.543912 0)
(-0.0797179 -0.560686 0)
(-0.0742023 -0.55912 0)
(-0.0643562 -0.532484 0)
(-0.050792 -0.476791 0)
(-0.0351433 -0.393006 0)
(-0.0197523 -0.287771 0)
(-0.00730395 -0.171581 0)
(-0.00108287 -0.0550419 0)
(-0.00385511 -0.177535 0)
(-0.00639016 -0.188574 0)
(-0.00896941 -0.19965 0)
(-0.0115862 -0.210745 0)
(-0.0142343 -0.221843 0)
(-0.0169084 -0.232927 0)
(-0.019606 -0.243993 0)
(-0.0223286 -0.25505 0)
(-0.0250852 -0.266138 0)
(-0.0278946 -0.277345 0)
(-0.0307902 -0.288828 0)
(-0.0338226 -0.300843 0)
(-0.0370622 -0.313768 0)
(-0.0405967 -0.328125 0)
(-0.0445216 -0.344577 0)
(-0.0489196 -0.363877 0)
(-0.0538245 -0.386757 0)
(-0.0591697 -0.413709 0)
(-0.0647245 -0.444662 0)
(-0.0700318 -0.478562 0)
(-0.0743719 -0.512902 0)
(-0.0767862 -0.543346 0)
(-0.0762016 -0.563667 0)
(-0.0716834 -0.5663 0)
(-0.0628062 -0.543793 0)
(-0.0500391 -0.491158 0)
(-0.034918 -0.408387 0)
(-0.0197759 -0.301589 0)
(-0.00737008 -0.181352 0)
(-0.00110713 -0.0587945 0)
(0.0051442 -0.174953 0)
(0.00245876 -0.185939 0)
(-0.000282885 -0.196968 0)
(-0.0030744 -0.208023 0)
(-0.00590957 -0.219086 0)
(-0.00878283 -0.230141 0)
(-0.0116905 -0.241178 0)
(-0.0146323 -0.252202 0)
(-0.0176139 -0.263246 0)
(-0.0206499 -0.274386 0)
(-0.0237673 -0.285763 0)
(-0.0270097 -0.297615 0)
(-0.0304399 -0.310302 0)
(-0.034139 -0.324331 0)
(-0.0382002 -0.340364 0)
(-0.0427108 -0.359182 0)
(-0.0477202 -0.38158 0)
(-0.0531914 -0.408178 0)
(-0.0589368 -0.439093 0)
(-0.0645515 -0.473515 0)
(-0.0693652 -0.509196 0)
(-0.0724478 -0.541999 0)
(-0.072713 -0.56572 0)
(-0.0691558 -0.572505 0)
(-0.0612264 -0.554218 0)
(-0.0492499 -0.504858 0)
(-0.0346595 -0.423377 0)
(-0.0197748 -0.315259 0)
(-0.00742403 -0.191124 0)
(-0.00112886 -0.0625834 0)
(0.0142195 -0.172225 0)
(0.0113805 -0.183146 0)
(0.00847271 -0.194115 0)
(0.00550205 -0.205117 0)
(0.00247445 -0.216133 0)
(-0.000604344 -0.227146 0)
(-0.00372991 -0.238143 0)
(-0.00690059 -0.249126 0)
(-0.0101193 -0.260121 0)
(-0.0133966 -0.271193 0)
(-0.0167541 -0.282472 0)
(-0.0202286 -0.294175 0)
(-0.0238749 -0.306644 0)
(-0.0277673 -0.320372 0)
(-0.0319944 -0.336013 0)
(-0.0366454 -0.354365 0)
(-0.0417817 -0.37628 0)
(-0.0473914 -0.402488 0)
(-0.0533263 -0.433284 0)
(-0.0592317 -0.468094 0)
(-0.0644878 -0.504942 0)
(-0.0681983 -0.539917 0)
(-0.0692718 -0.566886 0)
(-0.0666419 -0.577764 0)
(-0.0596397 -0.563773 0)
(-0.0484455 -0.517894 0)
(-0.034384 -0.437973 0)
(-0.0197585 -0.328775 0)
(-0.00746912 -0.20089 0)
(-0.00114844 -0.066403 0)
(0.0233783 -0.169348 0)
(0.0203824 -0.180191 0)
(0.0173046 -0.191088 0)
(0.0141502 -0.202023 0)
(0.0109248 -0.212978 0)
(0.00763403 -0.223935 0)
(0.00428279 -0.234881 0)
(0.000873926 -0.245812 0)
(-0.00259327 -0.25675 0)
(-0.00612588 -0.267752 0)
(-0.00974061 -0.278934 0)
(-0.0134676 -0.290499 0)
(-0.0173541 -0.302769 0)
(-0.0214667 -0.316219 0)
(-0.0258884 -0.331494 0)
(-0.0307078 -0.349402 0)
(-0.0359948 -0.370839 0)
(-0.0417584 -0.396631 0)
(-0.0478861 -0.427238 0)
(-0.054071 -0.46232 0)
(-0.0597444 -0.500171 0)
(-0.0640481 -0.537138 0)
(-0.0658932 -0.567201 0)
(-0.0641601 -0.582103 0)
(-0.0580663 -0.572474 0)
(-0.0476454 -0.530272 0)
(-0.0341076 -0.452177 0)
(-0.0197371 -0.342136 0)
(-0.007509 -0.210643 0)
(-0.00116632 -0.0702498 0)
(0.0326289 -0.166318 0)
(0.0294726 -0.177071 0)
(0.0262206 -0.187882 0)
(0.0228776 -0.198736 0)
(0.0194488 -0.209616 0)
(0.0159395 -0.220502 0)
(0.0123549 -0.231382 0)
(0.00869876 -0.24225 0)
(0.00497209 -0.253122 0)
(0.00117085 -0.264047 0)
(-0.00271707 -0.275132 0)
(-0.00671568 -0.286565 0)
(-0.0108649 -0.298651 0)
(-0.0152233 -0.311845 0)
(-0.0198672 -0.32678 0)
(-0.0248826 -0.344266 0)
(-0.0303448 -0.365235 0)
(-0.0362799 -0.390596 0)
(-0.0426073 -0.42096 0)
(-0.0490653 -0.456207 0)
(-0.0551364 -0.494912 0)
(-0.0600039 -0.533695 0)
(-0.0625886 -0.566696 0)
(-0.0617255 -0.585548 0)
(-0.0565232 -0.580333 0)
(-0.0468673 -0.542 0)
(-0.0338461 -0.465994 0)
(-0.0197209 -0.355345 0)
(-0.00754759 -0.220385 0)
(-0.00118303 -0.0741217 0)
(0.0419799 -0.163133 0)
(0.0386595 -0.173781 0)
(0.035229 -0.184492 0)
(0.0316924 -0.19525 0)
(0.0280543 -0.206039 0)
(0.0243197 -0.21684 0)
(0.020494 -0.227639 0)
(0.0165814 -0.238429 0)
(0.0125846 -0.249223 0)
(0.00850202 -0.260064 0)
(0.00432575 -0.271049 0)
(3.73928e-05 -0.282354 0)
(-0.00439572 -0.294266 0)
(-0.00902405 -0.307223 0)
(-0.0139165 -0.321842 0)
(-0.0191549 -0.338932 0)
(-0.024817 -0.359448 0)
(-0.0309428 -0.38437 0)
(-0.0374796 -0.414445 0)
(-0.0442081 -0.449766 0)
(-0.0506619 -0.489185 0)
(-0.0560688 -0.529616 0)
(-0.0593655 -0.565402 0)
(-0.0593494 -0.588119 0)
(-0.055025 -0.587363 0)
(-0.0461273 -0.553084 0)
(-0.0336143 -0.479433 0)
(-0.0197202 -0.368414 0)
(-0.00758907 -0.230122 0)
(-0.0011992 -0.078019 0)
(0.0514404 -0.15979 0)
(0.047952 -0.170318 0)
(0.0443383 -0.180913 0)
(0.0406027 -0.19156 0)
(0.0367492 -0.202241 0)
(0.0327825 -0.212941 0)
(0.0287076 -0.223642 0)
(0.0245295 -0.23434 0)
(0.0202519 -0.245042 0)
(0.0158758 -0.255789 0)
(0.0113967 -0.266669 0)
(0.00680156 -0.277847 0)
(0.00206467 -0.289594 0)
(-0.00285636 -0.30233 0)
(-0.00802247 -0.316656 0)
(-0.0135098 -0.333373 0)
(-0.0193966 -0.353454 0)
(-0.025733 -0.377936 0)
(-0.032491 -0.407688 0)
(-0.039491 -0.443003 0)
(-0.0463164 -0.483009 0)
(-0.0522426 -0.524926 0)
(-0.0562279 -0.56334 0)
(-0.0570396 -0.589834 0)
(-0.0535829 -0.593573 0)
(-0.0454394 -0.563532 0)
(-0.0334267 -0.492506 0)
(-0.0197456 -0.381358 0)
(-0.00763792 -0.239865 0)
(-0.00121551 -0.0819442 0)
(0.0610198 -0.156283 0)
(0.0573591 -0.166677 0)
(0.0535574 -0.177141 0)
(0.0496172 -0.187659 0)
(0.0455419 -0.198217 0)
(0.0413358 -0.208797 0)
(0.0370037 -0.219384 0)
(0.0325508 -0.229972 0)
(0.027982 -0.240568 0)
(0.0233002 -0.251209 0)
(0.0185044 -0.261977 0)
(0.0135863 -0.273025 0)
(0.00852696 -0.284612 0)
(0.00329184 -0.297141 0)
(-0.0021716 -0.311196 0)
(-0.00793285 -0.327565 0)
(-0.0140683 -0.347231 0)
(-0.0206359 -0.371279 0)
(-0.0276284 -0.400682 0)
(-0.0349032 -0.435923 0)
(-0.0420928 -0.476397 0)
(-0.0485218 -0.519645 0)
(-0.0531763 -0.560531 0)
(-0.0548007 -0.590706 0)
(-0.0522053 -0.598971 0)
(-0.0448156 -0.573347 0)
(-0.0332967 -0.505225 0)
(-0.0198079 -0.394197 0)
(-0.00769886 -0.249629 0)
(-0.00123274 -0.0859021 0)
(0.0707272 -0.152609 0)
(0.0668898 -0.162854 0)
(0.0628949 -0.173169 0)
(0.0587442 -0.183542 0)
(0.0544406 -0.193958 0)
(0.0499875 -0.2044 0)
(0.0453898 -0.214856 0)
(0.0406529 -0.225317 0)
(0.0357825 -0.235791 0)
(0.0307833 -0.246312 0)
(0.0256573 -0.256957 0)
(0.0204011 -0.267872 0)
(0.0150016 -0.279303 0)
(0.00943235 -0.291636 0)
(0.00364933 -0.305438 0)
(-0.0024094 -0.321483 0)
(-0.00881698 -0.340757 0)
(-0.0156362 -0.36438 0)
(-0.0228777 -0.393418 0)
(-0.0304327 -0.428524 0)
(-0.0379816 -0.469358 0)
(-0.0449003 -0.513789 0)
(-0.050208 -0.556992 0)
(-0.0526335 -0.590745 0)
(-0.0508976 -0.603557 0)
(-0.0442657 -0.582533 0)
(-0.0332372 -0.517603 0)
(-0.019918 -0.406954 0)
(-0.00777691 -0.259437 0)
(-0.00125174 -0.0899 0)
(0.0805719 -0.148764 0)
(0.076553 -0.158843 0)
(0.0723595 -0.168993 0)
(0.0679922 -0.179203 0)
(0.0634531 -0.189458 0)
(0.0587455 -0.199744 0)
(0.0538737 -0.210048 0)
(0.0488434 -0.220363 0)
(0.043661 -0.230698 0)
(0.0383329 -0.241084 0)
(0.032864 -0.251595 0)
(0.0272549 -0.262371 0)
(0.0214989 -0.273647 0)
(0.0155769 -0.285794 0)
(0.00945354 -0.29936 0)
(0.00307511 -0.315105 0)
(-0.00362682 -0.334011 0)
(-0.0107178 -0.357222 0)
(-0.0182231 -0.385884 0)
(-0.0260651 -0.420807 0)
(-0.0339708 -0.4619 0)
(-0.0413689 -0.50737 0)
(-0.0473168 -0.552733 0)
(-0.0505356 -0.589956 0)
(-0.0496617 -0.607329 0)
(-0.043797 -0.591087 0)
(-0.0332595 -0.529651 0)
(-0.0200868 -0.419659 0)
(-0.00787744 -0.269315 0)
(-0.00127346 -0.093948 0)
(0.0905624 -0.144744 0)
(0.0863571 -0.154639 0)
(0.0819592 -0.164606 0)
(0.0773689 -0.174634 0)
(0.0725873 -0.184709 0)
(0.0676172 -0.194819 0)
(0.0624627 -0.204952 0)
(0.0571296 -0.215102 0)
(0.051625 -0.225279 0)
(0.0459568 -0.235514 0)
(0.0401326 -0.245879 0)
(0.0341572 -0.256509 0)
(0.0280293 -0.267628 0)
(0.0217374 -0.279595 0)
(0.0152546 -0.292941 0)
(0.00853567 -0.308409 0)
(0.00151838 -0.32697 0)
(-0.00586337 -0.349788 0)
(-0.0136476 -0.37807 0)
(-0.0217845 -0.412767 0)
(-0.0300461 -0.454029 0)
(-0.0379155 -0.500398 0)
(-0.0444934 -0.547764 0)
(-0.048501 -0.58834 0)
(-0.0484962 -0.61028 0)
(-0.0434143 -0.599002 0)
(-0.0333741 -0.54138 0)
(-0.0203254 -0.43234 0)
(-0.00800615 -0.279296 0)
(-0.00129897 -0.0980591 0)
(0.0868814 -0.169828 0)
(0.0818501 -0.179704 0)
(0.0766095 -0.189617 0)
(0.0711637 -0.199558 0)
(0.0655185 -0.209524 0)
(0.0596817 -0.219524 0)
(0.0536628 -0.229591 0)
(0.0474718 -0.239796 0)
(0.0411173 -0.25027 0)
(0.0346035 -0.26123 0)
(0.027926 -0.273023 0)
(0.0210665 -0.286163 0)
(0.0139883 -0.301374 0)
(0.0066362 -0.319617 0)
(-0.00105473 -0.34206 0)
(-0.0091324 -0.369963 0)
(-0.0175726 -0.4044 0)
(-0.0261905 -0.445748 0)
(-0.0345248 -0.492883 0)
(-0.0417247 -0.542091 0)
(-0.0465196 -0.585896 0)
(-0.0473957 -0.612397 0)
(-0.0431189 -0.606264 0)
(-0.0335898 -0.552793 0)
(-0.020645 -0.44503 0)
(-0.00816916 -0.289417 0)
(-0.00132944 -0.102249 0)
(0.0965359 -0.16478 0)
(0.0912474 -0.174435 0)
(0.0857285 -0.18413 0)
(0.0799829 -0.193858 0)
(0.0740166 -0.203618 0)
(0.0678381 -0.213422 0)
(0.0614584 -0.223304 0)
(0.0548899 -0.233334 0)
(0.0481448 -0.243642 0)
(0.0412326 -0.25444 0)
(0.0341558 -0.266062 0)
(0.0269041 -0.279008 0)
(0.01945 -0.293984 0)
(0.0117455 -0.311932 0)
(0.00372842 -0.334023 0)
(-0.0046567 -0.361553 0)
(-0.0134087 -0.395702 0)
(-0.0223842 -0.437058 0)
(-0.0311783 -0.484829 0)
(-0.038994 -0.535717 0)
(-0.0445773 -0.582615 0)
(-0.046351 -0.61366 0)
(-0.0429092 -0.612852 0)
(-0.0339135 -0.563891 0)
(-0.0210566 -0.457763 0)
(-0.00837309 -0.299721 0)
(-0.00136618 -0.106538 0)
(0.106337 -0.159481 0)
(0.100784 -0.168894 0)
(0.0949792 -0.17835 0)
(0.0889257 -0.187844 0)
(0.0826299 -0.197377 0)
(0.076101 -0.206964 0)
(0.0693514 -0.216642 0)
(0.0623958 -0.226483 0)
(0.0552502 -0.236614 0)
(0.0479289 -0.247244 0)
(0.0404408 -0.258698 0)
(0.032784 -0.271462 0)
(0.0249395 -0.286221 0)
(0.0168672 -0.3039 0)
(0.00850852 -0.325661 0)
(-0.000197059 -0.352827 0)
(-0.0092689 -0.386667 0)
(-0.0186038 -0.427961 0)
(-0.0278536 -0.476241 0)
(-0.03628 -0.528645 0)
(-0.0426554 -0.578489 0)
(-0.0453478 -0.614045 0)
(-0.0427789 -0.618738 0)
(-0.0343499 -0.574667 0)
(-0.0215712 -0.470569 0)
(-0.00862505 -0.310257 0)
(-0.00141065 -0.110949 0)
(0.116287 -0.153924 0)
(0.110464 -0.163074 0)
(0.104365 -0.172269 0)
(0.0979966 -0.181506 0)
(0.0913636 -0.190791 0)
(0.0844766 -0.200142 0)
(0.0773493 -0.209598 0)
(0.0699989 -0.219233 0)
(0.0624446 -0.229176 0)
(0.0547056 -0.239633 0)
(0.0467971 -0.250921 0)
(0.0387246 -0.263511 0)
(0.0304779 -0.278072 0)
(0.0220249 -0.295506 0)
(0.0133114 -0.316962 0)
(0.00427365 -0.343776 0)
(-0.00512599 -0.37729 0)
(-0.0148222 -0.418458 0)
(-0.0245241 -0.467123 0)
(-0.0335573 -0.520872 0)
(-0.0407302 -0.573501 0)
(-0.0443666 -0.613518 0)
(-0.0427175 -0.623881 0)
(-0.0349006 -0.585103 0)
(-0.0221996 -0.48348 0)
(-0.0089328 -0.321078 0)
(-0.00146449 -0.115508 0)
(0.126388 -0.148105 0)
(0.120287 -0.156968 0)
(0.113889 -0.16588 0)
(0.107199 -0.174839 0)
(0.100222 -0.183855 0)
(0.0929713 -0.192948 0)
(0.0854605 -0.202163 0)
(0.0777095 -0.211578 0)
(0.0697409 -0.221321 0)
(0.0615784 -0.231598 0)
(0.0532429 -0.242721 0)
(0.0447474 -0.255147 0)
(0.0360898 -0.269526 0)
(0.027246 -0.286738 0)
(0.0181669 -0.307913 0)
(0.00878654 -0.33439 0)
(-0.000948041 -0.367567 0)
(-0.0110073 -0.408549 0)
(-0.0211581 -0.457479 0)
(-0.0307948 -0.512398 0)
(-0.0387719 -0.567637 0)
(-0.043382 -0.612042 0)
(-0.0427085 -0.628231 0)
(-0.0355635 -0.595171 0)
(-0.0229518 -0.496521 0)
(-0.00930475 -0.332244 0)
(-0.00152953 -0.120247 0)
(0.136637 -0.142015 0)
(0.130253 -0.150572 0)
(0.123551 -0.159177 0)
(0.116534 -0.167837 0)
(0.10921 -0.176561 0)
(0.101591 -0.185378 0)
(0.0936935 -0.194335 0)
(0.0855391 -0.203513 0)
(0.0771537 -0.213046 0)
(0.0685652 -0.223137 0)
(0.0598001 -0.234093 0)
(0.0508778 -0.246362 0)
(0.0418041 -0.260575 0)
(0.0325626 -0.277588 0)
(0.0231098 -0.298506 0)
(0.0133786 -0.324661 0)
(0.00330283 -0.357492 0)
(-0.00712134 -0.398235 0)
(-0.0177183 -0.44731 0)
(-0.0279552 -0.503221 0)
(-0.0367444 -0.560875 0)
(-0.0423616 -0.609571 0)
(-0.0427289 -0.631726 0)
(-0.0363321 -0.604828 0)
(-0.0238368 -0.509712 0)
(-0.00975009 -0.343818 0)
(-0.0016078 -0.125202 0)
(0.147029 -0.135652 0)
(0.140359 -0.143879 0)
(0.13335 -0.152158 0)
(0.126005 -0.160495 0)
(0.118331 -0.168909 0)
(0.110343 -0.177429 0)
(0.102059 -0.18611 0)
(0.0935018 -0.195038 0)
(0.0847011 -0.204348 0)
(0.0756884 -0.214247 0)
(0.066495 -0.225036 0)
(0.0571467 -0.237155 0)
(0.0476559 -0.251215 0)
(0.0380136 -0.268048 0)
(0.0281818 -0.288732 0)
(0.0180936 -0.314583 0)
(0.00767145 -0.347062 0)
(-0.00311943 -0.387516 0)
(-0.0141598 -0.436621 0)
(-0.0249941 -0.493336 0)
(-0.0346041 -0.553194 0)
(-0.0412649 -0.606052 0)
(-0.0427482 -0.63429 0)
(-0.0371942 -0.614014 0)
(-0.0248622 -0.523063 0)
(-0.010279 -0.35587 0)
(-0.00170163 -0.130414 0)
(0.157556 -0.129013 0)
(0.1506 -0.136889 0)
(0.143283 -0.144819 0)
(0.13561 -0.152815 0)
(0.127589 -0.160897 0)
(0.119236 -0.169103 0)
(0.110569 -0.177492 0)
(0.101615 -0.186155 0)
(0.0924054 -0.195233 0)
(0.0829754 -0.204933 0)
(0.0733606 -0.215555 0)
(0.0635919 -0.227527 0)
(0.0536879 -0.241446 0)
(0.0436461 -0.258118 0)
(0.0334337 -0.278589 0)
(0.0229846 -0.304151 0)
(0.0122118 -0.336275 0)
(0.00105234 -0.376392 0)
(-0.0104294 -0.425412 0)
(-0.0218587 -0.482742 0)
(-0.0322983 -0.54457 0)
(-0.0400425 -0.601426 0)
(-0.0427266 -0.635833 0)
(-0.0381304 -0.62265 0)
(-0.0260333 -0.536569 0)
(-0.0109026 -0.36847 0)
(-0.00181365 -0.135929 0)
(0.168208 -0.122097 0)
(0.160967 -0.129603 0)
(0.153347 -0.137165 0)
(0.145351 -0.144799 0)
(0.13699 -0.152532 0)
(0.128279 -0.160407 0)
(0.11924 -0.168488 0)
(0.109901 -0.176874 0)
(0.100295 -0.18571 0)
(0.0904613 -0.195204 0)
(0.0804381 -0.205656 0)
(0.0702609 -0.217486 0)
(0.0599532 -0.231274 0)
(0.049518 -0.247798 0)
(0.0389271 -0.268074 0)
(0.0281158 -0.293362 0)
(0.0169891 -0.325126 0)
(0.00545902 -0.364863 0)
(-0.00646316 -0.413687 0)
(-0.0184857 -0.471432 0)
(-0.0297646 -0.534976 0)
(-0.0386342 -0.595628 0)
(-0.0426139 -0.636248 0)
(-0.0391129 -0.630631 0)
(-0.0273524 -0.550209 0)
(-0.0116339 -0.381694 0)
(-0.00194697 -0.1418 0)
(0.178972 -0.114909 0)
(0.171453 -0.122025 0)
(0.163537 -0.1292 0)
(0.15523 -0.136456 0)
(0.146541 -0.143824 0)
(0.137489 -0.151352 0)
(0.128095 -0.159113 0)
(0.11839 -0.167211 0)
(0.108408 -0.175795 0)
(0.0981915 -0.185078 0)
(0.0877805 -0.195358 0)
(0.0772137 -0.207047 0)
(0.0665183 -0.220708 0)
(0.0557014 -0.237096 0)
(0.0447386 -0.25719 0)
(0.0335663 -0.282214 0)
(0.0220835 -0.313614 0)
(0.0101797 -0.352928 0)
(-0.0021837 -0.401444 0)
(-0.0147994 -0.459404 0)
(-0.0269278 -0.524385 0)
(-0.0369677 -0.588584 0)
(-0.0423477 -0.635413 0)
(-0.0401038 -0.637825 0)
(-0.0288178 -0.563938 0)
(-0.0124881 -0.395618 0)
(-0.0021055 -0.148087 0)
(0.189833 -0.107456 0)
(0.182049 -0.114166 0)
(0.173854 -0.120939 0)
(0.165253 -0.127801 0)
(0.156258 -0.134789 0)
(0.146887 -0.141959 0)
(0.137165 -0.149389 0)
(0.127122 -0.157189 0)
(0.116795 -0.165513 0)
(0.106225 -0.174579 0)
(0.0954557 -0.184682 0)
(0.0845265 -0.196229 0)
(0.0734669 -0.209767 0)
(0.0622862 -0.226023 0)
(0.0509627 -0.245942 0)
(0.0394337 -0.270708 0)
(0.0275931 -0.301735 0)
(0.0153112 -0.340584 0)
(0.0025028 -0.388684 0)
(-0.0107087 -0.44665 0)
(-0.0236986 -0.512767 0)
(-0.0349561 -0.580215 0)
(-0.0418511 -0.633185 0)
(-0.0410525 -0.64407 0)
(-0.0304222 -0.577678 0)
(-0.0134839 -0.410317 0)
(-0.0022945 -0.154859 0)
(0.200778 -0.0997541 0)
(0.192751 -0.106043 0)
(0.1843 -0.112401 0)
(0.175433 -0.118858 0)
(0.166163 -0.125457 0)
(0.156509 -0.132259 0)
(0.146495 -0.139348 0)
(0.136154 -0.146842 0)
(0.125522 -0.1549 0)
(0.11464 -0.163742 0)
(0.103552 -0.173663 0)
(0.0922971 -0.185063 0)
(0.0809049 -0.198473 0)
(0.0693854 -0.214597 0)
(0.0577178 -0.234341 0)
(0.0458393 -0.258845 0)
(0.0336396 -0.289487 0)
(0.0209727 -0.327826 0)
(0.00771158 -0.375401 0)
(-0.0061029 -0.433161 0)
(-0.0199698 -0.500091 0)
(-0.0324952 -0.570437 0)
(-0.0410302 -0.629405 0)
(-0.0418937 -0.649166 0)
(-0.0321512 -0.591314 0)
(-0.0146453 -0.425859 0)
(-0.00252168 -0.162196 0)
(0.211803 -0.0918264 0)
(0.203562 -0.0976857 0)
(0.194891 -0.10362 0)
(0.185798 -0.109663 0)
(0.176296 -0.115865 0)
(0.166405 -0.122292 0)
(0.15615 -0.129035 0)
(0.145563 -0.136217 0)
(0.134679 -0.144003 0)
(0.123539 -0.152614 0)
(0.112184 -0.162344 0)
(0.100651 -0.173587 0)
(0.088967 -0.186861 0)
(0.0771414 -0.202841 0)
(0.0651517 -0.2224 0)
(0.052934 -0.24663 0)
(0.0403738 -0.276864 0)
(0.0273118 -0.314644 0)
(0.013585 -0.361585 0)
(-0.000846697 -0.418924 0)
(-0.0156122 -0.48632 0)
(-0.0294604 -0.559154 0)
(-0.0397709 -0.623892 0)
(-0.0425435 -0.65287 0)
(-0.033981 -0.60468 0)
(-0.0160044 -0.442304 0)
(-0.00279917 -0.170197 0)
(0.222913 -0.0837078 0)
(0.214504 -0.0891315 0)
(0.205661 -0.0946368 0)
(0.196395 -0.100264 0)
(0.18672 -0.106066 0)
(0.176655 -0.112115 0)
(0.166224 -0.118509 0)
(0.155458 -0.125374 0)
(0.144391 -0.132881 0)
(0.13306 -0.141252 0)
(0.121501 -0.150781 0)
(0.109748 -0.161852 0)
(0.0978244 -0.17497 0)
(0.0857335 -0.190787 0)
(0.07345 -0.210137 0)
(0.0609066 -0.234068 0)
(0.0479845 -0.26386 0)
(0.034513 -0.301024 0)
(0.0202983 -0.347217 0)
(0.00522578 -0.403917 0)
(-0.0104672 -0.471411 0)
(-0.0257006 -0.546266 0)
(-0.0379339 -0.61644 0)
(-0.0428953 -0.654892 0)
(-0.0358747 -0.617548 0)
(-0.0176039 -0.459691 0)
(-0.00314662 -0.178982 0)
(0.234143 -0.0754471 0)
(0.225624 -0.0804349 0)
(0.216676 -0.0855123 0)
(0.207308 -0.0907235 0)
(0.197534 -0.0961269 0)
(0.187374 -0.1018 0)
(0.17685 -0.107843 0)
(0.165989 -0.114389 0)
(0.154823 -0.12161 0)
(0.143382 -0.12973 0)
(0.131698 -0.13904 0)
(0.119797 -0.149918 0)
(0.107695 -0.162853 0)
(0.0953883 -0.178473 0)
(0.0828454 -0.197577 0)
(0.069993 -0.221165 0)
(0.0567068 -0.250465 0)
(0.0428061 -0.286942 0)
(0.0280709 -0.332269 0)
(0.0123223 -0.388109 0)
(-0.00434075 -0.455315 0)
(-0.021033 -0.531659 0)
(-0.0353491 -0.606823 0)
(-0.0428131 -0.654887 0)
(-0.0377772 -0.629611 0)
(-0.0194995 -0.478028 0)
(-0.00359577 -0.188706 0)
(0.245567 -0.0671102 0)
(0.237019 -0.0716677 0)
(0.22805 -0.0763235 0)
(0.21867 -0.0811255 0)
(0.208893 -0.0861359 0)
(0.198736 -0.0914357 0)
(0.188219 -0.0971298 0)
(0.177365 -0.103353 0)
(0.166199 -0.11028 0)
(0.154746 -0.118134 0)
(0.143028 -0.127203 0)
(0.131063 -0.137857 0)
(0.118855 -0.15057 0)
(0.106392 -0.165944 0)
(0.0936298 -0.184746 0)
(0.0804885 -0.207929 0)
(0.0668351 -0.236665 0)
(0.0524792 -0.272369 0)
(0.0371796 -0.316699 0)
(0.0207014 -0.371449 0)
(0.00300774 -0.437968 0)
(-0.0152316 -0.515203 0)
(-0.0318063 -0.594781 0)
(-0.0421227 -0.652448 0)
(-0.0396063 -0.640463 0)
(-0.0217587 -0.497266 0)
(-0.00419637 -0.199574 0)
(0.257331 -0.058784 0)
(0.248855 -0.0629226 0)
(0.239972 -0.0671684 0)
(0.230691 -0.0715722 0)
(0.221026 -0.076199 0)
(0.21099 -0.0811324 0)
(0.200599 -0.0864795 0)
(0.189871 -0.0923769 0)
(0.178822 -0.098999 0)
(0.167469 -0.106568 0)
(0.155823 -0.115366 0)
(0.143888 -0.125754 0)
(0.131658 -0.13819 0)
(0.119103 -0.153254 0)
(0.106169 -0.171677 0)
(0.0927619 -0.194367 0)
(0.0787373 -0.222444 0)
(0.0638938 -0.257263 0)
(0.0479716 -0.300449 0)
(0.0306893 -0.353873 0)
(0.0118852 -0.419287 0)
(-0.00801431 -0.49675 0)
(-0.0270462 -0.580027 0)
(-0.0405988 -0.647089 0)
(-0.0412391 -0.649576 0)
(-0.0244544 -0.517271 0)
(-0.00502296 -0.211858 0)
(0.269689 -0.0505783 0)
(0.261409 -0.0543149 0)
(0.252741 -0.0581673 0)
(0.243693 -0.0621876 0)
(0.234275 -0.0664427 0)
(0.224496 -0.0710174 0)
(0.214367 -0.0760195 0)
(0.203898 -0.0815854 0)
(0.193097 -0.0878877 0)
(0.181967 -0.0951449 0)
(0.170509 -0.103633 0)
(0.158711 -0.113702 0)
(0.146548 -0.125793 0)
(0.133977 -0.140462 0)
(0.120922 -0.158406 0)
(0.107274 -0.18049 0)
(0.0928726 -0.20778 0)
(0.0775017 -0.241571 0)
(0.0608834 -0.283441 0)
(0.0426985 -0.335287 0)
(0.0226838 -0.399167 0)
(0.000977867 -0.476154 0)
(-0.0207377 -0.562226 0)
(-0.0379457 -0.638236 0)
(-0.0424941 -0.656267 0)
(-0.0276485 -0.53778 0)
(-0.00618139 -0.225912 0)
(0.283052 -0.0426272 0)
(0.275116 -0.0459831 0)
(0.266813 -0.0494615 0)
(0.258149 -0.0531153 0)
(0.249129 -0.0570116 0)
(0.239759 -0.0612349 0)
(0.230041 -0.0658919 0)
(0.219976 -0.071117 0)
(0.209561 -0.0770792 0)
(0.198788 -0.083991 0)
(0.18764 -0.0921201 0)
(0.176089 -0.101803 0)
(0.164092 -0.113464 0)
(0.15158 -0.127632 0)
(0.13846 -0.144972 0)
(0.124598 -0.166306 0)
(0.109813 -0.192646 0)
(0.0938682 -0.22523 0)
(0.0764668 -0.265576 0)
(0.0572568 -0.315568 0)
(0.0358821 -0.377475 0)
(0.0122157 -0.453244 0)
(-0.0124238 -0.540982 0)
(-0.0337771 -0.625224 0)
(-0.0431065 -0.659682 0)
(-0.0313602 -0.558341 0)
(-0.00780938 -0.242183 0)
(0.298063 -0.0350871 0)
(0.290635 -0.0380852 0)
(0.282861 -0.0412101 0)
(0.274744 -0.0445141 0)
(0.266284 -0.0480629 0)
(0.257479 -0.0519395 0)
(0.248325 -0.0562475 0)
(0.238812 -0.0611171 0)
(0.228925 -0.0667116 0)
(0.218642 -0.0732354 0)
(0.207927 -0.0809452 0)
(0.196735 -0.0901624 0)
(0.184997 -0.10129 0)
(0.172625 -0.114832 0)
(0.159494 -0.131417 0)
(0.145445 -0.151824 0)
(0.130268 -0.177014 0)
(0.113698 -0.208164 0)
(0.0954112 -0.246732 0)
(0.0750165 -0.29456 0)
(0.0520809 -0.35403 0)
(0.0263332 -0.427781 0)
(-0.0015087 -0.516006 0)
(-0.0275935 -0.60733 0)
(-0.0426793 -0.658762 0)
(-0.0355063 -0.578244 0)
(-0.0100609 -0.261212 0)
(0.31567 -0.0281289 0)
(0.30892 -0.030791 0)
(0.301843 -0.0335806 0)
(0.294436 -0.0365482 0)
(0.286693 -0.0397571 0)
(0.278607 -0.0432865 0)
(0.270162 -0.0472356 0)
(0.26134 -0.0517282 0)
(0.252113 -0.0569196 0)
(0.242441 -0.0630035 0)
(0.232274 -0.0702227 0)
(0.221541 -0.0788807 0)
(0.210153 -0.0893573 0)
(0.197991 -0.102127 0)
(0.184903 -0.11778 0)
(0.170692 -0.137051 0)
(0.155113 -0.160847 0)
(0.137866 -0.190289 0)
(0.118586 -0.226769 0)
(0.0968441 -0.272069 0)
(0.0721457 -0.328587 0)
(0.0440404 -0.399444 0)
(0.0127161 -0.486846 0)
(-0.0186155 -0.58369 0)
(-0.0405959 -0.652204 0)
(-0.0398183 -0.596419 0)
(-0.0130627 -0.283585 0)
(0.337223 -0.0219234 0)
(0.331309 -0.0242665 0)
(0.325079 -0.0267337 0)
(0.318525 -0.0293725 0)
(0.311636 -0.0322423 0)
(0.304396 -0.0354173 0)
(0.296783 -0.0389901 0)
(0.288766 -0.0430766 0)
(0.280304 -0.0478212 0)
(0.271343 -0.0534045 0)
(0.261814 -0.0600522 0)
(0.251624 -0.0680462 0)
(0.240657 -0.0777394 0)
(0.228766 -0.0895722 0)
(0.215762 -0.104094 0)
(0.201411 -0.121991 0)
(0.185423 -0.144114 0)
(0.167448 -0.171521 0)
(0.147071 -0.20554 0)
(0.123807 -0.247885 0)
(0.097097 -0.300913 0)
(0.0663364 -0.368023 0)
(0.0312786 -0.453049 0)
(-0.00587776 -0.55346 0)
(-0.0359863 -0.638439 0)
(-0.043745 -0.611299 0)
(-0.0168257 -0.309785 0)
(0.364551 -0.0166179 0)
(0.359588 -0.0186511 0)
(0.354312 -0.0208006 0)
(0.34871 -0.0231099 0)
(0.342765 -0.0256334 0)
(0.336456 -0.0284388 0)
(0.32975 -0.0316106 0)
(0.322607 -0.0352543 0)
(0.314974 -0.0395016 0)
(0.306782 -0.0445167 0)
(0.297944 -0.0505049 0)
(0.288346 -0.0577228 0)
(0.277847 -0.0664913 0)
(0.266265 -0.0772121 0)
(0.253376 -0.090388 0)
(0.238902 -0.106648 0)
(0.222501 -0.126782 0)
(0.203761 -0.151781 0)
(0.182202 -0.182902 0)
(0.157261 -0.221785 0)
(0.128304 -0.27071 0)
(0.0945926 -0.33315 0)
(0.0554668 -0.414126 0)
(0.0119603 -0.515698 0)
(-0.0274602 -0.615541 0)
(-0.0463082 -0.620657 0)
(-0.0211053 -0.339943 0)
(0.399985 -0.0123038 0)
(0.396016 -0.0140268 0)
(0.391727 -0.0158544 0)
(0.387103 -0.0178251 0)
(0.382121 -0.0199872 0)
(0.376754 -0.0224008 0)
(0.370964 -0.0251406 0)
(0.3647 -0.0283001 0)
(0.357899 -0.0319954 0)
(0.35048 -0.0363718 0)
(0.342336 -0.0416106 0)
(0.333336 -0.0479386 0)
(0.323312 -0.0556397 0)
(0.312054 -0.0650703 0)
(0.299297 -0.0766784 0)
(0.284716 -0.0910289 0)
(0.267912 -0.108838 0)
(0.248403 -0.131017 0)
(0.225622 -0.158745 0)
(0.198905 -0.19358 0)
(0.167516 -0.23771 0)
(0.130574 -0.294533 0)
(0.0870504 -0.369754 0)
(0.0368629 -0.469496 0)
(-0.0129769 -0.581447 0)
(-0.0459979 -0.621598 0)
(-0.0252141 -0.37367 0)
(0.446291 -0.00898068 0)
(0.443251 -0.0103853 0)
(0.43988 -0.0118795 0)
(0.43616 -0.0134966 0)
(0.432067 -0.0152775 0)
(0.427567 -0.0172736 0)
(0.422617 -0.0195486 0)
(0.417159 -0.0221818 0)
(0.411122 -0.0252722 0)
(0.404412 -0.028943 0)
(0.396911 -0.0333483 0)
(0.388468 -0.0386805 0)
(0.378895 -0.0451811 0)
(0.36795 -0.0531538 0)
(0.355337 -0.0629829 0)
(0.34068 -0.0751564 0)
(0.323523 -0.0903025 0)
(0.3033 -0.109234 0)
(0.279351 -0.133032 0)
(0.250876 -0.163155 0)
(0.217003 -0.201696 0)
(0.176658 -0.251899 0)
(0.128545 -0.319635 0)
(0.0715591 -0.414082 0)
(0.010461 -0.534176 0)
(-0.0404675 -0.610739 0)
(-0.0277397 -0.410134 0)
(0.506411 -0.00652566 0)
(0.504113 -0.00760154 0)
(0.501477 -0.00875031 0)
(0.498483 -0.00999884 0)
(0.495105 -0.0113805 0)
(0.491307 -0.0129368 0)
(0.487039 -0.0147192 0)
(0.482243 -0.0167917 0)
(0.476837 -0.0192339 0)
(0.470722 -0.022145 0)
(0.463768 -0.0256486 0)
(0.455812 -0.0298991 0)
(0.446647 -0.0350905 0)
(0.43601 -0.0414666 0)
(0.423576 -0.0493385 0)
(0.408926 -0.059103 0)
(0.391551 -0.0712811 0)
(0.370802 -0.0865574 0)
(0.345914 -0.10588 0)
(0.315918 -0.130563 0)
(0.279773 -0.162588 0)
(0.236109 -0.205021 0)
(0.183492 -0.263546 0)
(0.119803 -0.348981 0)
(0.0471973 -0.471785 0)
(-0.0261879 -0.584374 0)
(-0.0260266 -0.447246 0)
(0.582986 -0.00468607 0)
(0.581146 -0.0054307 0)
(0.578976 -0.00623052 0)
(0.576456 -0.00710572 0)
(0.573557 -0.00808134 0)
(0.570242 -0.00918835 0)
(0.566461 -0.0104652 0)
(0.562151 -0.0119595 0)
(0.557228 -0.0137304 0)
(0.551586 -0.0158511 0)
(0.545092 -0.0184131 0)
(0.537574 -0.0215297 0)
(0.528819 -0.0253441 0)
(0.518548 -0.0300349 0)
(0.506421 -0.0358324 0)
(0.491992 -0.0430287 0)
(0.474723 -0.0520181 0)
(0.453884 -0.0633199 0)
(0.428638 -0.0776942 0)
(0.397797 -0.0962201 0)
(0.360143 -0.120671 0)
(0.313786 -0.153856 0)
(0.257202 -0.201161 0)
(0.187107 -0.273586 0)
(0.103358 -0.3917 0)
(0.00279495 -0.536371 0)
(-0.0142086 -0.477105 0)
(0.677724 -0.0031281 0)
(0.676059 -0.00355919 0)
(0.674101 -0.00402759 0)
(0.671828 -0.00454654 0)
(0.669213 -0.00513242 0)
(0.666216 -0.00580541 0)
(0.662789 -0.00659054 0)
(0.658868 -0.00751856 0)
(0.65437 -0.0086277 0)
(0.649189 -0.00996492 0)
(0.643194 -0.0115889 0)
(0.636213 -0.0135716 0)
(0.628038 -0.0160045 0)
(0.618392 -0.0189994 0)
(0.606946 -0.0227037 0)
(0.593246 -0.0272991 0)
(0.576777 -0.0330417 0)
(0.556764 -0.0402576 0)
(0.53239 -0.0494668 0)
(0.502244 -0.0613898 0)
(0.465036 -0.0773874 0)
(0.418025 -0.0996524 0)
(0.359515 -0.133046 0)
(0.283844 -0.187305 0)
(0.189875 -0.289392 0)
(0.0590056 -0.452065 0)
(0.0207505 -0.476837 0)
(0.791017 -0.00163624 0)
(0.789453 -0.00180914 0)
(0.787669 -0.00200219 0)
(0.785646 -0.00222201 0)