/*--------------------------------*- C++ -*----------------------------------*\
  =========                 |
  \\      /  F ield         | OpenFOAM: The Open Source CFD Toolbox
   \\    /   O peration     | Website:  https://openfoam.org
    \\  /    A nd           | Version:  9
     \\/     M anipulation  |
\*---------------------------------------------------------------------------*/
FoamFile
{
    format      ascii;
    class       volScalarField;
    location    "0.75";
    object      p;
}
// * * * * * * * * * * * * * * * * * * * * * * * * * * * * * * * * * * * * * //

dimensions      [0 2 -2 0 0 0 0];

internalField   nonuniform List<scalar> 
10000
(
1.2032e-08
-3.35701e-06
-1.1608e-05
-2.27182e-05
-3.48426e-05
-4.67075e-05
-5.74784e-05
-6.66145e-05
-7.3813e-05
-7.89361e-05
-8.19545e-05
-8.2905e-05
-8.18608e-05
-7.89113e-05
-7.4147e-05
-6.76504e-05
-5.94896e-05
-4.97154e-05
-3.83604e-05
-2.54396e-05
-1.09518e-05
5.11952e-06
2.28035e-05
4.21406e-05
6.31799e-05
8.59768e-05
0.000110591
0.000137082
0.000165511
0.000195937
0.000228413
0.000262987
0.0002997
0.00033858
0.000379644
0.000422895
0.000468317
0.00051588
0.000565532
0.000617201
0.000670792
0.000726185
0.000783237
0.000841779
0.000901615
0.000962524
0.00102426
0.00108655
0.0011491
0.00121159
0.00127369
0.00133505
0.0013953
0.00145406
0.00151096
0.00156563
0.00161768
0.00166675
0.00171249
0.00175459
0.00179274
0.00182668
0.00185617
0.00188103
0.00190112
0.00191635
0.00192667
0.00193209
0.00193269
0.00192856
0.00191989
0.00190687
0.00188978
0.00186892
0.0018446
0.00181721
0.00178713
0.00175477
0.00172056
0.00168493
0.0016483
0.00161112
0.00157381
0.00153678
0.00150044
0.00146517
0.00143136
0.00139936
0.0013695
0.00134211
0.0013175
0.00129597
0.00127777
0.00126315
0.0012523
0.00124534
0.00124221
0.0012425
0.0012453
0.00124964
3.39228e-06
-2.0915e-08
-6.62846e-06
-1.51995e-05
-2.45748e-05
-3.38215e-05
-4.22658e-05
-4.94436e-05
-5.50588e-05
-5.89434e-05
-6.10223e-05
-6.12829e-05
-5.97508e-05
-5.64723e-05
-5.1501e-05
-4.48884e-05
-3.66787e-05
-2.69045e-05
-1.55856e-05
-2.72858e-06
1.16727e-05
2.76363e-05
4.51909e-05
6.43745e-05
8.52324e-05
0.000107815
0.000132175
0.000158368
0.000186448
0.000216465
0.000248467
0.000282495
0.000318583
0.000356755
0.000397021
0.00043938
0.000483812
0.000530282
0.000578737
0.000629104
0.000681288
0.000735171
0.000790613
0.000847448
0.000905487
0.000964517
0.0010243
0.00108457
0.00114505
0.00120543
0.0012654
0.00132462
0.00138274
0.0014394
0.00149424
0.0015469
0.00159704
0.00164429
0.00168834
0.00172887
0.00176561
0.0017983
0.00182672
0.0018507
0.00187011
0.00188487
0.00189492
0.0019003
0.00190106
0.00189731
0.00188921
0.00187698
0.00186086
0.00184114
0.00181814
0.00179221
0.00176372
0.00173308
0.00170069
0.00166695
0.0016323
0.00159714
0.00156188
0.00152692
0.00149265
0.00145944
0.00142764
0.00139758
0.00136958
0.00134393
0.00132091
0.00130076
0.00128369
0.00126988
0.00125944
0.0012524
0.00124865
0.00124785
0.00124963
0.00125396
1.17734e-05
6.51076e-06
-1.86751e-07
-7.95562e-06
-1.61437e-05
-2.40557e-05
-3.11718e-05
-3.71263e-05
-4.16723e-05
-4.46586e-05
-4.60073e-05
-4.56926e-05
-4.37223e-05
-4.0123e-05
-3.49291e-05
-2.81747e-05
-1.98888e-05
-1.00919e-05
1.20559e-06
1.4004e-05
2.83141e-05
4.41571e-05
6.15628e-05
8.05691e-05
0.00010122
0.000123565
0.000147654
0.000173538
0.000201268
0.000230893
0.000262456
0.000295996
0.000331543
0.000369116
0.000408725
0.000450366
0.000494018
0.000539647
0.000587197
0.000636597
0.000687754
0.000740551
0.000794851
0.000850493
0.000907292
0.000965039
0.0010235
0.00108243
0.00114155
0.00120056
0.00125915
0.001317
0.00137376
0.0014291
0.00148265
0.00153407
0.00158301
0.00162914
0.00167214
0.0017117
0.00174756
0.00177947
0.00180722
0.00183063
0.00184959
0.001864
0.00187384
0.00187912
0.0018799
0.0018763
0.00186847
0.00185661
0.00184098
0.00182185
0.00179955
0.00177441
0.00174682
0.00171714
0.00168578
0.00165316
0.00161966
0.00158571
0.00155169
0.001518
0.00148502
0.00145309
0.00142255
0.00139373
0.00136692
0.00134239
0.00132039
0.00130113
0.0012848
0.00127153
0.00126141
0.00125447
0.0012506
0.00124955
0.00125138
0.00125679
2.32415e-05
1.50851e-05
7.33458e-06
-5.38357e-07
-8.36335e-06
-1.56235e-05
-2.19408e-05
-2.70592e-05
-3.08027e-05
-3.30616e-05
-3.37796e-05
-3.29388e-05
-3.05455e-05
-2.66204e-05
-2.11887e-05
-1.4275e-05
-5.89835e-06
3.92951e-06
1.52056e-05
2.79365e-05
4.21377e-05
5.78338e-05
7.50575e-05
9.3848e-05
0.00011425
0.000136312
0.000160085
0.000185618
0.000212962
0.000242162
0.000273263
0.000306301
0.000341305
0.000378294
0.000417276
0.000458247
0.000501187
0.000546063
0.000592822
0.000641392
0.000691684
0.000743584
0.000796957
0.000851647
0.000907473
0.000964233
0.0010217
0.00107963
0.00113774
0.00119576
0.00125337
0.00131026
0.00136608
0.0014205
0.00147318
0.00152376
0.00157191
0.0016173
0.0016596
0.00169853
0.00173381
0.00176519
0.00179248
0.0018155
0.00183412
0.00184827
0.00185791
0.00186306
0.00186377
0.00186017
0.00185241
0.00184069
0.00182527
0.00180642
0.00178446
0.00175974
0.00173261
0.00170347
0.00167271
0.00164073
0.00160795
0.00157474
0.00154152
0.00150866
0.00147653
0.00144547
0.00141581
0.00138785
0.00136188
0.00133814
0.00131688
0.00129827
0.00128248
0.00126963
0.00125981
0.00125304
0.00124928
0.00124835
0.0012506
0.00125722
3.59727e-05
2.44892e-05
1.52171e-05
6.77599e-06
-1.11977e-06
-8.10127e-06
-1.39206e-05
-1.84327e-05
-2.15394e-05
-2.31832e-05
-2.33411e-05
-2.20138e-05
-1.92166e-05
-1.49717e-05
-9.30211e-06
-2.22728e-06
6.23955e-06
1.6093e-05
2.73362e-05
3.9981e-05
5.40478e-05
6.9565e-05
8.65684e-05
0.0001051
0.000125205
0.000146935
0.00017034
0.00019547
0.000222377
0.000251107
0.000281703
0.000314202
0.000348634
0.000385018
0.000423364
0.000463668
0.000505913
0.000550066
0.000596079
0.000643883
0.000693391
0.000744493
0.000797059
0.000850935
0.000905946
0.000961893
0.00101856
0.00107569
0.00113304
0.0011903
0.00124718
0.00130337
0.00135852
0.00141231
0.00146438
0.0015144
0.00156203
0.00160693
0.00164878
0.0016873
0.0017222
0.00175324
0.00178022
0.00180296
0.00182134
0.00183528
0.00184474
0.00184973
0.00185033
0.00184664
0.00183883
0.0018271
0.00181169
0.00179291
0.00177105
0.00174648
0.00171955
0.00169066
0.0016602
0.00162857
0.00159618
0.00156343
0.0015307
0.00149838
0.00146682
0.00143635
0.00140731
0.00137998
0.00135462
0.00133148
0.00131077
0.00129266
0.00127731
0.00126481
0.00125526
0.00124869
0.00124509
0.00124435
0.00124698
0.00125447
4.85617e-05
3.36416e-05
2.26043e-05
1.3292e-05
5.01456e-06
-1.97614e-06
-7.5467e-06
-1.16572e-05
-1.42879e-05
-1.54375e-05
-1.51223e-05
-1.33688e-05
-1.02082e-05
-5.67055e-06
2.18273e-07
7.43933e-06
1.59821e-05
2.58449e-05
3.70353e-05
4.95698e-05
6.3473e-05
7.87775e-05
9.55223e-05
0.000113752
0.000133517
0.000154867
0.000177857
0.000202539
0.000228965
0.000257183
0.000287239
0.00031917
0.000353008
0.000388775
0.000426483
0.000466131
0.000507705
0.000551176
0.000596499
0.00064361
0.000692423
0.000742836
0.000794721
0.00084793
0.000902291
0.000957611
0.00101367
0.00107023
0.00112703
0.00118379
0.0012402
0.00129595
0.00135071
0.00140414
0.0014559
0.00150563
0.001553
0.00159767
0.00163933
0.00167766
0.0017124
0.00174329
0.00177013
0.00179273
0.00181097
0.00182477
0.00183408
0.00183893
0.00183937
0.00183553
0.00182756
0.00181567
0.00180013
0.00178121
0.00175924
0.00173458
0.00170759
0.00167867
0.00164823
0.00161666
0.00158438
0.00155178
0.00151925
0.00148717
0.0014559
0.00142577
0.00139708
0.00137013
0.00134517
0.00132242
0.00130209
0.00128433
0.00126928
0.00125705
0.00124771
0.00124133
0.0012379
0.00123733
0.00124024
0.00124821
5.99204e-05
4.16122e-05
2.87126e-05
1.83527e-05
9.48884e-06
2.28253e-06
-3.2311e-06
-7.10828e-06
-9.40425e-06
-1.01742e-05
-9.47589e-06
-7.36581e-06
-3.89474e-06
8.94723e-07
6.96999e-06
1.43094e-05
2.29021e-05
3.27485e-05
4.38588e-05
5.62531e-05
6.99601e-05
8.50158e-05
0.000101463
0.000119351
0.000138731
0.000159658
0.000182189
0.000206379
0.000232284
0.000259954
0.000289438
0.000320777
0.000354005
0.000389147
0.00042622
0.000465227
0.000506158
0.00054899
0.000593681
0.000640172
0.000688383
0.000738215
0.000789546
0.000842232
0.000896106
0.000950976
0.00100663
0.00106283
0.00111931
0.0011758
0.00123199
0.00128757
0.0013422
0.00139554
0.00144725
0.00149696
0.00154435
0.00158905
0.00163075
0.00166914
0.00170393
0.00173486
0.00176173
0.00178433
0.00180255
0.00181629
0.00182551
0.00183023
0.0018305
0.00182645
0.00181825
0.0018061
0.00179027
0.00177105
0.00174877
0.0017238
0.00169652
0.00166733
0.00163664
0.00160486
0.00157241
0.00153968
0.00150708
0.00147498
0.00144374
0.00141368
0.00138511
0.00135831
0.00133353
0.00131097
0.00129084
0.00127328
0.00125842
0.00124636
0.00123718
0.00123093
0.00122763
0.0012272
0.00123027
0.00123847
6.91433e-05
4.75903e-05
3.28281e-05
2.1342e-05
1.1777e-05
4.22341e-06
-1.36757e-06
-5.1386e-06
-7.21453e-06
-7.70461e-06
-6.70817e-06
-4.31233e-06
-5.89756e-07
4.40222e-06
1.06217e-05
1.80418e-05
2.66498e-05
3.6446e-05
4.74426e-05
5.96621e-05
7.31366e-05
8.7906e-05
0.000104017
0.000121521
0.000140475
0.000160937
0.000182967
0.000206627
0.000231973
0.000259062
0.000287946
0.00031867
0.000351274
0.000385786
0.000422229
0.000460612
0.00050093
0.000543164
0.00058728
0.000633222
0.000680918
0.000730272
0.000781169
0.000833468
0.000887006
0.000941596
0.000997025
0.00105306
0.00110944
0.00116588
0.00122208
0.00127773
0.00133248
0.00138599
0.0014379
0.00148786
0.00153551
0.0015805
0.00162248
0.00166115
0.0016962
0.00172737
0.00175443
0.00177719
0.00179551
0.00180928
0.00181848
0.0018231
0.00182321
0.00181893
0.00181042
0.00179792
0.00178169
0.00176202
0.00173927
0.00171381
0.00168603
0.00165635
0.00162518
0.00159295
0.00156008
0.00152699
0.00149407
0.0014617
0.00143024
0.00140002
0.00137135
0.00134449
0.00131968
0.00129714
0.00127705
0.00125955
0.00124476
0.00123277
0.00122367
0.0012175
0.00121428
0.00121395
0.0012171
0.00122535
7.5477e-05
5.08632e-05
3.42935e-05
2.16656e-05
1.13466e-05
3.36887e-06
-2.38927e-06
-6.14765e-06
-8.09465e-06
-8.39002e-06
-7.1728e-06
-4.56028e-06
-6.47394e-07
4.49282e-06
1.08079e-05
1.82644e-05
2.68464e-05
3.6553e-05
4.73974e-05
5.9404e-05
7.26077e-05
8.70517e-05
0.000102786
0.000119867
0.000138355
0.000158312
0.000179805
0.000202897
0.000227653
0.000254132
0.000282392
0.000312484
0.000344453
0.000378334
0.000414155
0.000451932
0.000491667
0.000533347
0.000576943
0.000622408
0.000669673
0.000718649
0.000769225
0.000821267
0.000874613
0.000929081
0.000984459
0.00104051
0.00109698
0.00115359
0.00121003
0.00126597
0.00132108
0.001375
0.00142737
0.00147781
0.00152597
0.00157148
0.00161399
0.00165316
0.00168868
0.00172028
0.00174772
0.00177078
0.00178933
0.00180325
0.00181249
0.00181706
0.00181703
0.0018125
0.00180366
0.00179074
0.001774
0.00175377
0.00173041
0.00170429
0.00167583
0.00164546
0.0016136
0.00158071
0.0015472
0.00151351
0.00148005
0.00144719
0.0014153
0.00138471
0.00135572
0.0013286
0.0013036
0.00128091
0.00126071
0.00124313
0.0012283
0.0012163
0.00120719
0.00120105
0.00119787
0.00119758
0.00120077
0.001209
7.82738e-05
5.0796e-05
3.25033e-05
1.87563e-05
7.67116e-06
-7.69456e-07
-6.75146e-06
-1.05641e-05
-1.24536e-05
-1.26259e-05
-1.12571e-05
-8.49332e-06
-4.45093e-06
7.8132e-07
7.14005e-06
1.45847e-05
2.30952e-05
3.26692e-05
4.33198e-05
5.50731e-05
6.79662e-05
8.20454e-05
9.73647e-05
0.000113984
0.000131968
0.000151385
0.000172305
0.000194799
0.000218936
0.000244782
0.000272399
0.000301846
0.000333174
0.000366427
0.000401638
0.000438832
0.000478016
0.000519187
0.000562321
0.000607377
0.000654294
0.000702988
0.000753355
0.000805262
0.000858554
0.000913048
0.000968539
0.00102479
0.00108154
0.00113851
0.00119539
0.00125185
0.00130755
0.00136211
0.00141516
0.00146634
0.00151524
0.00156151
0.00160476
0.00164465
0.00168086
0.00171309
0.00174109
0.00176462
0.00178354
0.00179771
0.0018071
0.00181168
0.00181153
0.00180677
0.00179758
0.00178418
0.00176687
0.00174597
0.00172186
0.00169494
0.00166564
0.0016344
0.00160167
0.00156791
0.00153357
0.00149908
0.00146486
0.00143131
0.00139878
0.00136762
0.00133814
0.00131059
0.00128522
0.00126222
0.00124177
0.001224
0.00120901
0.0011969
0.00118774
0.00118156
0.00117838
0.00117811
0.00118133
0.00118956
7.696e-05
4.68135e-05
2.68971e-05
1.20769e-05
2.3942e-07
-8.67658e-06
-1.49152e-05
-1.88286e-05
-2.07155e-05
-2.08243e-05
-1.9365e-05
-1.65103e-05
-1.23969e-05
-7.12844e-06
-7.78999e-07
6.60375e-06
1.49954e-05
2.43917e-05
3.48054e-05
4.62639e-05
5.88062e-05
7.24817e-05
8.7348e-05
0.000103469
0.000120915
0.000139759
0.000160077
0.000181945
0.000205439
0.000230632
0.000257593
0.000286387
0.000317074
0.000349705
0.000384323
0.000420959
0.000459629
0.000500336
0.000543065
0.000587781
0.000634431
0.000682936
0.000733197
0.000785087
0.000838454
0.000893118
0.000948875
0.00100549
0.0010627
0.00112022
0.00117774
0.00123492
0.00129141
0.00134684
0.00140081
0.00145294
0.00150282
0.00155008
0.00159431
0.00163515
0.00167226
0.00170533
0.00173406
0.00175824
0.00177768
0.00179224
0.00180187
0.00180654
0.00180633
0.00180135
0.00179179
0.00177789
0.00175994
0.00173829
0.00171332
0.00168547
0.00165518
0.00162291
0.00158914
0.00155434
0.00151897
0.00148349
0.00144833
0.00141389
0.00138055
0.00134864
0.00131849
0.00129034
0.00126445
0.00124101
0.00122017
0.00120209
0.00118686
0.00117456
0.00116526
0.00115901
0.0011558
0.00115555
0.00115881
0.0011671
7.10168e-05
3.8389e-05
1.69538e-05
1.11892e-06
-1.14412e-05
-2.0828e-05
-2.73391e-05
-3.13845e-05
-3.33108e-05
-3.34052e-05
-3.19086e-05
-2.90179e-05
-2.48884e-05
-1.96377e-05
-1.33498e-05
-6.07904e-06
2.14595e-06
1.13189e-05
2.14522e-05
3.25742e-05
4.47262e-05
5.79602e-05
7.23374e-05
8.79267e-05
0.000104803
0.000123044
0.000142734
0.000163953
0.000186785
0.00021131
0.000237605
0.000265743
0.000295793
0.000327815
0.000361859
0.000397964
0.000436157
0.000476447
0.000518828
0.000563271
0.000609731
0.000658136
0.00070839
0.000760372
0.000813934
0.000868901
0.000925065
0.000982196
0.00104003
0.00109828
0.00115662
0.00121472
0.00127221
0.0013287
0.00138381
0.00143712
0.00148821
0.00153668
0.00158212
0.00162414
0.00166238
0.00169648
0.00172617
0.00175117
0.00177129
0.00178639
0.00179637
0.00180124
0.00180103
0.00179587
0.00178595
0.00177152
0.00175289
0.00173041
0.0017045
0.00167561
0.00164419
0.00161075
0.00157577
0.00153975
0.00150319
0.00146654
0.00143026
0.00139476
0.00136043
0.00132762
0.00129663
0.00126775
0.00124119
0.00121717
0.00119584
0.00117734
0.00116177
0.0011492
0.00113971
0.00113335
0.00113009
0.00112985
0.00113319
0.00114166
5.99679e-05
2.50353e-05
2.18583e-06
-1.45991e-05
-2.78431e-05
-3.76855e-05
-4.44737e-05
-4.86715e-05
-5.06695e-05
-5.07901e-05
-4.93023e-05
-4.64251e-05
-4.23305e-05
-3.71487e-05
-3.09726e-05
-2.38629e-05
-1.58517e-05
-6.94725e-06
2.86282e-06
1.36076e-05
2.53304e-05
3.80865e-05
5.19408e-05
6.69664e-05
8.32433e-05
0.000100857
0.000119894
0.000140446
0.000162601
0.000186447
0.00021207
0.000239554
0.000268974
0.0003004
0.000333891
0.000369496
0.000407249
0.000447168
0.000489254
0.000533488
0.00057983
0.000628215
0.000678552
0.000730726
0.000784592
0.000839978
0.000896679
0.000954463
0.00101307
0.0010722
0.00113153
0.00119072
0.0012494
0.00130717
0.00136362
0.00141833
0.00147085
0.00152077
0.00156765
0.00161108
0.00165066
0.00168604
0.00171688
0.00174291
0.0017639
0.00177969
0.00179018
0.00179535
0.00179523
0.00178996
0.00177971
0.00176475
0.0017454
0.00172205
0.00169511
0.00166507
0.00163241
0.00159765
0.00156132
0.00152393
0.00148601
0.00144803
0.00141047
0.00137375
0.00133827
0.00130439
0.00127243
0.00124266
0.00121531
0.00119059
0.00116865
0.00114964
0.00113364
0.00112075
0.00111101
0.0011045
0.00110118
0.00110097
0.00110445
0.0011132
4.33706e-05
6.29836e-06
-1.78639e-05
-3.55328e-05
-4.94179e-05
-5.96947e-05
-6.67578e-05
-7.11209e-05
-7.32154e-05
-7.3396e-05
-7.19574e-05
-6.91382e-05
-6.51255e-05
-6.00605e-05
-5.40444e-05
-4.71429e-05
-3.93912e-05
-3.0799e-05
-2.13542e-05
-1.10263e-05
2.3022e-07
1.24733e-05
2.57719e-05
4.02041e-05
5.58553e-05
7.28162e-05
9.11816e-05
0.000111048
0.000132513
0.000155673
0.000180623
0.000207454
0.000236253
0.000267098
0.000300058
0.000335191
0.000372538
0.000412128
0.00045397
0.000498051
0.000544338
0.000592773
0.000643272
0.000695723
0.000749985
0.00080589
0.000863235
0.000921789
0.000981288
0.00104144
0.00110191
0.00116236
0.0012224
0.00128162
0.00133961
0.00139592
0.0014501
0.0015017
0.00155025
0.00159533
0.00163651
0.00167339
0.00170562
0.0017329
0.00175497
0.00177165
0.00178282
0.00178843
0.00178852
0.00178321
0.00177269
0.00175723
0.00173716
0.00171289
0.00168486
0.00165358
0.00161957
0.00158338
0.00154556
0.00150665
0.00146721
0.00142775
0.00138874
0.00135065
0.00131388
0.00127879
0.00124572
0.00121494
0.00118668
0.00116115
0.00113851
0.00111888
0.00110238
0.00108909
0.00107906
0.00107236
0.00106898
0.00106882
0.00107249
0.00108166
2.08107e-05
-1.82466e-05
-4.36252e-05
-6.21135e-05
-7.65958e-05
-8.72831e-05
-9.46148e-05
-9.91514e-05
-0.000101362
-0.000101632
-0.000100278
-9.75566e-05
-9.36692e-05
-8.87663e-05
-8.29556e-05
-7.63074e-05
-6.88595e-05
-6.06223e-05
-5.15832e-05
-4.17107e-05
-3.09571e-05
-1.92611e-05
-6.5495e-06
7.26054e-06
2.226e-05
3.8546e-05
5.622e-05
7.53861e-05
9.61497e-05
0.000118616
0.00014289
0.000169071
0.000197257
0.000227535
0.000259983
0.000294667
0.000331639
0.000370935
0.000412572
0.000456545
0.000502827
0.000551367
0.000602086
0.000654878
0.000709605
0.000766103
0.000824174
0.000883587
0.000944079
0.00100536
0.00106709
0.00112892
0.00119047
0.00125132
0.00131103
0.00136914
0.00142518
0.00147868
0.00152915
0.00157613
0.00161916
0.00165781
0.00169169
0.00172048
0.00174388
0.00176167
0.00177372
0.00177997
0.00178043
0.00177521
0.00176451
0.0017486
0.00172784
0.00170265
0.00167349
0.00164091
0.00160546
0.00156771
0.00152827
0.00148771
0.00144661
0.00140551
0.00136491
0.0013253
0.00128709
0.00125066
0.00121634
0.00118442
0.00115514
0.0011287
0.00110525
0.00108494
0.00106786
0.0010541
0.00104374
0.00103682
0.00103336
0.00103326
0.00103717
0.00104688
-8.10117e-06
-4.89987e-05
-7.55026e-05
-9.47485e-05
-0.000109785
-0.000120858
-0.000128451
-0.000133166
-0.00013551
-0.000135893
-0.000134656
-0.00013207
-0.000128349
-0.000123651
-0.000118089
-0.000111738
-0.000104636
-9.67951e-05
-8.82019e-05
-7.88232e-05
-6.86087e-05
-5.74936e-05
-4.54006e-05
-3.22416e-05
-1.79198e-05
-2.33164e-06
1.46312e-05
3.30805e-05
5.31301e-05
7.48945e-05
9.84873e-05
0.000124019
0.000151596
0.000181314
0.000213261
0.000247513
0.00028413
0.000323154
0.000364611
0.000408504
0.00045481
0.000503486
0.000554456
0.000607622
0.000662852
0.000719983
0.000778822
0.000839143
0.000900687
0.000963159
0.00102623
0.00108955
0.00115272
0.00121532
0.0012769
0.00133699
0.0013951
0.00145072
0.00150335
0.00155249
0.00159765
0.00163836
0.0016742
0.0017048
0.00172982
0.00174902
0.00176222
0.00176934
0.00177039
0.00176545
0.00175472
0.00173849
0.0017171
0.00169102
0.00166073
0.00162681
0.00158984
0.00155046
0.00150928
0.00146694
0.00142403
0.00138115
0.00133881
0.00129753
0.00125774
0.00121983
0.00118415
0.00115097
0.00112056
0.0010931
0.00106875
0.00104766
0.00102993
0.00101565
0.00100489
0.000997732
0.000994179
0.000994145
0.000998342
0.00100868
-4.37308e-05
-8.6333e-05
-0.000113877
-0.000133822
-0.000149373
-0.000160808
-0.000168652
-0.000173551
-0.000176042
-0.000176563
-0.000175472
-0.000173057
-0.00016954
-0.000165088
-0.000159817
-0.000153805
-0.000147092
-0.000139689
-0.000131582
-0.000122736
-0.000113098
-0.000102599
-9.11573e-05
-7.86798e-05
-6.50636e-05
-5.01987e-05
-3.39697e-05
-1.62569e-05
3.06208e-06
2.4111e-05
4.70129e-05
7.18879e-05
9.88507e-05
0.000128008
0.000159456
0.000193277
0.000229541
0.000268297
0.000309577
0.00035339
0.00039972
0.000448527
0.000499744
0.000553276
0.000608997
0.000666749
0.000726349
0.000787573
0.000850168
0.000913847
0.000978286
0.00104313
0.00110798
0.00117242
0.00123598
0.00129819
0.00135854
0.0014165
0.00147153
0.00152311
0.0015707
0.00161381
0.00165195
0.00168471
0.00171172
0.00173269
0.00174741
0.00175575
0.00175769
0.00175331
0.00174279
0.00172641
0.00170455
0.00167767
0.00164631
0.00161105
0.00157255
0.00153145
0.00148845
0.0014442
0.00139936
0.00135455
0.00131033
0.00126723
0.00122572
0.00118619
0.00114901
0.00111446
0.00108279
0.00105421
0.00102887
0.00100692
0.000988452
0.000973573
0.000962366
0.000954917
0.000951245
0.000951271
0.000955781
0.000966843
-8.64226e-05
-0.000130602
-0.000159106
-0.000179696
-0.000195722
-0.000207499
-0.000215587
-0.000220673
-0.000223326
-0.000224007
-0.000223092
-0.000220882
-0.000217608
-0.000213441
-0.000208504
-0.000202874
-0.000196592
-0.000189669
-0.00018209
-0.000173817
-0.000164795
-0.00015495
-0.000144197
-0.000132435
-0.000119557
-0.000105446
-8.99791e-05
-7.3029e-05
-5.44646e-05
-3.4153e-05
-1.1962e-05
1.22376e-05
3.85693e-05
6.71483e-05
9.80786e-05
0.000131451
0.000167341
0.000205804
0.000246877
0.000290573
0.000336883
0.000385771
0.000437175
0.000491005
0.00054714
0.000605428
0.000665708
0.000727753
0.00079132
0.000856133
0.000921876
0.0009882
0.00105472
0.00112101
0.00118661
0.00125103
0.00131375
0.00137422
0.00143189
0.00148618
0.00153653
0.0015824
0.00162325
0.00165862
0.00168809
0.00171131
0.00172801
0.00173803
0.00174131
0.0017379
0.00172796
0.00171176
0.00168969
0.00166222
0.00162992
0.00159341
0.0015534
0.00151057
0.00146568
0.00141944
0.00137254
0.00132566
0.00127941
0.00123434
0.00119095
0.00114966
0.00111083
0.00107478
0.00104174
0.00101192
0.000985478
0.00096256
0.000943274
0.000927718
0.00091599
0.000908191
0.000904356
0.000904419
0.000909248
0.000921083
-0.000136499
-0.000182136
-0.000211525
-0.00023271
-0.000249178
-0.000261275
-0.000269601
-0.000274881
-0.000277711
-0.000278575
-0.000277866
-0.000275895
-0.000272902
-0.000269063
-0.000264501
-0.000259297
-0.000253492
-0.000247094
-0.000240089
-0.000232434
-0.000224071
-0.000214924
-0.000204899
-0.000193894
-0.000181794
-0.000168476
-0.000153809
-0.000137658
-0.000119884
-0.000100345
-7.89e-05
-5.54115e-05
-2.9748e-05
-1.787e-06
2.85824e-05
6.14569e-05
9.69164e-05
0.000135022
0.000175812
0.000219305
0.000265493
0.000314344
0.000365799
0.000419776
0.000476163
0.000534825
0.000595577
0.000658243
0.000722584
0.000788336
0.0008552
0.000922841
0.000990887
0.00105892
0.0011265
0.00119313
0.00125827
0.00132138
0.00138187
0.00143915
0.0014926
0.00154164
0.00158569
0.00162421
0.00165673
0.00168281
0.00170215
0.00171451
0.00171977
0.00171794
0.00170914
0.00169363
0.00167179
0.0016441
0.00161115
0.00157361
0.00153221
0.00148772
0.00144094
0.00139264
0.0013436
0.00129453
0.00124609
0.00119889
0.00115345
0.00111023
0.0010696
0.00103188
0.000997322
0.00096613
0.000938467
0.000914469
0.000894251
0.000877918
0.000865579
0.000857352
0.000853288
0.000853341
0.000858467
0.000871091
-0.000194264
-0.000241244
-0.000271447
-0.00029318
-0.000310058
-0.00032246
-0.000331022
-0.000336502
-0.000339527
-0.000340599
-0.000340128
-0.000338433
-0.000335761
-0.000332292
-0.000328153
-0.000323422
-0.000318142
-0.000312319
-0.000305937
-0.000298951
-0.000291298
-0.000282898
-0.000273654
-0.000263456
-0.000252184
-0.000239709
-0.000225893
-0.000210593
-0.000193662
-0.000174949
-0.000154306
-0.000131588
-0.000106658
-7.93855e-05
-4.96562e-05
-1.73693e-05
1.75572e-05
5.51856e-05
9.55559e-05
0.000138685
0.000184567
0.000233171
0.000284442
0.000338301
0.000394643
0.000453343
0.000514235
0.000577174
0.000641921
0.000708239
0.000775856
0.000844463
0.000913713
0.000983215
0.00105254
0.0011212
0.00118869
0.00125445
0.00131788
0.00137835
0.00143524
0.0014879
0.0015357
0.00157804
0.00161435
0.00164414
0.00166699
0.0016826
0.00169076
0.00169142
0.00168463
0.00167062
0.00164973
0.00162245
0.00158938
0.00155121
0.00150873
0.00146278
0.00141421
0.00136388
0.00131264
0.00126127
0.00121051
0.001161
0.00111333
0.00106798
0.00102536
0.000985792
0.000949539
0.000916808
0.000887763
0.000862538
0.000841252
0.000824014
0.000810946
0.000802182
0.000797796
0.000797763
0.000803132
0.00081652
-0.000259998
-0.000308212
-0.000339164
-0.000361401
-0.000378663
-0.000391357
-0.000400154
-0.000405847
-0.000409086
-0.000410395
-0.000410195
-0.000408816
-0.000406509
-0.000403458
-0.00039979
-0.000395586
-0.000390885
-0.000385694
-0.000379991
-0.000373733
-0.00036685
-0.000359258
-0.000350856
-0.000341529
-0.000331151
-0.000319587
-0.000306691
-0.000292313
-0.000276299
-0.000258491
-0.000238736
-0.000216881
-0.000192784
-0.000166313
-0.000137351
-0.000105796
-7.1569e-05
-3.46096e-05
5.11838e-06
4.76285e-05
9.2911e-05
0.000140934
0.000191642
0.00024496
0.000300792
0.000359015
0.000419463
0.000482114
0.000546655
0.000612905
0.000680635
0.000749576
0.000819421
0.000889824
0.000960391
0.00103068
0.0011002
0.00116841
0.00123472
0.00129851
0.00135911
0.00141584
0.00146802
0.00151496
0.00155602
0.0015906
0.00161817
0.00163831
0.0016507
0.00165518
0.00165171
0.00164044
0.00162165
0.0015958
0.00156349
0.00152544
0.00148247
0.00143548
0.00138541
0.00133321
0.00127981
0.0012261
0.00117289
0.00112092
0.00107081
0.00102312
0.000978267
0.000936621
0.00089845
0.000863967
0.000833338
0.000806697
0.000784163
0.000765853
0.000751898
0.000742455
0.000737618
0.000737388
0.00074291
0.00075699
-0.000333963
-0.000383307
-0.000414944
-0.000437648
-0.000455268
-0.000468245
-0.000477282
-0.000483202
-0.000486681
-0.000488258
-0.000488368
-0.000487348
-0.000485455
-0.000482875
-0.000479736
-0.000476117
-0.000472057
-0.000467562
-0.000462608
-0.000457146
-0.000451105
-0.000444397
-0.000436915
-0.00042854
-0.000419141
-0.000408574
-0.000396691
-0.000383333
-0.000368341
-0.000351551
-0.000332803
-0.000311945
-0.00028883
-0.000263327
-0.000235322
-0.000204717
-0.000171439
-0.000135437
-9.66854e-05
-5.51791e-05
-1.09375e-05
3.59999e-05
8.55747e-05
0.000137712
0.000192324
0.000249316
0.000308603
0.000369917
0.000433259
0.000498429
0.000565235
0.000633461
0.000702867
0.000773177
0.000844064
0.000915152
0.000986011
0.00105615
0.00112502
0.00119201
0.00125647
0.00131768
0.0013749
0.00142738
0.00147438
0.00151515
0.00154905
0.00157548
0.00159398
0.00160421
0.00160599
0.00159934
0.00158444
0.00156166
0.00153157
0.00149488
0.00145245
0.00140523
0.00135426
0.00130059
0.00124526
0.00118928
0.00113357
0.00107899
0.00102624
0.000975942
0.000928592
0.000884582
0.00084421
0.0008077
0.000775223
0.000746917
0.000722902
0.000703299
0.000688252
0.000677937
0.000672477
0.000671897
0.00067744
0.000692092
-0.000416399
-0.000466772
-0.000499035
-0.00052217
-0.00054013
-0.000553385
-0.000562669
-0.000568835
-0.000572582
-0.000574465
-0.000574929
-0.000574319
-0.000572895
-0.000570846
-0.000568299
-0.000565334
-0.000561988
-0.000558266
-0.00055414
-0.000549559
-0.000544449
-0.000538716
-0.000532252
-0.000524932
-0.000516619
-0.000507166
-0.000496417
-0.00048421
-0.00047038
-0.00045476
-0.00043719
-0.000417514
-0.00039559
-0.000371293
-0.000344514
-0.000315169
-0.0002832
-0.000248572
-0.000211276
-0.000171329
-0.000128767
-8.36457e-05
-3.60348e-05
1.39857e-05
6.63291e-05
0.000120907
0.000177633
0.00023638
0.000297075
0.000359628
0.000423907
0.000489758
0.000557061
0.000625649
0.000695303
0.000765756
0.000836688
0.000907709
0.000978355
0.00104808
0.00111626
0.0011822
0.00124512
0.00130419
0.00135855
0.00140733
0.00144968
0.00148481
0.00151202
0.00153075
0.00154059
0.00154134
0.00153301
0.00151584
0.00149027
0.00145697
0.00141682
0.00137079
0.00132002
0.00126568
0.00120895
0.001151
0.0010929
0.00103563
0.000980059
0.000926897
0.000876728
0.000830007
0.000787076
0.000748185
0.000713519
0.000683222
0.000657417
0.000636233
0.000619825
0.000608391
0.00060208
0.000600951
0.000606336
0.000621388
-0.000507529
-0.000558832
-0.000591664
-0.000615196
-0.000633479
-0.000647012
-0.000656556
-0.000662993
-0.000667042
-0.000669274
-0.000670142
-0.000669999
-0.000669108
-0.000667658
-0.000665779
-0.000663547
-0.000661001
-0.000658142
-0.00065494
-0.000651342
-0.00064727
-0.000642628
-0.000637302
-0.000631165
-0.000624076
-0.000615883
-0.000606427
-0.000595542
-0.00058306
-0.000568816
-0.000552648
-0.000534408
-0.000513962
-0.000491194
-0.000466015
-0.000438362
-0.000408199
-0.000375524
-0.000340357
-0.000302747
-0.000262763
-0.000220489
-0.000176018
-0.000129446
-8.08677e-05
-3.03667e-05
2.19857e-05
7.61334e-05
0.000132031
0.000189638
0.000248955
0.000309938
0.000372599
0.000436936
0.000502892
0.000570382
0.000639269
0.000709339
0.000780284
0.000851691
0.000923031
0.000993654
0.00106279
0.00112955
0.00119297
0.00125199
0.00130554
0.00135256
0.00139203
0.00142308
0.00144496
0.00145714
0.00145935
0.00145155
0.00143403
0.00140731
0.00137221
0.00132973
0.00128106
0.00122752
0.00117045
0.00111121
0.00105108
0.000991259
0.000932772
0.000876506
0.000823176
0.00077334
0.000727413
0.000685696
0.000648402
0.000615692
0.000587698
0.000564559
0.000546443
0.000533571
0.000526119
0.000524183
0.000529181
0.000544408
-0.000607551
-0.000659688
-0.000693035
-0.000716934
-0.000735528
-0.000749339
-0.000759161
-0.000765899
-0.000770291
-0.000772921
-0.000774252
-0.000774642
-0.000774357
-0.000773587
-0.000772461
-0.000771057
-0.000769411
-0.000767522
-0.00076536
-0.000762867
-0.000759963
-0.000756551
-0.000752514
-0.000747721
-0.000742028
-0.000735282
-0.00072732
-0.000717976
-0.000707083
-0.00069448
-0.000680012
-0.000663543
-0.000644953
-0.000624151
-0.000601074
-0.000575693
-0.000548015
-0.000518081
-0.000485962
-0.000451758
-0.000415588
-0.000377585
-0.000337885
-0.00029662
-0.000253904
-0.000209829
-0.000164455
-0.000117794
-6.98098e-05
-2.04621e-05
3.02696e-05
8.27436e-05
0.000137025
0.000193343
0.000251868
0.00031282
0.000376355
0.000442531
0.000511297
0.000582472
0.000655709
0.000730485
0.000806084
0.0008816
0.000955949
0.0010279
0.00109609
0.00115913
0.00121558
0.00126411
0.00130351
0.00133278
0.00135117
0.00135827
0.00135401
0.00133868
0.00131293
0.00127772
0.00123427
0.00118401
0.0011285
0.00106932
0.00100803
0.000946093
0.000884813
0.000825309
0.000768502
0.000715112
0.00066568
0.000620595
0.000580125
0.000544467
0.000513775
0.000488203
0.000467937
0.00045322
0.000444261
0.000441198
0.000445524
0.000460646
-0.000716643
-0.000769518
-0.000803327
-0.000827567
-0.00084646
-0.000860559
-0.00087068
-0.000877754
-0.000882536
-0.000885622
-0.000887484
-0.000888482