/*--------------------------------*- C++ -*----------------------------------*\
  =========                 |
  \\      /  F ield         | OpenFOAM: The Open Source CFD Toolbox
   \\    /   O peration     | Website:  https://openfoam.org
    \\  /    A nd           | Version:  9
     \\/     M anipulation  |
\*---------------------------------------------------------------------------*/
FoamFile
{
    format      ascii;
    class       surfaceScalarField;
    location    "0.75";
    object      phi;
}
// * * * * * * * * * * * * * * * * * * * * * * * * * * * * * * * * * * * * * //

dimensions      [0 3 -1 0 0 0 0];

internalField   nonuniform List<scalar> 
19800
(
1.23443e-10
-1.23537e-10
2.02377e-10
-7.89358e-11
1.25134e-10
7.72393e-11
-1.28596e-10
2.53731e-10
-5.48909e-10
4.20316e-10
-1.11252e-09
5.63616e-10
-1.79257e-09
6.80042e-10
-2.56359e-09
7.71024e-10
-3.40341e-09
8.3982e-10
-4.29358e-09
8.90169e-10
-5.2193e-09
9.25718e-10
-6.16906e-09
9.4976e-10
-7.13419e-09
9.65127e-10
-8.10835e-09
9.74163e-10
-9.0871e-09
9.78744e-10
-1.00674e-08
9.80319e-10
-1.10474e-08
9.79964e-10
-1.20258e-08
9.78443e-10
-1.30021e-08
9.76255e-10
-1.39758e-08
9.73687e-10
-1.49466e-08
9.70855e-10
-1.59144e-08
9.67741e-10
-1.68786e-08
9.64226e-10
-1.78387e-08
9.60113e-10
-1.87938e-08
9.55147e-10
-1.97429e-08
9.49036e-10
-2.06843e-08
9.41456e-10
-2.16164e-08
9.32067e-10
-2.25369e-08
9.20514e-10
-2.34433e-08
9.0644e-10
-2.43328e-08
8.89492e-10
-2.52022e-08
8.69321e-10
-2.60478e-08
8.45591e-10
-2.68657e-08
8.17983e-10
-2.76519e-08
7.86196e-10
-2.84019e-08
7.4996e-10
-2.91109e-08
7.09039e-10
-2.97742e-08
6.63237e-10
-3.03866e-08
6.12402e-10
-3.0943e-08
5.56428e-10
-3.14383e-08
4.9527e-10
-3.18672e-08
4.28944e-10
-3.22247e-08
3.57535e-10
-3.25059e-08
2.812e-10
-3.27061e-08
2.00173e-10
-3.28209e-08
1.14777e-10
-3.28463e-08
2.54317e-11
-3.27788e-08
-6.7552e-11
-3.26153e-08
-1.63453e-10
-3.23536e-08
-2.61689e-10
-3.19921e-08
-3.61565e-10
-3.15297e-08
-4.62315e-10
-3.09666e-08
-5.63107e-10
-3.03036e-08
-6.63061e-10
-2.95423e-08
-7.61253e-10
-2.86856e-08
-8.5673e-10
-2.77371e-08
-9.48525e-10
-2.67014e-08
-1.03567e-09
-2.55841e-08
-1.11723e-09
-2.43919e-08
-1.19227e-09
-2.31319e-08
-1.25994e-09
-2.18125e-08
-1.31944e-09
-2.04425e-08
-1.37004e-09
-1.90313e-08
-1.41113e-09
-1.75891e-08
-1.44223e-09
-1.61262e-08
-1.46294e-09
-1.46531e-08
-1.47302e-09
-1.31808e-08
-1.47237e-09
-1.17198e-08
-1.46101e-09
-1.02806e-08
-1.43912e-09
-8.87361e-09
-1.40702e-09
-7.50849e-09
-1.36512e-09
-6.1945e-09
-1.31398e-09
-4.94024e-09
-1.25426e-09
-3.75357e-09
-1.18668e-09
-2.64152e-09
-1.11204e-09
-1.61032e-09
-1.0312e-09
-6.65319e-10
-9.45009e-10
1.89091e-10
-8.54409e-10
9.49577e-10
-7.60489e-10
1.61328e-09
-6.63708e-10
2.17843e-09
-5.65146e-10
2.6441e-09
-4.65664e-10
3.01014e-09
-3.6605e-10
3.27723e-09
-2.67088e-10
3.44681e-09
-1.69575e-10
3.52114e-09
-7.43331e-11
3.50328e-09
1.78661e-11
3.39748e-09
1.05797e-10
3.20899e-09
1.8849e-10
2.9446e-09
2.6439e-10
2.61304e-09
3.31568e-10
2.2256e-09
3.87432e-10
1.79718e-09
4.28425e-10
1.34759e-09
4.49587e-10
9.0351e-10
4.4408e-10
5.00545e-10
4.02964e-10
1.85155e-10
3.1539e-10
1.22279e-11
1.7293e-10
1.22292e-11
8.13452e-11
-2.04884e-10
-4.50965e-11
4.75026e-11
-5.22149e-10
5.54283e-10
-1.3988e-09
1.13037e-09
-2.66257e-09
1.68408e-09
-4.27251e-09
2.17357e-09
-6.17613e-09
2.58367e-09
-8.31914e-09
2.91404e-09
-1.06509e-08
3.17157e-09
-1.3127e-08
3.36622e-09
-1.571e-08
3.50873e-09
-1.83696e-08
3.60938e-09
-2.10819e-08
3.67744e-09
-2.38286e-08
3.72082e-09
-2.65958e-08
3.74602e-09
-2.93738e-08
3.75824e-09
-3.21552e-08
3.76143e-09
-3.49352e-08
3.75845e-09
-3.77103e-08
3.75129e-09
-4.04777e-08
3.74114e-09
-4.32354e-08
3.72859e-09
-4.59814e-08
3.71373e-09
-4.87135e-08
3.69627e-09
-5.1429e-08
3.67562e-09
-5.41248e-08
3.65097e-09
-5.67971e-08
3.62132e-09
-5.94412e-08
3.58559e-09
-6.20518e-08
3.54261e-09
-6.46224e-08
3.49114e-09
-6.71459e-08
3.42995e-09
-6.96142e-08
3.35782e-09
-7.20184e-08
3.27351e-09
-7.43487e-08
3.17588e-09
-7.65946e-08
3.06383e-09
-7.87447e-08
2.93635e-09
-8.07873e-08
2.79252e-09
-8.27098e-08
2.63158e-09
-8.44995e-08
2.45288e-09
-8.6143e-08
2.25598e-09
-8.76272e-08
2.04059e-09
-8.89386e-08
1.80667e-09
-9.0064e-08
1.55437e-09
-9.09906e-08
1.28411e-09
-9.17059e-08
9.96549e-10
-9.21984e-08
6.92629e-10
-9.24572e-08
3.73594e-10
-9.24729e-08
4.11129e-11
-9.22368e-08
-3.03667e-10
-9.17421e-08
-6.58118e-10
-9.09837e-08
-1.02007e-09
-8.99583e-08
-1.38701e-09
-8.86644e-08
-1.75616e-09
-8.71029e-08
-2.12458e-09
-8.52769e-08
-2.48911e-09
-8.31916e-08
-2.84651e-09
-8.08549e-08
-3.19345e-09
-7.82769e-08
-3.52653e-09
-7.54702e-08
-3.84241e-09
-7.24496e-08
-4.13781e-09
-6.92323e-08
-4.40955e-09
-6.58376e-08
-4.65467e-09
-6.22866e-08
-4.87044e-09
-5.86022e-08
-5.0544e-09
-5.48089e-08
-5.20445e-09
-5.09323e-08
-5.31887e-09
-4.69988e-08
-5.39638e-09
-4.30357e-08
-5.43612e-09
-3.90704e-08
-5.43771e-09
-3.51301e-08
-5.40127e-09
-3.12419e-08
-5.32734e-09
-2.74319e-08
-5.21696e-09
-2.37255e-08
-5.07157e-09
-2.01465e-08
-4.89302e-09
-1.67172e-08
-4.68349e-09
-1.34584e-08
-4.44548e-09
-1.03888e-08
-4.1817e-09
-7.52491e-09
-3.89505e-09
-4.88137e-09
-3.58856e-09
-2.47043e-09
-3.26535e-09
-3.02335e-10
-2.92858e-09
1.61522e-09
-2.58126e-09
3.27651e-09
-2.22644e-09
4.67804e-09
-1.86719e-09
5.81848e-09
-1.50649e-09
6.69868e-09
-1.14729e-09
7.32172e-09
-7.92617e-10
7.69304e-09
-4.45648e-10
7.82072e-09
-1.09813e-10
7.71564e-09
2.10879e-10
7.39223e-09
5.11898e-10
6.86912e-09
7.87503e-10
6.17014e-09
1.03054e-09
5.32575e-09
1.23183e-09
4.3747e-09
1.37947e-09
3.36615e-09
1.45814e-09
2.3616e-09
1.44863e-09
1.43599e-09
1.32857e-09
6.75983e-10
1.0754e-09
1.71458e-10
6.77457e-10
1.83688e-10
-7.72571e-11
-1.2763e-10
-5.64817e-10
5.35065e-10
-1.58679e-09
1.57625e-09
-3.1748e-09
2.71838e-09
-5.30902e-09
3.8183e-09
-7.93735e-09
4.8019e-09
-1.09923e-08
5.63856e-09
-1.4402e-08
6.32383e-09
-1.80979e-08
6.86745e-09
-2.20178e-08
7.2861e-09
-2.61081e-08
7.599e-09
-3.0324e-08
7.82534e-09
-3.46294e-08
7.98285e-09
-3.89957e-08
8.08706e-09
-4.34006e-08
8.15098e-09
-4.78275e-08
8.18513e-09
-5.22638e-08
8.19769e-09
-5.67001e-08
8.19472e-09
-6.11292e-08
8.18045e-09
-6.55457e-08
8.15758e-09
-6.99446e-08
8.12751e-09
-7.43215e-08
8.09062e-09
-7.86717e-08
8.04648e-09
-8.29901e-08
7.99401e-09
-8.72707e-08
7.93164e-09
-9.15068e-08
7.85744e-09
-9.56905e-08
7.76924e-09
-9.98126e-08
7.66467e-09
-1.03863e-07
7.54129e-09
-1.07829e-07
7.39658e-09
-1.117e-07
7.22805e-09
-1.15459e-07
7.03327e-09
-1.19093e-07
6.80991e-09
-1.22585e-07
6.55577e-09
-1.25918e-07
6.26887e-09
-1.29073e-07
5.94744e-09
-1.32031e-07
5.59001e-09
-1.34774e-07
5.1954e-09
-1.37281e-07
4.76282e-09
-1.39532e-07
4.29188e-09
-1.41508e-07
3.78263e-09
-1.43189e-07
3.23561e-09
-1.44557e-07
2.65184e-09
-1.45593e-07
2.03291e-09
-1.46281e-07
1.38092e-09
-1.46606e-07
6.98469e-10
-1.46555e-07
-9.96313e-12
-1.46115e-07
-7.43642e-10
-1.45278e-07
-1.49519e-09
-1.44037e-07
-2.26094e-09
-1.42389e-07
-3.03549e-09
-1.40332e-07
-3.81306e-09
-1.37869e-07
-4.58753e-09
-1.35006e-07
-5.35246e-09
-1.31751e-07
-6.10119e-09
-1.28117e-07
-6.82693e-09
-1.24121e-07
-7.52284e-09
-1.19781e-07
-8.18214e-09
-1.15121e-07
-8.79821e-09
-1.10166e-07
-9.3647e-09
-1.04945e-07
-9.87566e-09
-9.94897e-08
-1.03256e-08
-9.38344e-08
-1.07097e-08
-8.80152e-08
-1.10236e-08
-8.20699e-08
-1.12641e-08
-7.60378e-08
-1.14285e-08
-6.99588e-08
-1.15151e-08
-6.38733e-08
-1.15232e-08
-5.78215e-08
-1.1453e-08
-5.18434e-08
-1.13055e-08
-4.59775e-08
-1.10828e-08
-4.02614e-08
-1.07877e-08
-3.47304e-08
-1.0424e-08
-2.9418e-08
-9.99584e-09
-2.43552e-08
-9.5083e-09
-1.95702e-08
-8.96676e-09
-1.50882e-08
-8.37703e-09
-1.09315e-08
-7.7452e-09
-7.11936e-09
-7.07753e-09
-3.66758e-09
-6.38036e-09
-5.88876e-10
-5.65997e-09
2.10738e-09
-4.9227e-09
4.41498e-09
-4.17479e-09
6.33101e-09
-3.42252e-09
7.85592e-09
-2.67219e-09
8.99363e-09
-1.93033e-09
9.75177e-09
-1.20379e-09
1.01421e-08
-5.00114e-10
1.01808e-08
1.7211e-10
9.88974e-09
8.02994e-10
9.29684e-09
1.3804e-09
8.43784e-09
1.88955e-09
7.35765e-09
2.31202e-09
6.11224e-09
2.62487e-09
4.77047e-09
2.79991e-09
3.41553e-09
2.80358e-09
2.14533e-09
2.59876e-09
1.07076e-09
2.14998e-09
3.11635e-10
1.43658e-09
4.95324e-10
-2.66837e-10
1.39201e-10
-1.19074e-09
1.45897e-09
-2.82831e-09
3.21383e-09
-5.17986e-09
5.06994e-09
-8.20528e-09
6.84373e-09
-1.18381e-08
8.43477e-09
-1.59983e-08
9.79876e-09
-2.06019e-08
1.09274e-08
-2.55677e-08
1.18332e-08
-3.08215e-08
1.25399e-08
-3.62983e-08
1.30758e-08
-4.19429e-08
1.34699e-08
-4.77096e-08
1.37495e-08
-5.35614e-08
1.39389e-08
-5.94692e-08
1.40587e-08
-6.541e-08
1.4126e-08
-7.13662e-08
1.41539e-08
-7.7324e-08
1.41525e-08
-8.32725e-08
1.41289e-08
-8.92027e-08
1.40878e-08
-9.51067e-08
1.40315e-08
-1.00977e-07
1.39611e-08
-1.06806e-07
1.38758e-08
-1.12587e-07
1.37742e-08
-1.18309e-07
1.36538e-08
-1.23963e-07
1.35115e-08
-1.29537e-07
1.33439e-08
-1.3502e-07
1.31472e-08
-1.40396e-07
1.29174e-08
-1.4565e-07
1.26505e-08
-1.50764e-07
1.23424e-08
-1.5572e-07
1.19894e-08
-1.60498e-07
1.15876e-08
-1.65076e-07
1.11336e-08
-1.69431e-07
1.06242e-08
-1.7354e-07
1.00568e-08
-1.7738e-07
9.42905e-09
-1.80923e-07
8.73934e-09
-1.84147e-07
7.98659e-09
-1.87026e-07
7.17041e-09
-1.89534e-07
6.29119e-09
-1.91649e-07
5.3501e-09
-1.93346e-07
4.34915e-09
-1.94604e-07
3.29124e-09
-1.95404e-07
2.18015e-09
-1.95726e-07
1.02062e-09
-1.95554e-07
-1.81466e-10
-1.94877e-07
-1.42058e-09
-1.93684e-07
-2.68842e-09
-1.91968e-07
-3.97715e-09
-1.89726e-07
-5.27791e-09
-1.86957e-07
-6.58116e-09
-1.83668e-07
-7.87683e-09
-1.79866e-07
-9.15437e-09
-1.75564e-07
-1.04029e-08
-1.7078e-07
-1.16115e-08
-1.65534e-07
-1.27689e-08
-1.59852e-07
-1.38644e-08
-1.53763e-07
-1.48871e-08
-1.473e-07
-1.5827e-08
-1.40502e-07
-1.66744e-08
-1.33407e-07
-1.74207e-08
-1.26058e-07
-1.8058e-08
-1.18502e-07
-1.85797e-08
-1.10786e-07
-1.89803e-08
-1.02959e-07
-1.92557e-08
-9.50707e-08
-1.94032e-08
-8.71724e-08
-1.94216e-08
-7.93142e-08
-1.93112e-08
-7.1546e-08
-1.90737e-08
-6.39164e-08
-1.87124e-08
-5.64722e-08
-1.82319e-08
-4.92582e-08
-1.76379e-08
-4.23166e-08
-1.69375e-08
-3.56865e-08
-1.61384e-08
-2.94039e-08
-1.52494e-08
-2.3501e-08
-1.42799e-08
-1.80066e-08
-1.32396e-08
-1.29454e-08
-1.21387e-08
-8.33838e-09
-1.09874e-08
-4.20229e-09
-9.79607e-09
-5.4992e-10
-8.57507e-09
2.61007e-09
-7.33478e-09
5.27314e-09
-6.0856e-09
7.43912e-09
-4.83817e-09
9.11231e-09
-3.60351e-09
1.03019e-08
-2.39334e-09
1.10222e-08
-1.22049e-09
1.12938e-08
-9.94641e-11
1.11439e-08
9.52934e-10
1.06076e-08
1.9167e-09
9.72939e-09
2.76774e-09
8.56461e-09
3.4768e-09
7.18103e-09
4.00845e-09
5.66054e-09
4.3204e-09
4.10035e-09
4.36376e-09
2.61383e-09
4.08529e-09
1.33073e-09
3.43308e-09
3.99044e-10
2.36826e-09
8.94369e-10
-4.6096e-10
6.0016e-10
-1.84188e-09
2.83989e-09
-4.12298e-09
5.49493e-09
-7.25872e-09
8.20568e-09
-1.118e-08
1.0765e-08
-1.58013e-08
1.30561e-08
-2.10291e-08
1.50265e-08
-2.67684e-08
1.66667e-08
-3.29287e-08
1.79935e-08
-3.94269e-08
1.90382e-08
-4.61898e-08
1.98387e-08
-5.31544e-08
2.04345e-08
-6.0268e-08
2.08631e-08
-6.74873e-08
2.11581e-08
-7.47772e-08
2.13486e-08
-8.21097e-08
2.14585e-08
-8.94625e-08
2.15068e-08
-9.68179e-08
2.15078e-08
-1.04161e-07
2.14721e-08
-1.1148e-07
2.14063e-08
-1.18762e-07
2.13144e-08
-1.25999e-07
2.11977e-08
-1.33179e-07
2.10557e-08
-1.40291e-07
2.08862e-08
-1.47323e-07
2.06857e-08
-1.54262e-07
2.04502e-08
-1.61092e-07
2.01745e-08
-1.67798e-07
1.98533e-08
-1.74362e-07
1.94811e-08
-1.80764e-07
1.90519e-08
-1.86981e-07
1.85603e-08
-1.92992e-07
1.80005e-08
-1.98772e-07
1.73674e-08
-2.04295e-07
1.66561e-08
-2.09533e-07
1.58624e-08
-2.14459e-07
1.49825e-08
-2.19043e-07
1.40135e-08
-2.23257e-07
1.29533e-08
-2.27071e-07
1.18007e-08
-2.30456e-07
1.05555e-08
-2.33384e-07
9.21876e-09
-2.35826e-07
7.79257e-09
-2.37758e-07
6.28032e-09
-2.39153e-07
4.68663e-09
-2.3999e-07
3.01744e-09
-2.4025e-07
1.28001e-09
-2.39914e-07
-5.17135e-10
-2.3897e-07
-2.3645e-09
-2.37408e-07
-4.25088e-09
-2.3522e-07
-6.16431e-09
-2.32407e-07
-8.09176e-09
-2.28968e-07
-1.00193e-08
-2.24913e-07
-1.19323e-08
-2.20252e-07
-1.38156e-08
-2.15001e-07
-1.56533e-08
-2.09183e-07
-1.74298e-08
-2.02823e-07
-1.91292e-08
-1.95951e-07
-2.07358e-08
-1.88604e-07
-2.22345e-08
-1.8082e-07
-2.36108e-08
-1.72643e-07
-2.48511e-08
-1.64121e-07
-2.59431e-08
-1.55303e-07
-2.68757e-08
-1.46244e-07
-2.76395e-08
-1.36997e-07
-2.82268e-08
-1.27621e-07
-2.86317e-08
-1.18174e-07
-2.88506e-08
-1.08713e-07
-2.88817e-08
-9.92991e-08
-2.87255e-08
-8.99885e-08
-2.83844e-08
-8.08379e-08
-2.7863e-08
-7.1902e-08
-2.71678e-08
-6.32328e-08
-2.63072e-08
-5.48794e-08
-2.52908e-08
-4.68876e-08
-2.41301e-08
-3.92996e-08
-2.28375e-08
-3.21532e-08
-2.14262e-08
-2.54825e-08
-1.99104e-08
-1.93168e-08
-1.83044e-08
-1.36809e-08
-1.66232e-08
-8.59523e-09
-1.48818e-08
-4.07522e-09
-1.30951e-08
-1.31674e-10
-1.12783e-08
3.2296e-09
-9.44687e-09
6.0077e-09
-7.61627e-09
8.20724e-09
-5.80306e-09
9.83848e-09
-4.02458e-09
1.0918e-08
-2.29996e-09
1.14692e-08
-6.5068e-10
1.15236e-08
8.98541e-10
1.11216e-08
2.31867e-09
1.03141e-08
3.57527e-09
9.16361e-09
4.62726e-09
7.74621e-09
5.42585e-09
6.15269e-09
5.91393e-09
4.49015e-09
6.0263e-09
2.88357e-09
5.69187e-09
1.47824e-09
4.83841e-09
4.45373e-10
3.40114e-09
1.33974e-09
-6.47268e-10
1.24743e-09
-2.47983e-09
4.67245e-09
-5.40282e-09
8.41793e-09
-9.31909e-09
1.21219e-08
-1.41248e-08
1.55707e-08
-1.97115e-08
1.86428e-08
-2.59699e-08
2.12848e-08
-3.27938e-08
2.34906e-08
-4.00839e-08
2.52836e-08
-4.77501e-08
2.67044e-08
-5.57128e-08
2.78015e-08
-6.39034e-08
2.86251e-08
-7.22637e-08
2.92235e-08
-8.07457e-08
2.96401e-08
-8.93096e-08
2.99126e-08
-9.79234e-08
3.00722e-08
-1.06561e-07
3.01441e-08
-1.152e-07
3.01472e-08
-1.23823e-07
3.00954e-08
-1.32415e-07
2.99978e-08
-1.4096e-07
2.98599e-08
-1.49446e-07
2.96835e-08
-1.57858e-07
2.94681e-08
-1.66183e-07
2.92108e-08
-1.74405e-07
2.89074e-08
-1.82507e-07
2.85523e-08
-1.90471e-07
2.81389e-08
-1.98278e-07
2.76601e-08
-2.05906e-07
2.71085e-08
-2.1333e-07
2.64766e-08
-2.20527e-07
2.57568e-08
-2.27468e-07
2.49419e-08
-2.34126e-07
2.40252e-08
-2.4047e-07
2.30004e-08
-2.4647e-07
2.1862e-08
-2.52093e-07
2.06054e-08
-2.57306e-07
1.92271e-08
-2.62078e-07
1.77248e-08
-2.66374e-07
1.60973e-08
-2.70164e-07
1.43449e-08
-2.73415e-07
1.24696e-08
-2.76097e-07
1.04749e-08
-2.78182e-07
8.36567e-09
-2.79644e-07
6.1489e-09
-2.8046e-07
3.83307e-09
-2.80608e-07
1.42843e-09
-2.80072e-07
-1.05316e-09
-2.78839e-07
-3.59826e-09
-2.76898e-07
-6.19176e-09
-2.74245e-07
-8.81725e-09
-2.7088e-07
-1.14571e-08
-2.66807e-07
-1.40924e-08
-2.62035e-07
-1.67035e-08
-2.56581e-07
-1.92701e-08
-2.50463e-07
-2.17713e-08
-2.43706e-07
-2.41861e-08
-2.36342e-07
-2.64933e-08
-2.28406e-07
-2.86724e-08
-2.19937e-07
-3.07033e-08
-2.10981e-07
-3.2567e-08
-2.01586e-07
-3.42455e-08
-1.91807e-07
-3.57227e-08
-1.81699e-07
-3.6984e-08
-1.71321e-07
-3.80169e-08
-1.60736e-07
-3.88115e-08
-1.50008e-07
-3.93601e-08
-1.39201e-07
-3.96578e-08
-1.2838e-07
-3.97023e-08
-1.17611e-07
-3.94942e-08
-1.06959e-07
-3.9037e-08
-9.64853e-08
-3.83365e-08
-8.62516e-08
-3.74016e-08
-7.63158e-08
-3.6243e-08
-6.67327e-08
-3.48739e-08
-5.75536e-08
-3.33093e-08
-4.88255e-08
-3.15656e-08
-4.0591e-08
-2.96607e-08
-3.28882e-08
-2.76132e-08
-2.575e-08
-2.54425e-08
-1.92047e-08
-2.31686e-08
-1.32751e-08
-2.08114e-08
-7.97877e-09
-1.83914e-08
-3.32818e-09
-1.59289e-08
6.69846e-10
-1.34449e-08
4.01433e-09
-1.09607e-08
6.70994e-09
-8.49867e-09
8.76796e-09
-6.08261e-09
1.02067e-08
-3.73866e-09
1.1052e-08
-1.49602e-09
1.13386e-08
6.11928e-10
1.11109e-08
2.54637e-09
1.04244e-08
4.26181e-09
9.34693e-09
5.70472e-09
7.96041e-09
6.81237e-09
6.36221e-09
7.51213e-09
4.66694e-09
7.72157e-09
3.00879e-09
7.35003e-09
1.5453e-09
6.3019e-09
4.64334e-10
4.48211e-09
1.80408e-09
-8.21327e-10
2.06876e-09
-3.08724e-09
6.93836e-09
-6.63302e-09
1.19637e-08
-1.13094e-08
1.67983e-08
-1.69754e-08
2.12367e-08
-2.34965e-08
2.5164e-08
-3.07458e-08
2.85342e-08
-3.8605e-08
3.13498e-08
-4.6966e-08
3.36446e-08
-5.5732e-08
3.54704e-08
-6.48181e-08
3.68876e-08
-7.41513e-08
3.79583e-08
-8.36694e-08
3.87415e-08
-9.33204e-08
3.92911e-08
-1.03061e-07
3.96535e-08
-1.12856e-07
3.98674e-08
-1.22676e-07
3.9964e-08
-1.32496e-07
3.99671e-08
-1.42295e-07
3.98942e-08
-1.52054e-07
3.97567e-08
-1.61756e-07
3.95616e-08
-1.71383e-07
3.93113e-08
-1.80921e-07
3.90052e-08
-1.9035e-07
3.86399e-08
-1.99652e-07
3.82101e-08
-2.08809e-07
3.77086e-08
-2.17797e-07
3.71273e-08
-2.26594e-07
3.64574e-08
-2.35175e-07
3.56896e-08
-2.43513e-07
3.48143e-08
-2.51579e-07
3.38224e-08
-2.59342e-07
3.27048e-08
-2.6677e-07
3.14532e-08
-2.73829e-07
3.006e-08
-2.80486e-07
2.85187e-08
-2.86705e-07
2.68239e-08
-2.92449e-07
2.49716e-08
-2.97684e-07
2.29595e-08
-3.02373e-07
2.07867e-08
-3.06483e-07
1.84544e-08
-3.09979e-07
1.59657e-08
-3.1283e-07
1.33257e-08
-3.15006e-07
1.05416e-08
-3.1648e-07
7.62293e-09
-3.17228e-07
4.58111e-09
-3.17229e-07
1.42985e-09
-3.16467e-07
-1.8152e-09
-3.14929e-07
-5.13634e-09
-3.12607e-07
-8.51404e-09
-3.09497e-07
-1.19271e-08
-3.05601e-07
-1.53528e-08
-3.00926e-07
-1.87671e-08
-2.95485e-07
-2.2145e-08
-2.89294e-07
-2.54606e-08
-2.82378e-07
-2.86876e-08
-2.74765e-07
-3.17994e-08
-2.66489e-07
-3.47695e-08
-2.57589e-07
-3.75721e-08
-2.4811e-07
-4.01819e-08
-2.38102e-07
-4.25751e-08
-2.27618e-07
-4.47293e-08
-2.16717e-07
-4.6624e-08
-2.0546e-07
-4.82412e-08
-1.93911e-07
-4.95653e-08
-1.82139e-07
-5.05836e-08
-1.70213e-07
-5.12866e-08
-1.58203e-07
-5.1668e-08
-1.4618e-07
-5.17253e-08
-1.34215e-07
-5.1459e-08
-1.22378e-07
-5.08735e-08
-1.10739e-07
-4.99764e-08
-9.93616e-08
-4.87785e-08
-8.83108e-08
-4.72938e-08
-7.76458e-08
-4.55389e-08
-6.74223e-08
-4.35327e-08
-5.76917e-08
-4.12962e-08
-4.85004e-08
-3.8852e-08
-3.98897e-08
-3.62239e-08
-3.18955e-08
-3.34367e-08
-2.45485e-08
-3.05156e-08
-1.78734e-08
-2.74865e-08
-1.18893e-08
-2.43754e-08
-6.60966e-09
-2.12086e-08
-2.04163e-09
-1.80129e-08
1.81358e-09
-1.4816e-08
4.96142e-09
-1.16465e-08
7.41418e-09
-8.53537e-09
9.19168e-09
-5.51617e-09
1.0322e-08
-2.62636e-09
1.08424e-08
9.15117e-11
1.08005e-08
2.58829e-09
1.02553e-08
4.80703e-09
9.27874e-09
6.68127e-09
7.95726e-09
8.13386e-09
6.39333e-09
9.07606e-09
4.70758e-09
9.40732e-09
3.04155e-09
9.01606e-09
1.56188e-09
7.78157e-09
4.67135e-10
5.57685e-09
2.27122e-09
-9.8257e-10
3.05133e-09
-3.65783e-09
9.61362e-09
-7.79788e-09
1.61038e-08
-1.32035e-08
2.2204e-08
-1.96961e-08
2.77292e-08
-2.71141e-08
3.2582e-08
-3.53113e-08
3.67314e-08
-4.41563e-08
4.01948e-08
-5.35318e-08
4.302e-08
-6.33344e-08
4.5273e-08
-7.34744e-08
4.70276e-08
-8.38748e-08
4.83587e-08
-9.44704e-08
4.93371e-08
-1.05206e-07
5.00269e-08
-1.16036e-07
5.04836e-08
-1.26922e-07
5.07535e-08
-1.37832e-07
5.0874e-08
-1.48739e-07
5.08737e-08
-1.59618e-07
5.07733e-08
-1.70448e-07
5.0587e-08
-1.8121e-07
5.03228e-08
-1.91882e-07
4.9984e-08
-2.02447e-07
4.95697e-08
-2.12883e-07
4.90758e-08
-2.23169e-07
4.84958e-08
-2.33281e-07
4.78212e-08
-2.43196e-07
4.70422e-08
-2.52887e-07
4.61481e-08
-2.62325e-07
4.51276e-08
-2.7148e-07
4.39693e-08
-2.80319e-07
4.26622e-08
-2.8881e-07
4.11955e-08
-2.96916e-07
3.95595e-08
-3.04602e-07
3.77452e-08
-3.11828e-07
3.57453e-08
-3.18558e-07
3.35537e-08
-3.24752e-07
3.11662e-08
-3.30374e-07
2.85806e-08
-3.35384e-07
2.57968e-08
-3.39746e-07
2.2817e-08
-3.43426e-07
1.96458e-08
-3.46391e-07
1.62905e-08
-3.4861e-07
1.27608e-08
-3.50057e-07
9.069e-09
-3.50705e-07
5.23008e-09
-3.50537e-07
1.2615e-09
-3.49535e-07
-2.8169e-09
-3.47689e-07
-6.98291e-09
-3.44991e-07
-1.12122e-08
-3.41439e-07
-1.54784e-08
-3.37039e-07
-1.97536e-08
-3.31797e-07
-2.40083e-08
-3.2573e-07
-2.82119e-08
-3.18858e-07
-3.23329e-08
-3.11207e-07
-3.63391e-08
-3.02808e-07
-4.01983e-08
-2.93699e-07
-4.38786e-08
-2.83922e-07
-4.73484e-08
-2.73527e-07
-5.05773e-08
-2.62566e-07
-5.35364e-08
-2.51096e-07
-5.61986e-08
-2.39181e-07
-5.85391e-08
-2.26887e-07
-6.05359e-08
-2.14282e-07
-6.21701e-08
-2.01439e-07
-6.34263e-08
-1.88433e-07
-6.42929e-08
-1.75339e-07
-6.47622e-08
-1.62233e-07
-6.4831e-08
-1.49192e-07
-6.45001e-08
-1.36291e-07
-6.37746e-08
-1.23603e-07
-6.26639e-08
-1.112e-07
-6.11813e-08
-9.91502e-08
-5.93439e-08
-8.75172e-08
-5.7172e-08
-7.6361e-08
-5.46889e-08
-6.57367e-08
-5.19205e-08
-5.5694e-08
-4.88947e-08
-4.6277e-08
-4.56409e-08
-3.75242e-08
-4.21895e-08
-2.94677e-08
-3.85721e-08
-2.21339e-08
-3.48204e-08
-1.55427e-08
-3.09666e-08
-9.70777e-09
-2.70435e-08
-4.63637e-09
-2.30843e-08
-3.29105e-10
-1.91232e-08
3.22036e-09
-1.5196e-08
6.02562e-09
-1.13406e-08
8.10823e-09
-7.59878e-09
9.49834e-09
-4.01647e-09
1.02356e-08
-6.45787e-10
1.03704e-08
2.45358e-09
9.96462e-09
5.21277e-09
9.09379e-09
7.55211e-09
7.84802e-09
9.37962e-09
6.33413e-09
1.059e-08
4.67772e-09
1.10637e-08
3.02617e-09
1.06676e-08
1.55271e-09
9.25504e-09
4.62262e-10
6.6673e-09
2.73348e-09
-1.13169e-09
4.18302e-09
-4.19049e-09
1.26724e-08
-8.89188e-09
2.08052e-08
-1.49899e-08
2.8302e-08
-2.22695e-08
3.50089e-08
-3.05419e-08
4.08544e-08
-3.96411e-08
4.58307e-08
-4.94217e-08
4.99753e-08
-5.97566e-08
5.33549e-08
-7.05359e-08
5.60523e-08
-8.1665e-08
5.81568e-08
-9.30635e-08
5.97572e-08
-1.04663e-07
6.09369e-08
-1.16407e-07
6.17707e-08
-1.28247e-07
6.23234e-08
-1.40142e-07
6.26489e-08
-1.52059e-07
6.27906e-08
-1.63967e-07
6.27819e-08
-1.75841e-07
6.26469e-08
-1.87655e-07
6.2402e-08
-1.99389e-07
6.20565e-08
-2.11019e-07
6.16142e-08
-2.22524e-07
6.10741e-08
-2.33879e-07
6.04312e-08
-2.45061e-07
5.96778e-08
-2.56044e-07
5.8804e-08
-2.668e-07
5.7798e-08
-2.77299e-07
5.66473e-08
-2.8751e-07
5.53387e-08
-2.974e-07
5.3859e-08
-3.06933e-07
5.21952e-08
-3.16072e-07
5.0335e-08
-3.2478e-07
4.82672e-08
-3.33017e-07
4.59818e-08
-3.40742e-07
4.34704e-08
-3.47915e-07
4.07268e-08
-3.54495e-07
3.77467e-08
-3.60443e-07
3.45284e-08
-3.65719e-07
3.10726e-08
-3.70285e-07
2.7383e-08
-3.74106e-07
2.34663e-08
-3.77147e-07
1.93318e-08
-3.79378e-07
1.49923e-08
-3.80773e-07
1.04635e-08
-3.81307e-07
5.76392e-09
-3.8096e-07
9.15242e-10
-3.79719e-07
-4.05829e-09
-3.77572e-07
-9.12963e-09
-3.74515e-07
-1.42694e-08
-3.70547e-07
-1.94461e-08
-3.65675e-07
-2.46263e-08
-3.59908e-07
-2.97749e-08
-3.53264e-07
-3.48556e-08
-3.45766e-07
-3.98311e-08
-3.37442e-07
-4.46635e-08
-3.28325e-07
-4.93148e-08
-3.18457e-07
-5.37473e-08
-3.07881e-07
-5.79238e-08
-2.9665e-07
-6.18085e-08
-2.84819e-07
-6.53671e-08
-2.7245e-07
-6.85676e-08
-2.59609e-07
-7.13807e-08
-2.46364e-07
-7.378e-08
-2.32791e-07
-7.57432e-08
-2.18966e-07
-7.72518e-08
-2.04967e-07
-7.82918e-08
-1.90875e-07
-7.88539e-08
-1.76772e-07
-7.8934e-08
-1.62739e-07
-7.8533e-08
-1.48857e-07
-7.76569e-08
-1.35204e-07
-7.63167e-08
-1.21857e-07
-7.45285e-08
-1.08888e-07
-7.23124e-08
-9.63671e-08
-6.96932e-08
-8.43573e-08
-6.66987e-08
-7.29175e-08
-6.33603e-08
-6.21007e-08
-5.97115e-08
-5.19537e-08
-5.57879e-08
-4.25168e-08
-5.16264e-08
-3.38238e-08
-4.7265e-08
-2.59019e-08
-4.27423e-08
-1.87713e-08
-3.80972e-08
-1.24456e-08
-3.33692e-08
-6.9315e-09
-2.85985e-08
-2.22846e-09
-2.38263e-08
1.67119e-09
-1.90956e-08
4.78287e-09
-1.44523e-08
7.13008e-09
-9.94599e-09
8.74522e-09
-5.63161e-09
9.67046e-09
-1.57102e-09
9.95873e-09
2.16531e-09
9.67505e-09
5.49645e-09
8.89793e-09
8.32923e-09
7.72099e-09
1.05566e-08
6.25491e-09
1.2056e-08
4.6297e-09
1.26889e-08
2.99756e-09
1.22998e-08
1.53663e-09
1.0716e-08
4.5573e-10
7.7482e-09
3.18921e-09
-1.26968e-09
5.4527e-09
-4.68637e-09
1.60891e-08
-9.91469e-09
2.60335e-08
-1.66656e-08
3.5053e-08
-2.46895e-08
4.30327e-08
-3.37709e-08
4.99357e-08
-4.37241e-08
5.57838e-08
-5.43893e-08
6.06405e-08
-6.56295e-08
6.45951e-08
-7.73279e-08
6.77507e-08
-8.93851e-08
7.0214e-08
-1.01717e-07
7.20894e-08
-1.14254e-07
7.34735e-08
-1.26936e-07
7.44525e-08
-1.39713e-07
7.51006e-08
-1.52543e-07
7.54793e-08
-1.65391e-07
7.56381e-08
-1.78224e-07
7.5615e-08
-1.91015e-07
7.54374e-08
-2.03736e-07
7.51237e-08
-2.16364e-07
7.46847e-08
-2.28874e-07
7.41242e-08
-2.41241e-07
7.3441e-08
-2.53439e-07
7.26293e-08
-2.65442e-07
7.168e-08
-2.77219e-07
7.05815e-08
-2.88742e-07
6.93205e-08
-2.99977e-07
6.78824e-08
-3.1089e-07
6.6252e-08
-3.21445e-07
6.44143e-08
-3.31605e-07
6.23545e-08
-3.41328e-07
6.00587e-08
-3.50575e-07
5.75145e-08
-3.59304e-07
5.47107e-08
-3.67473e-07
5.16387e-08
-3.75038e-07
4.82916e-08
-3.81957e-07
4.46657e-08
-3.88188e-07
4.07599e-08
-3.93692e-07
3.65763e-08
-3.98429e-07
3.21202e-08
-4.02363e-07
2.74005e-08
-4.05461e-07
2.24294e-08
-4.07691e-07
1.72227e-08
-4.09027e-07
1.17998e-08
-4.09447e-07
6.18338e-09
-4.08931e-07
3.99373e-10
-4.07466e-07
-5.52347e-09
-4.05043e-07
-1.1553e-08
-4.01657e-07
-1.76547e-08
-3.97312e-07
-2.37918e-08
-3.92013e-07
-2.99254e-08
-3.85773e-07
-3.60148e-08
-3.7861e-07
-4.20181e-08
-3.70549e-07
-4.78922e-08
-3.61619e-07
-5.35934e-08
-3.51856e-07
-5.90779e-08
-3.41301e-07
-6.43021e-08
-3.30002e-07
-6.92231e-08
-3.18011e-07
-7.37995e-08
-3.05386e-07
-7.79915e-08
-2.92192e-07
-8.17618e-08
-2.78497e-07
-8.5076e-08
-2.64374e-07
-8.79034e-08
-2.49899e-07
-9.02174e-08
-2.35155e-07
-9.1996e-08
-2.20225e-07
-9.32225e-08
-2.05193e-07
-9.38856e-08
-1.90147e-07
-9.398e-08
-1.75173e-07
-9.35064e-08
-1.60359e-07
-9.24714e-08
-1.45788e-07
-9.08879e-08
-1.31542e-07
-8.87744e-08
-1.17699e-07
-8.61548e-08
-1.04334e-07
-8.30582e-08
-9.15155e-08
-7.95177e-08
-7.93053e-08
-7.55704e-08
-6.77604e-08
-7.12564e-08
-5.69302e-08
-6.6618e-08
-4.68573e-08
-6.16993e-08
-3.75768e-08
-5.65456e-08
-2.91164e-08
-5.12027e-08
-2.14966e-08
-4.5717e-08
-1.47302e-08
-4.01356e-08
-8.82268e-09
-3.4506e-08
-3.77209e-09
-2.88768e-08
4.31261e-10
-2.3299e-08
3.80505e-09
-1.78261e-08
6.37527e-09
-1.25162e-08
8.177e-09
-7.43334e-09
9.25519e-09
-2.64922e-09
9.66574e-09
1.75476e-09
9.47672e-09
5.68548e-09
8.76987e-09
9.03608e-09
7.64231e-09
1.16841e-08
6.20855e-09
1.34898e-08
4.60274e-09
1.42948e-08
2.98149e-09
1.3921e-08
1.52714e-09
1.21703e-08
4.51613e-10
8.82373e-09
3.64082e-09
-1.39754e-09
6.85025e-09
-5.14751e-09
1.98391e-08
-1.08685e-08
3.17545e-08
-1.82321e-08
4.24165e-08
-2.69562e-08
5.17568e-08
-3.67999e-08
5.97794e-08
-4.75581e-08
6.65421e-08
-5.9057e-08
7.21394e-08
-7.11495e-08
7.66876e-08
-8.37115e-08
8.03127e-08
-9.66391e-08
8.31416e-08
-1.09845e-07
8.52953e-08
-1.23256e-07
8.68848e-08
-1.36812e-07
8.80082e-08
-1.50461e-07
8.87493e-08
-1.64159e-07
8.91776e-08
-1.77869e-07
8.93484e-08
-1.91558e-07
8.93041e-08
-2.05197e-07
8.90755e-08
-2.18756e-07
8.8683e-08
-2.32209e-07
8.81382e-08
-2.4553e-07
8.74453e-08
-2.58692e-07
8.66025e-08
-2.71666e-07
8.5603e-08
-2.84422e-07
8.44365e-08
-2.9693e-07
8.30896e-08
-3.09157e-07
8.15471e-08
-3.21067e-07
7.97925e-08
-3.32624e-07
7.78088e-08
-3.43789e-07
7.55789e-08
-3.54521e-07
7.30864e-08
-3.64778e-07
7.03159e-08
-3.74517e-07
6.72538e-08
-3.83695e-07
6.38883e-08
-3.92266e-07
6.021e-08
-4.00187e-07
5.62124e-08
-4.07413e-07
5.18922e-08
-4.13903e-07
4.72492e-08
-4.19613e-07
4.22872e-08
-4.24507e-07
3.70136e-08
-4.28546e-07
3.14398e-08
-4.31698e-07
2.55811e-08
-4.33932e-07
1.94569e-08
-4.35223e-07
1.30902e-08
-4.35547e-07
6.50807e-09
-4.34889e-07
-2.58776e-10
-4.33235e-07
-7.17759e-09
-4.30577e-07
-1.42105e-08
-4.26914e-07
-2.13183e-08
-4.22247e-07
-2.84588e-08
-4.16584e-07
-3.5588e-08
-4.0994e-07
-4.26596e-08
-4.02332e-07
-4.96261e-08
-3.93785e-07
-5.6439e-08
-3.84329e-07
-6.30489e-08
-3.74001e-07
-6.94062e-08
-3.62842e-07
-7.54614e-08
-3.50899e-07
-8.1166e-08
-3.38226e-07
-8.64724e-08
-3.24882e-07
-9.13351e-08
-3.10933e-07
-9.57111e-08
-2.96449e-07
-9.95605e-08
-2.81505e-07
-1.02847e-07
-2.66181e-07
-1.05541e-07
-2.50563e-07
-1.07614e-07
-2.34739e-07
-1.09047e-07
-2.18799e-07
-1.09826e-07
-2.02835e-07
-1.09944e-07
-1.8694e-07
-1.09401e-07
-1.71208e-07
-1.08203e-07
-1.5573e-07
-1.06366e-07
-1.40593e-07
-1.03911e-07
-1.25883e-07
-1.00865e-07
-1.11681e-07
-9.7261e-08
-9.80589e-08
-9.31393e-08
-8.50863e-08
-8.85431e-08
-7.28234e-08
-8.35194e-08
-6.13231e-08
-7.81183e-08
-5.06304e-08
-7.2392e-08
-4.07821e-08
-6.63939e-08
-3.18067e-08
-6.01781e-08
-2.37243e-08
-5.37994e-08
-1.65469e-08
-4.7313e-08
-1.02785e-08
-4.07744e-08
-4.91495e-09
-3.42404e-08
-4.43935e-10
-2.777e-08
3.15503e-09
-2.14251e-08
5.91114e-09
-1.52723e-08
7.86274e-09
-9.38494e-09
9.05815e-09
-3.84463e-09
9.55669e-09
1.25622e-09
9.42998e-09
5.81219e-09
8.76337e-09
9.70269e-09
7.65783e-09
1.27897e-08
6.23192e-09
1.49157e-08
4.62418e-09
1.59025e-08
2.99574e-09
1.55494e-08
1.53334e-09
1.36327e-08
4.52532e-10
9.90453e-09
4.09335e-09
-1.51617e-09
8.36641e-09
-5.57617e-09
2.38991e-08
-1.17568e-08
3.79352e-08
-1.96933e-08
5.0353e-08
-2.90736e-08
6.11372e-08
-3.96329e-08
7.03386e-08
-5.11475e-08
7.80567e-08
-6.34297e-08
8.44216e-08
-7.63225e-08
8.95804e-08
-8.96948e-08
9.3685e-08
-1.03438e-07
9.68846e-08
-1.17461e-07
9.93185e-08
-1.31689e-07
1.01113e-07
-1.4606e-07
1.02379e-07
-1.6052e-07
1.0321e-07
-1.75026e-07
1.03683e-07
-1.89537e-07
1.0386e-07
-2.04021e-07
1.03788e-07
-2.18445e-07
1.035e-07
-2.32781e-07
1.03019e-07
-2.46999e-07
1.02357e-07
-2.61072e-07
1.01518e-07
-2.74969e-07
1.005e-07
-2.88662e-07
9.92954e-08
-3.02117e-07
9.78919e-08
-3.15302e-07
9.62746e-08
-3.28181e-07
9.44264e-08
-3.40717e-07
9.23287e-08
-3.52871e-07
8.99625e-08
-3.64602e-07
8.73092e-08
-3.75866e-07
8.43504e-08
-3.86619e-07
8.10697e-08
-3.96818e-07
7.74521e-08
-4.06415e-07
7.34853e-08
-4.15364e-07
6.91598e-08
-4.23621e-07
6.44693e-08
-4.3114e-07
5.94113e-08
-4.37878e-07
5.39871e-08
-4.43793e-07
4.82023e-08
-4.48847e-07
4.20667e-08
-4.53001e-07
3.55946e-08
-4.56225e-07
2.88048e-08
-4.58488e-07
2.17201e-08
-4.59766e-07
1.4368e-08
-4.60038e-07
6.77964e-09
-4.59286e-07
-1.00986e-09
-4.57502e-07
-8.96245e-09
-4.54676e-07
-1.70361e-08
-4.50808e-07
-2.51864e-08
-4.459e-07
-3.33664e-08
-4.39962e-07
-4.15268e-08
-4.33004e-07
-4.96166e-08
-4.25048e-07
-5.75831e-08
-4.16114e-07
-6.53723e-08
-4.06233e-07
-7.29296e-08
-3.9544e-07
-8.01998e-08
-3.83774e-07
-8.71276e-08
-3.71281e-07
-9.36584e-08
-3.58015e-07
-9.97386e-08
-3.44034e-07
-1.05316e-07
-3.29402e-07
-1.10343e-07
-3.14192e-07
-1.14771e-07
-2.9848e-07
-1.1856e-07
-2.82349e-07
-1.21672e-07
-2.65887e-07
-1.24076e-07
-2.49187e-07
-1.25747e-07
-2.32345e-07
-1.26668e-07
-2.1546e-07
-1.26829e-07
-1.98632e-07
-1.26229e-07
-1.81962e-07
-1.24874e-07
-1.65549e-07
-1.2278e-07
-1.49489e-07
-1.1997e-07
-1.33877e-07
-1.16477e-07
-1.18799e-07
-1.12339e-07
-1.04338e-07
-1.076e-07
-9.05678e-08
-1.02313e-07