/*--------------------------------*- C++ -*----------------------------------*\
  =========                 |
  \\      /  F ield         | OpenFOAM: The Open Source CFD Toolbox
   \\    /   O peration     | Website:  https://openfoam.org
    \\  /    A nd           | Version:  9
     \\/     M anipulation  |
\*---------------------------------------------------------------------------*/
FoamFile
{
    format      ascii;
    class       volVectorField;
    location    "0.75";
    object      U;
}
// * * * * * * * * * * * * * * * * * * * * * * * * * * * * * * * * * * * * * //

dimensions      [0 1 -1 0 0 0 0];

internalField   nonuniform List<vector> 
10000
(
(7.11941e-06 -7.09727e-06 0)
(1.8834e-05 -6.81887e-06 0)
(1.99166e-05 -1.53247e-06 0)
(3.62276e-06 4.61378e-06 0)
(-3.04327e-05 1.02156e-05 0)
(-8.01599e-05 1.48236e-05 0)
(-0.000142879 1.83814e-05 0)
(-0.000215935 2.10154e-05 0)
(-0.00029692 2.28946e-05 0)
(-0.000383792 2.41812e-05 0)
(-0.000474888 2.50176e-05 0)
(-0.000568899 2.55227e-05 0)
(-0.000664824 2.5793e-05 0)
(-0.000761923 2.59046e-05 0)
(-0.000859665 2.59155e-05 0)
(-0.000957686 2.58689e-05 0)
(-0.00105575 2.57951e-05 0)
(-0.0011537 2.57143e-05 0)
(-0.00125145 2.56389e-05 0)
(-0.00134896 2.55747e-05 0)
(-0.0014462 2.55225e-05 0)
(-0.00154315 2.54796e-05 0)
(-0.00163976 2.54405e-05 0)
(-0.001736 2.53977e-05 0)
(-0.00183179 2.53423e-05 0)
(-0.00192703 2.52645e-05 0)
(-0.0020216 2.51539e-05 0)
(-0.00211533 2.49995e-05 0)
(-0.00220801 2.47903e-05 0)
(-0.00229942 2.45151e-05 0)
(-0.00238929 2.41629e-05 0)
(-0.00247731 2.37228e-05 0)
(-0.00256315 2.31843e-05 0)
(-0.00264642 2.25372e-05 0)
(-0.00272673 2.17719e-05 0)
(-0.00280364 2.08796e-05 0)
(-0.0028767 1.98522e-05 0)
(-0.00294543 1.86829e-05 0)
(-0.00300933 1.7366e-05 0)
(-0.00306789 1.58973e-05 0)
(-0.00312059 1.4274e-05 0)
(-0.00316692 1.24951e-05 0)
(-0.00320635 1.05619e-05 0)
(-0.0032384 8.47753e-06 0)
(-0.00326257 6.24763e-06 0)
(-0.00327841 3.88089e-06 0)
(-0.0032855 1.38907e-06 0)
(-0.00328347 -1.22157e-06 0)
(-0.00327197 -3.93013e-06 0)
(-0.00325076 -6.71889e-06 0)
(-0.00321962 -9.56796e-06 0)
(-0.00317843 -1.24547e-05 0)
(-0.00312714 -1.53544e-05 0)
(-0.0030658 -1.82404e-05 0)
(-0.00299453 -2.10845e-05 0)
(-0.00291356 -2.38576e-05 0)
(-0.0028232 -2.65296e-05 0)
(-0.00272387 -2.90704e-05 0)
(-0.00261608 -3.14503e-05 0)
(-0.00250045 -3.36404e-05 0)
(-0.00237766 -3.56133e-05 0)
(-0.0022485 -3.73436e-05 0)
(-0.00211382 -3.88083e-05 0)
(-0.00197454 -3.99879e-05 0)
(-0.00183164 -4.08667e-05 0)
(-0.00168614 -4.14324e-05 0)
(-0.0015391 -4.16773e-05 0)
(-0.00139159 -4.15983e-05 0)
(-0.00124468 -4.11967e-05 0)
(-0.00109944 -4.04783e-05 0)
(-0.000956901 -3.94537e-05 0)
(-0.000818077 -3.8137e-05 0)
(-0.000683917 -3.65464e-05 0)
(-0.000555315 -3.47034e-05 0)
(-0.000433096 -3.26317e-05 0)
(-0.000318005 -3.03571e-05 0)
(-0.000210708 -2.79069e-05 0)
(-0.000111778 -2.53076e-05 0)
(-2.16926e-05 -2.2591e-05 0)
(5.91289e-05 -1.97985e-05 0)
(0.000130377 -1.69268e-05 0)
(0.000191855 -1.40168e-05 0)
(0.000243416 -1.10957e-05 0)
(0.000285002 -8.18502e-06 0)
(0.00031664 -5.30583e-06 0)
(0.000338435 -2.47904e-06 0)
(0.000350572 2.74252e-07 0)
(0.000353313 2.93143e-06 0)
(0.000347022 5.4742e-06 0)
(0.000332167 7.86905e-06 0)
(0.000309341 1.00779e-05 0)
(0.000279309 1.20478e-05 0)
(0.000243056 1.37017e-05 0)
(0.000201868 1.49222e-05 0)
(0.000157453 1.55275e-05 0)
(0.000112118 1.5237e-05 0)
(6.89775e-05 1.36398e-05 0)
(3.2003e-05 1.01716e-05 0)
(5.91584e-06 4.35957e-06 0)
(-1.88565e-06 -1.86131e-06 0)
(7.00118e-06 -1.89695e-05 0)
(9.15022e-06 -8.9462e-06 0)
(-1.91689e-05 1.92635e-05 0)
(-8.66219e-05 5.18227e-05 0)
(-0.00019428 8.28537e-05 0)
(-0.00033907 0.00010986 0)
(-0.00051601 0.000132073 0)
(-0.000719584 0.000149631 0)
(-0.000944452 0.000163053 0)
(-0.00118582 0.000172988 0)
(-0.00143959 0.000180092 0)
(-0.00170238 0.000184972 0)
(-0.00197149 0.000188155 0)
(-0.00224483 0.000190085 0)
(-0.00252082 0.00019112 0)
(-0.00279829 0.000191539 0)
(-0.00307642 0.000191551 0)
(-0.0033546 0.000191306 0)
(-0.00363244 0.000190903 0)
(-0.00390962 0.000190401 0)
(-0.00418594 0.000189825 0)
(-0.00446118 0.000189175 0)
(-0.00473515 0.000188431 0)
(-0.0050076 0.000187557 0)
(-0.00527826 0.000186506 0)
(-0.00554677 0.000185223 0)
(-0.00581272 0.000183647 0)
(-0.0060756 0.000181713 0)
(-0.00633482 0.000179355 0)
(-0.00658972 0.000176504 0)
(-0.00683952 0.000173093 0)
(-0.00708337 0.000169056 0)
(-0.00732034 0.000164329 0)
(-0.00754941 0.000158851 0)
(-0.0077695 0.000152566 0)
(-0.00797943 0.000145424 0)
(-0.00817799 0.000137378 0)
(-0.00836391 0.000128393 0)
(-0.00853589 0.000118441 0)
(-0.0086926 0.000107503 0)
(-0.0088327 9.55718e-05 0)
(-0.00895485 8.26521e-05 0)
(-0.00905775 6.87616e-05 0)
(-0.00914013 5.39318e-05 0)
(-0.00920079 3.82089e-05 0)
(-0.00923859 2.16566e-05 0)
(-0.00925253 4.35475e-06 0)
(-0.00924169 -1.3631e-05 0)
(-0.00920529 -3.2168e-05 0)
(-0.00914273 -5.11394e-05 0)
(-0.00905359 -7.04128e-05 0)
(-0.00893763 -8.98411e-05 0)
(-0.00879481 -0.000109265 0)
(-0.00862533 -0.000128516 0)
(-0.0084296 -0.000147419 0)
(-0.00820828 -0.000165791 0)
(-0.00796227 -0.000183449 0)
(-0.0076927 -0.000200209 0)
(-0.00740095 -0.000215891 0)
(-0.00708862 -0.000230322 0)
(-0.00675753 -0.000243338 0)
(-0.00640972 -0.000254787 0)
(-0.00604738 -0.000264534 0)
(-0.0056729 -0.000272463 0)
(-0.00528878 -0.000278478 0)
(-0.00489763 -0.000282509 0)
(-0.00450215 -0.000284508 0)
(-0.00410507 -0.000284456 0)
(-0.00370914 -0.000282357 0)
(-0.00331708 -0.000278244 0)
(-0.00293155 -0.000272175 0)
(-0.00255514 -0.000264231 0)
(-0.00219031 -0.000254514 0)
(-0.00183938 -0.000243147 0)
(-0.0015045 -0.000230269 0)
(-0.00118765 -0.00021603 0)
(-0.000890592 -0.00020059 0)
(-0.000614894 -0.000184114 0)
(-0.00036189 -0.000166778 0)
(-0.000132712 -0.00014877 0)
(7.17403e-05 -0.000130217 0)
(0.0002508 -0.000111302 0)
(0.000404008 -9.21913e-05 0)
(0.000531121 -7.30387e-05 0)
(0.000632114 -5.39979e-05 0)
(0.000707182 -3.5224e-05 0)
(0.000756745 -1.68783e-05 0)
(0.000781472 8.64312e-07 0)
(0.000782302 1.78114e-05 0)
(0.000760485 3.37238e-05 0)
(0.000717653 4.83089e-05 0)
(0.000655901 6.11893e-05 0)
(0.000577909 7.18656e-05 0)
(0.000487092 7.96657e-05 0)
(0.000387803 8.36807e-05 0)
(0.000285564 8.27063e-05 0)
(0.000187179 7.52454e-05 0)
(0.000100457 5.96469e-05 0)
(3.47674e-05 3.49626e-05 0)
(4.25107e-06 5.8835e-06 0)
(1.76221e-06 -2.03558e-05 0)
(-1.96425e-05 1.94108e-05 0)
(-9.37638e-05 9.20515e-05 0)
(-0.000224397 0.000173689 0)
(-0.000411425 0.000252507 0)
(-0.000651026 0.000322673 0)
(-0.000936901 0.000381913 0)
(-0.00126186 0.000430007 0)
(-0.00161874 0.000467792 0)
(-0.00200094 0.000496582 0)
(-0.00240265 0.000517845 0)
(-0.00281895 0.000533017 0)
(-0.00324582 0.000543402 0)
(-0.00368003 0.00055013 0)
(-0.00411907 0.000554137 0)
(-0.00456102 0.000556173 0)
(-0.00500445 0.000556813 0)
(-0.00544829 0.000556481 0)
(-0.00589172 0.000555468 0)
(-0.00633413 0.000553957 0)
(-0.00677502 0.000552039 0)
(-0.00721393 0.000549734 0)
(-0.00765041 0.000547003 0)
(-0.00808398 0.000543766 0)
(-0.00851409 0.000539907 0)
(-0.00894012 0.000535287 0)
(-0.00936132 0.000529749 0)
(-0.00977684 0.000523125 0)
(-0.0101857 0.000515238 0)
(-0.0105869 0.000505911 0)
(-0.010979 0.000494966 0)
(-0.0113609 0.000482227 0)
(-0.011731 0.000467529 0)
(-0.0120877 0.000450714 0)
(-0.0124294 0.000431637 0)
(-0.0127542 0.000410168 0)
(-0.0130603 0.000386199 0)
(-0.0133458 0.00035964 0)
(-0.0136088 0.000330429 0)
(-0.0138472 0.00029853 0)
(-0.014059 0.000263938 0)
(-0.0142424 0.000226683 0)
(-0.0143952 0.000186828 0)
(-0.0145159 0.000144475 0)
(-0.0146025 9.97632e-05 0)
(-0.0146535 5.28701e-05 0)
(-0.0146675 4.01215e-06 0)
(-0.0146432 -4.65119e-05 0)
(-0.0145795 -9.84388e-05 0)
(-0.0144757 -0.000151429 0)
(-0.0143313 -0.000205109 0)
(-0.014146 -0.000259074 0)
(-0.0139199 -0.000312894 0)
(-0.0136534 -0.000366115 0)
(-0.0133473 -0.000418265 0)
(-0.0130025 -0.000468863 0)
(-0.0126206 -0.000517422 0)
(-0.0122033 -0.00056346 0)
(-0.0117526 -0.000606502 0)
(-0.0112712 -0.000646096 0)
(-0.0107617 -0.000681813 0)
(-0.010227 -0.000713262 0)
(-0.00967067 -0.000740091 0)
(-0.00909605 -0.000761999 0)
(-0.00850689 -0.000778741 0)
(-0.00790706 -0.00079013 0)
(-0.00730052 -0.000796045 0)
(-0.00669131 -0.000796431 0)
(-0.00608348 -0.000791301 0)
(-0.00548103 -0.000780737 0)
(-0.0048879 -0.000764882 0)
(-0.00430791 -0.000743945 0)
(-0.00374471 -0.000718187 0)
(-0.00320176 -0.000687922 0)
(-0.00268228 -0.000653505 0)
(-0.00218923 -0.000615325 0)
(-0.00172529 -0.000573798 0)
(-0.00129284 -0.000529358 0)
(-0.000893967 -0.000482453 0)
(-0.000530412 -0.000433538 0)
(-0.000203608 -0.000383049 0)
(8.53421e-05 -0.000331434 0)
(0.000335655 -0.000279132 0)
(0.000546876 -0.000226581 0)
(0.00071888 -0.000174215 0)
(0.000851881 -0.000122483 0)
(0.000946447 -7.18534e-05 0)
(0.00100354 -2.28401e-05 0)
(0.00102454 2.39718e-05 0)
(0.00101132 6.78944e-05 0)
(0.000966355 0.000108091 0)
(0.000892786 0.000143517 0)
(0.000794605 0.000172847 0)
(0.000676811 0.000194399 0)
(0.000545607 0.000206051 0)
(0.000408605 0.000205216 0)
(0.000274811 0.000188976 0)
(0.000154177 0.000154526 0)
(5.91272e-05 0.000100488 0)
(9.91214e-06 3.16697e-05 0)
(-4.7172e-06 -3.691e-06 0)
(-5.48328e-05 8.90271e-05 0)
(-0.000182663 0.000224085 0)
(-0.000383211 0.000370329 0)
(-0.000653403 0.000511007 0)
(-0.000988124 0.000637176 0)
(-0.00137982 0.000744985 0)
(-0.00182006 0.000833749 0)
(-0.00230045 0.000904564 0)
(-0.00281315 0.000959431 0)
(-0.00335117 0.00100071 0)
(-0.00390849 0.0010308 0)
(-0.00448007 0.00105192 0)
(-0.00506181 0.00106605 0)
(-0.00565044 0.00107484 0)
(-0.00624337 0.00107966 0)
(-0.00683861 0.00108155 0)
(-0.00743462 0.0010813 0)
(-0.00803018 0.00107948 0)
(-0.00862433 0.00107642 0)
(-0.00921623 0.00107234 0)
(-0.00980514 0.00106727 0)
(-0.0103903 0.00106118 0)
(-0.010971 0.00105393 0)
(-0.0115464 0.00104532 0)
(-0.0121154 0.00103511 0)
(-0.0126772 0.00102302 0)
(-0.0132304 0.00100874 0)
(-0.0137737 0.000991962 0)
(-0.0143056 0.000972366 0)
(-0.0148244 0.00094963 0)
(-0.0153284 0.000923441 0)
(-0.0158156 0.000893501 0)
(-0.016284 0.000859531 0)
(-0.0167312 0.000821277 0)
(-0.017155 0.000778516 0)
(-0.017553 0.000731062 0)
(-0.0179228 0.000678772 0)
(-0.0182618 0.00062155 0)
(-0.0185675 0.000559352 0)
(-0.0188375 0.000492195 0)
(-0.0190692 0.000420156 0)
(-0.0192604 0.000343378 0)
(-0.0194086 0.000262074 0)
(-0.019512 0.000176528 0)
(-0.0195685 8.709e-05 0)
(-0.0195764 -5.81346e-06 0)
(-0.0195342 -0.00010164 0)
(-0.0194409 -0.000199866 0)
(-0.0192955 -0.000299854 0)
(-0.0190976 -0.000400908 0)
(-0.018847 -0.000502279 0)
(-0.018544 -0.000603174 0)
(-0.0181892 -0.000702762 0)
(-0.0177836 -0.000800184 0)
(-0.0173288 -0.000894565 0)
(-0.0168267 -0.000985026 0)
(-0.0162796 -0.0010707 0)
(-0.0156903 -0.00115073 0)
(-0.0150619 -0.0012243 0)
(-0.0143979 -0.00129066 0)
(-0.0137022 -0.00134911 0)
(-0.0129789 -0.00139901 0)
(-0.0122326 -0.00143983 0)
(-0.0114678 -0.00147115 0)
(-0.0106894 -0.00149262 0)
(-0.00990239 -0.00150403 0)
(-0.00911183 -0.00150528 0)
(-0.00832278 -0.00149641 0)
(-0.00754026 -0.00147754 0)
(-0.0067692 -0.00144893 0)
(-0.00601438 -0.00141096 0)
(-0.00528041 -0.00136408 0)
(-0.00457163 -0.00130885 0)
(-0.00389212 -0.0012459 0)
(-0.00324564 -0.00117593 0)
(-0.00263561 -0.00109967 0)
(-0.00206508 -0.00101792 0)
(-0.00153673 -0.00093147 0)
(-0.00105285 -0.000841136 0)
(-0.000615322 -0.000747734 0)
(-0.000225623 -0.00065208 0)
(0.000115169 -0.000554987 0)
(0.000406391 -0.000457268 0)
(0.000647805 -0.000359749 0)
(0.000839611 -0.000263286 0)
(0.000982471 -0.000168781 0)
(0.00107755 -7.72261e-05 0)
(0.00112658 1.02553e-05 0)
(0.0011319 9.23532e-05 0)
(0.00109663 0.000167499 0)
(0.00102469 0.000233781 0)
(0.000921036 0.000288845 0)
(0.000791782 0.000329803 0)
(0.000644378 0.000353154 0)
(0.000487799 0.000354804 0)
(0.000332475 0.000330284 0)
(0.000189853 0.00027533 0)
(7.48538e-05 0.000187184 0)
(1.32577e-05 6.81624e-05 0)
(-1.11414e-05 3.27294e-05 0)
(-9.11608e-05 0.000204086 0)
(-0.000275527 0.000419742 0)
(-0.000548713 0.000644523 0)
(-0.000903491 0.000858452 0)
(-0.00133281 0.00105038 0)
(-0.00182763 0.00121531 0)
(-0.0023783 0.00135224 0)
(-0.00297545 0.00146259 0)
(-0.00361032 0.00154907 0)
(-0.00427507 0.00161499 0)
(-0.00496288 0.00166375 0)
(-0.00566798 0.00169857 0)
(-0.0063856 0.00172235 0)
(-0.00711183 0.00173754 0)
(-0.00784358 0.0017462 0)
(-0.00857835 0.00174991 0)
(-0.00931416 0.00174989 0)
(-0.0100494 0.00174701 0)
(-0.0107828 0.00174184 0)
(-0.0115131 0.00173468 0)
(-0.0122394 0.00172565 0)
(-0.0129605 0.00171469 0)
(-0.0136754 0.00170162 0)
(-0.0143829 0.00168614 0)
(-0.0150818 0.00166789 0)
(-0.0157706 0.00164646 0)
(-0.0164479 0.00162139 0)
(-0.0171118 0.0015922 0)
(-0.0177606 0.0015584 0)
(-0.0183921 0.00151953 0)
(-0.0190042 0.0014751 0)
(-0.0195943 0.00142467 0)
(-0.0201601 0.00136782 0)
(-0.0206988 0.00130419 0)
(-0.0212077 0.00123346 0)
(-0.021684 0.00115536 0)
(-0.0221246 0.00106969 0)
(-0.0225267 0.000976353 0)
(-0.0228874 0.000875303 0)
(-0.0232037 0.000766605 0)
(-0.0234729 0.000650414 0)
(-0.0236922 0.000526991 0)
(-0.0238591 0.000396701 0)
(-0.0239713 0.000260019 0)
(-0.0240265 0.000117532 0)
(-0.0240231 -3.0065e-05 0)
(-0.0239594 -0.000181995 0)
(-0.0238343 -0.000337336 0)
(-0.0236469 -0.000495098 0)
(-0.0233968 -0.000654202 0)
(-0.0230841 -0.000813487 0)
(-0.0227092 -0.000971731 0)
(-0.022273 -0.00112766 0)
(-0.0217769 -0.00127995 0)
(-0.0212229 -0.00142729 0)
(-0.0206133 -0.00156832 0)
(-0.0199509 -0.00170175 0)
(-0.019239 -0.00182627 0)
(-0.0184814 -0.00194068 0)
(-0.0176823 -0.00204382 0)
(-0.0168461 -0.00213465 0)
(-0.0159779 -0.00221222 0)
(-0.0150827 -0.00227575 0)
(-0.014166 -0.00232457 0)
(-0.0132334 -0.0023582 0)
(-0.0122908 -0.00237631 0)
(-0.011344 -0.00237875 0)
(-0.0103988 -0.00236557 0)
(-0.00946119 -0.00233698 0)
(-0.00853676 -0.00229335 0)
(-0.00763113 -0.00223525 0)
(-0.00674963 -0.00216336 0)
(-0.00589732 -0.00207852 0)
(-0.00507898 -0.00198167 0)
(-0.004299 -0.00187388 0)
(-0.00356139 -0.00175624 0)
(-0.00286975 -0.00162996 0)
(-0.00222725 -0.00149624 0)
(-0.00163661 -0.00135633 0)
(-0.00110008 -0.00121148 0)
(-0.000619454 -0.00106294 0)
(-0.000196056 -0.000911985 0)
(0.000169281 -0.000759875 0)
(0.000476216 -0.000607908 0)
(0.000724929 -0.000457442 0)
(0.000916153 -0.000309913 0)
(0.00105121 -0.000166895 0)
(0.00113208 -3.01672e-05 0)
(0.00116149 9.82163e-05 0)
(0.001143 0.000215827 0)
(0.00108114 0.000319759 0)
(0.000981535 0.000406516 0)
(0.000851085 0.000471905 0)
(0.000698094 0.000510975 0)
(0.000532474 0.000518045 0)
(0.000365687 0.000486947 0)
(0.000210381 0.00041156 0)
(8.3494e-05 0.00028683 0)
(1.4874e-05 0.000111009 0)
(-1.70961e-05 8.83527e-05 0)
(-0.000126332 0.000365038 0)
(-0.000367004 0.000680217 0)
(-0.000712701 0.00099743 0)
(-0.00115143 0.00129523 0)
(-0.0016737 0.00156142 0)
(-0.00226866 0.00179051 0)
(-0.00292534 0.00198157 0)
(-0.00363341 0.00213656 0)
(-0.00438335 0.002259 0)
(-0.00516664 0.00235319 0)
(-0.00597589 0.00242361 0)
(-0.00680475 0.00247451 0)
(-0.00764796 0.00250976 0)
(-0.00850115 0.00253268 0)
(-0.00936076 0.00254602 0)
(-0.0102239 0.00255197 0)
(-0.0110882 0.00255222 0)
(-0.0119518 0.00254796 0)
(-0.0128129 0.00253999 0)
(-0.0136701 0.00252877 0)
(-0.014522 0.00251446 0)
(-0.0153673 0.00249701 0)
(-0.0162045 0.00247618 0)
(-0.0170322 0.00245157 0)
(-0.0178488 0.0024227 0)
(-0.0186526 0.00238899 0)
(-0.0194417 0.00234983 0)
(-0.020214 0.00230456 0)
(-0.0209672 0.00225253 0)
(-0.0216989 0.00219306 0)
(-0.0224065 0.00212553 0)
(-0.0230872 0.00204934 0)
(-0.023738 0.00196393 0)
(-0.024356 0.0018688 0)
(-0.0249379 0.00176355 0)
(-0.0254806 0.00164785 0)
(-0.0259806 0.00152147 0)
(-0.0264348 0.00138428 0)
(-0.0268399 0.00123629 0)
(-0.0271927 0.00107764 0)
(-0.0274901 0.000908593 0)
(-0.0277291 0.000729566 0)
(-0.0279071 0.00054112 0)
(-0.0280215 0.000343967 0)
(-0.0280702 0.00013897 0)
(-0.0280512 -7.28621e-05 0)
(-0.027963 -0.00029039 0)
(-0.0278044 -0.000512316 0)
(-0.0275748 -0.00073723 0)
(-0.0272738 -0.000963607 0)
(-0.0269017 -0.00118982 0)
(-0.0264592 -0.00141417 0)
(-0.0259475 -0.00163488 0)
(-0.0253683 -0.00185013 0)
(-0.0247239 -0.00205809 0)
(-0.024017 -0.00225692 0)
(-0.0232511 -0.00244481 0)
(-0.0224297 -0.00262002 0)
(-0.0215573 -0.00278087 0)
(-0.0206385 -0.00292579 0)
(-0.0196785 -0.00305337 0)
(-0.0186827 -0.00316232 0)
(-0.0176569 -0.00325156 0)
(-0.0166072 -0.00332021 0)
(-0.01554 -0.00336759 0)
(-0.0144616 -0.00339328 0)
(-0.0133786 -0.00339707 0)
(-0.0122976 -0.00337902 0)
(-0.0112249 -0.00333942 0)
(-0.0101671 -0.0032788 0)
(-0.00913028 -0.0031979 0)
(-0.00812041 -0.00309769 0)
(-0.00714315 -0.0029793 0)
(-0.00620383 -0.00284403 0)
(-0.00530736 -0.00269333 0)
(-0.00445822 -0.00252874 0)
(-0.00366047 -0.00235188 0)
(-0.00291766 -0.00216444 0)
(-0.00223285 -0.00196815 0)
(-0.00160859 -0.00176473 0)
(-0.00104691 -0.00155595 0)
(-0.000549313 -0.00134358 0)
(-0.00011676 -0.00112942 0)
(0.000250335 -0.000915295 0)
(0.000552149 -0.000703133 0)
(0.000789483 -0.000494983 0)
(0.00096379 -0.000293091 0)
(0.00107726 -9.99746e-05 0)
(0.00113289 8.14763e-05 0)
(0.00113462 0.000247885 0)
(0.00108739 0.000395269 0)
(0.000997351 0.000518911 0)
(0.000871935 0.00061325 0)
(0.000720074 0.000671815 0)
(0.000552375 0.000687249 0)
(0.000381106 0.000651501 0)
(0.000219913 0.000556234 0)
(8.72301e-05 0.000393506 0)
(1.54226e-05 0.00015693 0)
(-2.24876e-05 0.000162025 0)
(-0.000159438 0.000570457 0)
(-0.000454521 0.00100425 0)
(-0.000870785 0.00142773 0)
(-0.0013913 0.00181957 0)
(-0.00200382 0.0021677 0)
(-0.00269542 0.00246695 0)
(-0.00345368 0.00271698 0)
(-0.00426725 0.00292057 0)
(-0.00512587 0.00308227 0)
(-0.00602045 0.00320748 0)
(-0.00694311 0.00330179 0)
(-0.0078871 0.00337057 0)
(-0.00884674 0.00341865 0)
(-0.00981732 0.00345025 0)
(-0.0107949 0.00346885 0)
(-0.0117764 0.00347727 0)
(-0.0127589 0.00347766 0)
(-0.0137404 0.00347157 0)
(-0.0147187 0.00346004 0)
(-0.0156921 0.00344367 0)
(-0.016659 0.0034227 0)
(-0.0176177 0.00339707 0)
(-0.0185665 0.00336645 0)
(-0.0195035 0.00333038 0)
(-0.020427 0.00328822 0)
(-0.0213348 0.00323924 0)
(-0.0222247 0.00318264 0)
(-0.0230943 0.00311758 0)
(-0.0239409 0.00304323 0)
(-0.0247618 0.00295873 0)
(-0.025554 0.00286329 0)
(-0.0263144 0.00275613 0)
(-0.0270396 0.00263658 0)
(-0.0277263 0.00250402 0)
(-0.0283709 0.00235795 0)
(-0.02897 0.002198 0)
(-0.0295198 0.00202391 0)
(-0.0300169 0.0018356 0)
(-0.0304577 0.00163313 0)
(-0.0308388 0.00141673 0)
(-0.0311569 0.00118682 0)
(-0.0314089 0.00094402 0)
(-0.031592 0.000689122 0)
(-0.0317037 0.000423121 0)
(-0.0317416 0.000147201 0)
(-0.0317039 -0.000137269 0)
(-0.0315892 -0.000428743 0)
(-0.0313963 -0.000725498 0)
(-0.0311247 -0.00102566 0)
(-0.0307743 -0.00132723 0)
(-0.0303455 -0.00162805 0)
(-0.0298393 -0.00192592 0)
(-0.0292572 -0.00221851 0)
(-0.0286012 -0.00250348 0)
(-0.027874 -0.00277845 0)
(-0.0270786 -0.00304105 0)
(-0.0262187 -0.00328896 0)
(-0.0252987 -0.00351993 0)
(-0.024323 -0.00373181 0)
(-0.0232971 -0.00392259 0)
(-0.0222263 -0.00409044 0)
(-0.0211168 -0.00423375 0)
(-0.0199749 -0.00435111 0)
(-0.0188072 -0.00444139 0)
(-0.0176206 -0.00450374 0)
(-0.016422 -0.0045376 0)
(-0.0152186 -0.00454272 0)
(-0.0140175 -0.00451918 0)
(-0.0128257 -0.00446736 0)
(-0.0116502 -0.00438792 0)
(-0.0104978 -0.00428185 0)
(-0.00937489 -0.00415038 0)
(-0.00828767 -0.00399499 0)
(-0.00724193 -0.00381736 0)
(-0.00624301 -0.00361937 0)
(-0.00529583 -0.00340301 0)
(-0.00440476 -0.00317041 0)
(-0.00357369 -0.00292375 0)
(-0.00280593 -0.00266529 0)
(-0.00210427 -0.00239731 0)
(-0.0014709 -0.00212211 0)
(-0.00090744 -0.00184202 0)
(-0.000414933 -0.00155942 0)
(6.19439e-06 -0.00127673 0)
(0.000356145 -0.000996513 0)
(0.000635794 -0.000721479 0)
(0.000846731 -0.000454606 0)
(0.000991332 -0.000199216 0)
(0.00107284 4.09021e-05 0)
(0.00109546 0.000261367 0)
(0.00106449 0.000457061 0)
(0.000986446 0.000621994 0)
(0.000869205 0.000749186 0)
(0.000722168 0.000830581 0)
(0.000556492 0.00085705 0)
(0.000385103 0.000818504 0)
(0.000222446 0.000704154 0)
(8.7985e-05 0.000502892 0)
(1.53898e-05 0.000203759 0)
(-2.73652e-05 0.000252474 0)
(-0.000190263 0.000818101 0)
(-0.000537035 0.00138931 0)
(-0.00102086 0.00193268 0)
(-0.00161995 0.00242843 0)
(-0.0023192 0.00286569 0)
(-0.00310344 0.00324042 0)
(-0.00395867 0.00355347 0)
(-0.00487246 0.00380881 0)
(-0.00583377 0.00401226 0)
(-0.00683299 0.00417049 0)
(-0.0078618 0.0042903 0)
(-0.0089131 0.00437818 0)
(-0.00998092 0.00444002 0)
(-0.0110603 0.0044809 0)
(-0.012147 0.00450508 0)
(-0.0132375 0.00451599 0)
(-0.014329 0.00451624 0)
(-0.0154188 0.00450775 0)
(-0.0165048 0.0044918 0)
(-0.0175849 0.00446913 0)
(-0.0186571 0.00444005 0)
(-0.0197195 0.00440447 0)
(-0.02077 0.00436202 0)
(-0.0218066 0.00431212 0)
(-0.0228271 0.00425398 0)
(-0.0238292 0.00418671 0)
(-0.0248101 0.00410932 0)
(-0.0257673 0.0040208 0)
(-0.0266977 0.00392011 0)
(-0.0275983 0.00380621 0)
(-0.0284657 0.00367813 0)
(-0.0292964 0.00353496 0)
(-0.0300869 0.00337588 0)
(-0.0308334 0.00320017 0)
(-0.0315322 0.00300727 0)
(-0.0321794 0.00279677 0)
(-0.0327711 0.00256841 0)
(-0.0333036 0.00232217 0)
(-0.0337731 0.00205819 0)
(-0.0341761 0.00177685 0)
(-0.0345091 0.00147876 0)
(-0.034769 0.00116476 0)
(-0.0349529 0.000835922 0)
(-0.0350582 0.00049357 0)
(-0.0350827 0.000139246 0)
(-0.0350245 -0.000225279 0)
(-0.0348823 -0.00059802 0)
(-0.0346551 -0.000976788 0)
(-0.0343426 -0.00135922 0)
(-0.0339449 -0.00174277 0)
(-0.0334624 -0.00212479 0)
(-0.0328966 -0.00250249 0)
(-0.0322491 -0.00287301 0)
(-0.0315221 -0.00323342 0)
(-0.0307188 -0.0035808 0)
(-0.0298424 -0.00391221 0)
(-0.028897 -0.0042248 0)
(-0.0278871 -0.00451579 0)
(-0.0268179 -0.00478255 0)
(-0.0256949 -0.0050226 0)
(-0.0245241 -0.0052337 0)
(-0.0233119 -0.00541383 0)
(-0.0220652 -0.0055613 0)
(-0.020791 -0.00567468 0)
(-0.0194967 -0.00575295 0)
(-0.0181898 -0.0057954 0)
(-0.016878 -0.00580174 0)
(-0.0155687 -0.00577205 0)
(-0.0142698 -0.00570679 0)
(-0.0129886 -0.00560682 0)
(-0.0117324 -0.00547335 0)
(-0.0105081 -0.00530791 0)
(-0.00932239 -0.00511234 0)
(-0.00818151 -0.00488876 0)
(-0.00709118 -0.00463948 0)
(-0.00605667 -0.00436703 0)
(-0.00508265 -0.00407404 0)
(-0.00417328 -0.00376328 0)
(-0.00333208 -0.00343756 0)
(-0.00256198 -0.00309975 0)
(-0.0018653 -0.00275275 0)
(-0.00124372 -0.00239951 0)
(-0.000698284 -0.002043 0)
(-0.000229402 -0.00168632 0)
(0.000163207 -0.00133268 0)
(0.000480525 -0.000985507 0)
(0.000724297 -0.000648562 0)
(0.000897086 -0.00032601 0)
(0.00100236 -2.25779e-05 0)
(0.00104458 0.000256305 0)
(0.00102934 0.000504349 0)
(0.000963467 0.000714256 0)
(0.000855196 0.000877579 0)
(0.000714331 0.000984624 0)
(0.000552488 0.00102441 0)
(0.000383135 0.000984702 0)
(0.000221352 0.000852141 0)
(8.72735e-05 0.000612415 0)
(1.51099e-05 0.000250336 0)
(-3.18041e-05 0.000358435 0)
(-0.000218859 0.00110541 0)
(-0.000614264 0.0018322 0)
(-0.00116209 0.00250882 0)
(-0.00183594 0.00311807 0)
(-0.00261782 0.00365132 0)
(-0.00349029 0.00410643 0)
(-0.0044377 0.00448602 0)
(-0.00544644 0.0047957 0)
(-0.00650471 0.00504283 0)
(-0.00760232 0.00523552 0)
(-0.00873056 0.00538192 0)
(-0.00988204 0.00548971 0)
(-0.0110505 0.00556583 0)
(-0.0122308 0.0056163 0)
(-0.0134185 0.00564611 0)
(-0.0146099 0.00565931 0)
(-0.0158019 0.005659 0)
(-0.0169916 0.00564742 0)
(-0.0181766 0.00562611 0)
(-0.0193546 0.00559594 0)
(-0.0205233 0.00555726 0)
(-0.0216806 0.00550997 0)
(-0.0228242 0.00545364 0)
(-0.0239517 0.00538754 0)
(-0.0250606 0.00531077 0)
(-0.0261483 0.00522223 0)
(-0.0272118 0.00512078 0)
(-0.0282481 0.00500519 0)
(-0.029254 0.00487423 0)
(-0.030226 0.00472669 0)
(-0.0311606 0.00456143 0)
(-0.0320539 0.00437739 0)
(-0.0329021 0.00417362 0)
(-0.0337012 0.00394933 0)
(-0.0344471 0.00370391 0)
(-0.0351358 0.00343691 0)
(-0.0357632 0.00314814 0)
(-0.0363254 0.00283762 0)
(-0.0368184 0.00250564 0)
(-0.0372385 0.00215276 0)
(-0.0375824 0.00177979 0)
(-0.0378468 0.00138785 0)
(-0.0380287 0.000978332 0)
(-0.0381256 0.000552909 0)
(-0.0381354 0.000113524 0)
(-0.0380564 -0.00033762 0)
(-0.0378871 -0.000798067 0)
(-0.037627 -0.00126514 0)
(-0.0372757 -0.00173594 0)
(-0.0368334 -0.00220741 0)
(-0.0363011 -0.00267632 0)
(-0.0356801 -0.00313933 0)
(-0.0349723 -0.00359298 0)
(-0.0341804 -0.0040338 0)
(-0.0333075 -0.00445827 0)
(-0.0323571 -0.0048629 0)
(-0.0313337 -0.00524426 0)
(-0.0302421 -0.00559905 0)
(-0.0290875 -0.00592411 0)
(-0.027876 -0.0062165 0)
(-0.0266138 -0.0064735 0)
(-0.0253077 -0.00669273 0)
(-0.023965 -0.00687212 0)
(-0.0225931 -0.00700998 0)
(-0.0211999 -0.00710505 0)
(-0.0197934 -0.00715649 0)
(-0.0183817 -0.00716392 0)
(-0.0169729 -0.00712745 0)
(-0.0155752 -0.00704763 0)
(-0.0141965 -0.00692547 0)
(-0.0128447 -0.00676245 0)
(-0.0115271 -0.00656043 0)
(-0.010251 -0.00632163 0)
(-0.00902291 -0.00604863 0)
(-0.00784905 -0.00574425 0)
(-0.00673498 -0.00541157 0)
(-0.0056857 -0.00505381 0)
(-0.00470558 -0.00467433 0)
(-0.00379832 -0.00427658 0)
(-0.00296697 -0.00386407 0)
(-0.00221391 -0.00344034 0)
(-0.00154083 -0.00300899 0)
(-0.000948747 -0.00257368 0)
(-0.000437969 -0.00213816 0)
(-8.09709e-06 -0.00170638 0)
(0.000342007 -0.0012825 0)
(0.000614274 -0.000871099 0)
(0.000811485 -0.000477207 0)
(0.000937343 -0.000106519 0)
(0.00099657 0.000234459 0)
(0.000995033 0.000538242 0)
(0.000939867 0.000796194 0)
(0.00083963 0.000998368 0)
(0.000704494 0.00113338 0)
(0.000546486 0.00118835 0)
(0.000379541 0.00114882 0)
(0.00021925 0.000998848 0)
(8.62039e-05 0.000720984 0)
(1.48e-05 0.000296233 0)
(-3.58699e-05 0.000478739 0)
(-0.00024537 0.00142979 0)
(-0.000686283 0.00232953 0)
(-0.00129432 0.00315225 0)
(-0.00203879 0.00388433 0)
(-0.00289889 0.00452016 0)
(-0.00385493 0.00506027 0)
(-0.00488957 0.00550959 0)
(-0.00598802 0.00587581 0)
(-0.00713766 0.00616813 0)
(-0.00832773 0.00639633 0)
(-0.00954914 0.00657001 0)
(-0.0107942 0.00669815 0)
(-0.0120565 0.00678879 0)
(-0.0133306 0.00684887 0)
(-0.014612 0.00688417 0)
(-0.0158967 0.00689931 0)
(-0.0171815 0.00689788 0)
(-0.0184634 0.00688245 0)
(-0.0197396 0.00685478 0)
(-0.0210077 0.00681587 0)
(-0.0222652 0.00676609 0)
(-0.0235097 0.00670535 0)
(-0.0247386 0.0066331 0)
(-0.0259493 0.00654852 0)
(-0.0271391 0.00645052 0)
(-0.0283048 0.00633785 0)
(-0.0294436 0.00620916 0)
(-0.0305519 0.00606303 0)
(-0.0316262 0.00589804 0)
(-0.0326629 0.00571281 0)
(-0.0336581 0.00550603 0)
(-0.0346076 0.0052765 0)
(-0.0355075 0.00502318 0)
(-0.0363534 0.00474519 0)
(-0.0371411 0.00444189 0)
(-0.0378664 0.00411287 0)
(-0.0385249 0.00375797 0)
(-0.0391127 0.00337733 0)
(-0.0396256 0.0029714 0)
(-0.0400601 0.00254093 0)
(-0.0404124 0.00208702 0)
(-0.0406795 0.00161106 0)
(-0.0408585 0.00111482 0)
(-0.0409468 0.000600336 0)
(-0.0409424 6.99922e-05 0)
(-0.0408436 -0.000473557 0)
(-0.0406493 -0.00102736 0)
(-0.0403589 -0.00158824 0)
(-0.0399722 -0.00215276 0)
(-0.0394897 -0.00271731 0)
(-0.0389124 -0.00327811 0)
(-0.0382417 -0.00383123 0)
(-0.0374798 -0.00437265 0)
(-0.0366295 -0.00489831 0)
(-0.0356939 -0.0054041 0)
(-0.0346769 -0.00588596 0)
(-0.0335829 -0.00633989 0)
(-0.032417 -0.00676204 0)
(-0.0311847 -0.0071487 0)
(-0.0298922 -0.00749642 0)
(-0.028546 -0.00780203 0)
(-0.0271532 -0.00806269 0)
(-0.0257213 -0.00827595 0)
(-0.0242584 -0.00843982 0)
(-0.0227726 -0.00855276 0)
(-0.0212723 -0.00861376 0)
(-0.0197663 -0.00862237 0)
(-0.0182632 -0.00857866 0)
(-0.0167717 -0.00848328 0)
(-0.0153004 -0.00833742 0)
(-0.0138575 -0.0081428 0)
(-0.0124512 -0.00790164 0)
(-0.0110891 -0.0076166 0)
(-0.00977828 -0.00729074 0)
(-0.00852534 -0.00692745 0)
(-0.00733627 -0.00653039 0)
(-0.00621637 -0.00610345 0)
(-0.00517024 -0.00565066 0)
(-0.00420178 -0.00517615 0)
(-0.00331412 -0.00468413 0)
(-0.00250968 -0.00417885 0)
(-0.00179013 -0.00366462 0)
(-0.00115637 -0.00314581 0)
(-0.000608588 -0.00262691 0)
(-0.000146205 -0.00211258 0)
(0.000232131 -0.00160781 0)
(0.000528589 -0.00111797 0)
(0.000746212 -0.000649008 0)
(0.000888976 -0.000207592 0)
(0.00096189 0.000198682 0)
(0.00097112 0.000561115 0)
(0.000924117 0.00086971 0)
(0.000829773 0.00111299 0)
(0.000698622 0.00127786 0)
(0.000543092 0.00134947 0)
(0.000377554 0.00131115 0)
(0.000218048 0.00114435 0)
(8.55444e-05 0.000828621 0)
(1.45951e-05 0.000341525 0)
(-3.96147e-05 0.000612318 0)
(-0.000269958 0.00178869 0)
(-0.000753325 0.00287782 0)
(-0.00141776 0.00385897 0)
(-0.00222859 0.00472283 0)
(-0.00316235 0.00546758 0)
(-0.00419719 0.00609706 0)
(-0.00531407 0.00661906 0)
(-0.00649703 0.00704376 0)
(-0.00773261 0.00738252 0)
(-0.00900948 0.00764698 0)
(-0.0103182 0.00784838 0)
(-0.0116507 0.00799705 0)
(-0.0130005 0.00810221 0)
(-0.0143619 0.00817174 0)
(-0.0157302 0.0082122 0)
(-0.0171015 0.00822881 0)
(-0.0184723 0.00822562 0)
(-0.0198394 0.00820552 0)
(-0.0212 0.00817046 0)
(-0.0225513 0.00812157 0)
(-0.0238907 0.00805925 0)
(-0.0252155 0.00798334 0)
(-0.026523 0.00789324 0)
(-0.0278103 0.00778796 0)
(-0.0290743 0.00766627 0)
(-0.0303119 0.00752673 0)
(-0.0315196 0.00736779 0)
(-0.0326939 0.00718784 0)
(-0.033831 0.00698528 0)
(-0.0349268 0.00675854 0)
(-0.0359773 0.00650617 0)
(-0.0369783 0.00622684 0)
(-0.0379252 0.00591941 0)
(-0.0388138 0.00558298 0)
(-0.0396395 0.00521687 0)
(-0.0403979 0.00482071 0)
(-0.0410847 0.00439445 0)
(-0.0416957 0.00393836 0)
(-0.0422269 0.00345308 0)
(-0.0426744 0.0029396 0)
(-0.0430347 0.0023993 0)
(-0.0433047 0.00183393 0)
(-0.0434815 0.00124561 0)
(-0.0435628 0.000636808 0)
(-0.0435464 1.03402e-05 0)
(-0.0434311 -0.000630643 0)
(-0.0432156 -0.00128272 0)
(-0.0428995 -0.00194217 0)
(-0.0424829 -0.00260506 0)
(-0.0419661 -0.00326721 0)
(-0.0413503 -0.00392429 0)
(-0.0406371 -0.00457181 0)
(-0.0398287 -0.00520518 0)
(-0.0389278 -0.00581975 0)
(-0.0379376 -0.00641085 0)
(-0.0368621 -0.00697383 0)
(-0.0357057 -0.00750411 0)
(-0.0344736 -0.00799724 0)
(-0.0331712 -0.00844898 0)
(-0.0318049 -0.00885532 0)
(-0.0303814 -0.00921256 0)
(-0.028908 -0.0095174 0)
(-0.0273926 -0.00976694 0)
(-0.0258435 -0.00995882 0)
(-0.0242691 -0.0100912 0)
(-0.0226786 -0.0101628 0)
(-0.0210811 -0.0101731 0)
(-0.0194859 -0.0101221 0)
(-0.0179024 -0.0100105 0)
(-0.0163396 -0.00983972 0)
(-0.0148067 -0.00961165 0)
(-0.0133124 -0.00932892 0)
(-0.0118648 -0.00899465 0)
(-0.0104718 -0.00861243 0)