/*--------------------------------*- C++ -*----------------------------------*\
  =========                 |
  \\      /  F ield         | OpenFOAM: The Open Source CFD Toolbox
   \\    /   O peration     | Website:  https://openfoam.org
    \\  /    A nd           | Version:  9
     \\/     M anipulation  |
\*---------------------------------------------------------------------------*/
FoamFile
{
    format      ascii;
    class       volVectorField;
    location    "1.75";
    object      U;
}
// * * * * * * * * * * * * * * * * * * * * * * * * * * * * * * * * * * * * * //

dimensions      [0 1 -1 0 0 0 0];

internalField   nonuniform List<vector> 
1260
(
(-0.0484153 -0.186352 0)
(-0.0500069 -0.197002 0)
(-0.0515686 -0.207461 0)
(-0.053096 -0.217713 0)
(-0.0545891 -0.227749 0)
(-0.0560545 -0.23758 0)
(-0.0575086 -0.247242 0)
(-0.0589811 -0.256812 0)
(-0.060519 -0.266428 0)
(-0.0621899 -0.276307 0)
(-0.0640832 -0.286766 0)
(-0.0663076 -0.298235 0)
(-0.0689822 -0.311255 0)
(-0.0722176 -0.326448 0)
(-0.076086 -0.344444 0)
(-0.0805785 -0.365753 0)
(-0.0855541 -0.390563 0)
(-0.0906872 -0.418492 0)
(-0.0954286 -0.448295 0)
(-0.0989994 -0.477601 0)
(-0.100442 -0.502759 0)
(-0.0987499 -0.518943 0)
(-0.0930854 -0.520654 0)
(-0.0830667 -0.502747 0)
(-0.0690511 -0.461914 0)
(-0.0522886 -0.398223 0)
(-0.0347839 -0.315928 0)
(-0.0188343 -0.222783 0)
(-0.00669193 -0.127895 0)
(-0.000925383 -0.0391005 0)
(-0.0389072 -0.18465 0)
(-0.0407014 -0.195322 0)
(-0.0424759 -0.205809 0)
(-0.0442249 -0.216091 0)
(-0.0459458 -0.226157 0)
(-0.0476416 -0.236009 0)
(-0.0493235 -0.245672 0)
(-0.0510146 -0.255209 0)
(-0.0527538 -0.264739 0)
(-0.0545992 -0.274458 0)
(-0.0566313 -0.284661 0)
(-0.0589518 -0.295763 0)
(-0.061677 -0.308298 0)
(-0.0649233 -0.322909 0)
(-0.0687795 -0.340277 0)
(-0.0732677 -0.361009 0)
(-0.0782922 -0.385448 0)
(-0.0835841 -0.413409 0)
(-0.0886541 -0.44388 0)
(-0.0927737 -0.474704 0)
(-0.0950087 -0.502369 0)
(-0.0943315 -0.522024 0)
(-0.089827 -0.527889 0)
(-0.0809825 -0.514238 0)
(-0.0679984 -0.476933 0)
(-0.0519898 -0.415163 0)
(-0.0349006 -0.332564 0)
(-0.0190614 -0.236776 0)
(-0.00683626 -0.137287 0)
(-0.000961376 -0.0425356 0)
(-0.0293163 -0.18275 0)
(-0.031315 -0.193432 0)
(-0.0333054 -0.203937 0)
(-0.0352807 -0.214242 0)
(-0.0372363 -0.224332 0)
(-0.0391724 -0.234202 0)
(-0.041096 -0.24387 0)
(-0.0430241 -0.253384 0)
(-0.0449882 -0.262847 0)
(-0.0470377 -0.272435 0)
(-0.0492436 -0.28242 0)
(-0.0516992 -0.293197 0)
(-0.0545159 -0.305292 0)
(-0.0578118 -0.319354 0)
(-0.0616876 -0.336107 0)
(-0.0661907 -0.356242 0)
(-0.071265 -0.380238 0)
(-0.0766944 -0.408106 0)
(-0.0820489 -0.43906 0)
(-0.0866535 -0.471177 0)
(-0.0896056 -0.501118 0)
(-0.0898685 -0.524051 0)
(-0.0864633 -0.533976 0)
(-0.0787572 -0.52463 0)
(-0.0667976 -0.491052 0)
(-0.051561 -0.431507 0)
(-0.0349211 -0.348923 0)
(-0.019232 -0.25074 0)
(-0.00695908 -0.146772 0)
(-0.000994162 -0.0460443 0)
(-0.01965 -0.180651 0)
(-0.0218542 -0.191332 0)
(-0.0240628 -0.201842 0)
(-0.026268 -0.212159 0)
(-0.0284641 -0.222265 0)
(-0.0306487 -0.232149 0)
(-0.0328254 -0.241821 0)
(-0.0350062 -0.251318 0)
(-0.0372157 -0.260728 0)
(-0.0394952 -0.270207 0)
(-0.0419062 -0.280006 0)
(-0.0445329 -0.290498 0)
(-0.0474802 -0.302195 0)
(-0.0508644 -0.315746 0)
(-0.054794 -0.331906 0)
(-0.0593358 -0.351436 0)
(-0.0644685 -0.374939 0)
(-0.0700241 -0.402606 0)
(-0.0756298 -0.433881 0)
(-0.0806664 -0.467083 0)
(-0.0842694 -0.499073 0)
(-0.0854035 -0.525088 0)
(-0.0830383 -0.538961 0)
(-0.0764321 -0.533942 0)
(-0.0654839 -0.504264 0)
(-0.0510286 -0.447229 0)
(-0.0348621 -0.364972 0)
(-0.0193537 -0.264641 0)
(-0.00706238 -0.156324 0)
(-0.0010238 -0.049616 0)
(-0.00991442 -0.178352 0)
(-0.0123252 -0.189018 0)
(-0.0147537 -0.199522 0)
(-0.0171918 -0.209839 0)
(-0.0196328 -0.21995 0)
(-0.0220727 -0.229841 0)
(-0.0245121 -0.239513 0)
(-0.0269588 -0.248995 0)
(-0.0294314 -0.25836 0)
(-0.0319634 -0.267748 0)
(-0.0346073 -0.277388 0)
(-0.0374381 -0.28763 0)
(-0.0405525 -0.298969 0)
(-0.0440627 -0.312049 0)
(-0.0480808 -0.327644 0)
(-0.0526888 -0.346573 0)
(-0.057894 -0.369548 0)
(-0.0635724 -0.39693 0)
(-0.0694056 -0.428383 0)
(-0.074831 -0.462479 0)
(-0.0790273 -0.496301 0)
(-0.0809702 -0.525199 0)
(-0.0795892 -0.542895 0)
(-0.074044 -0.542205 0)
(-0.0640902 -0.516576 0)
(-0.0504188 -0.462316 0)
(-0.034741 -0.380687 0)
(-0.0194353 -0.278454 0)
(-0.00714857 -0.16592 0)
(-0.00105043 -0.0532413 0)
(-0.000115246 -0.175854 0)
(-0.00273319 -0.186491 0)
(-0.00538293 -0.196974 0)
(-0.00805642 -0.207279 0)
(-0.0107462 -0.217383 0)
(-0.013447 -0.22727 0)
(-0.0161573 -0.236935 0)
(-0.0188811 -0.2464 0)
(-0.0216319 -0.255726 0)
(-0.0244362 -0.265034 0)
(-0.027338 -0.274536 0)
(-0.0304026 -0.28456 0)
(-0.0337178 -0.295578 0)
(-0.0373901 -0.308227 0)
(-0.0415316 -0.323289 0)
(-0.0462349 -0.341629 0)
(-0.0515313 -0.364056 0)
(-0.0573355 -0.391084 0)
(-0.0633808 -0.422593 0)
(-0.0691608 -0.457409 0)
(-0.0739014 -0.492858 0)
(-0.0765971 -0.524442 0)
(-0.0761483 -0.545826 0)
(-0.0716261 -0.549447 0)
(-0.0626475 -0.527996 0)
(-0.0497574 -0.476762 0)
(-0.0345759 -0.396053 0)
(-0.0194862 -0.292159 0)
(-0.0072206 -0.175545 0)
(-0.0010743 -0.0569123 0)
(0.00974292 -0.173155 0)
(0.00691738 -0.183749 0)
(0.0040452 -0.194197 0)
(0.00113423 -0.204475 0)
(-0.00180767 -0.214559 0)
(-0.00477431 -0.224429 0)
(-0.00776244 -0.234078 0)
(-0.0107731 -0.243521 0)
(-0.0138155 -0.252807 0)
(-0.0169093 -0.262045 0)
(-0.0200907 -0.271426 0)
(-0.023416 -0.281256 0)
(-0.0269633 -0.291989 0)
(-0.0308315 -0.304244 0)
(-0.0351305 -0.318808 0)
(-0.0399593 -0.33658 0)
(-0.0453685 -0.35845 0)
(-0.0513069 -0.385072 0)
(-0.0575556 -0.416533 0)
(-0.0636636 -0.451911 0)
(-0.0689071 -0.488794 0)
(-0.0723064 -0.522869 0)
(-0.0727425 -0.547798 0)
(-0.069207 -0.555697 0)
(-0.0611838 -0.538536 0)
(-0.0490692 -0.490565 0)
(-0.0343853 -0.411062 0)
(-0.019517 -0.305746 0)
(-0.00728187 -0.185187 0)
(-0.00109575 -0.0606222 0)
(0.0196563 -0.170255 0)
(0.0166228 -0.180791 0)
(0.0135271 -0.191189 0)
(0.0103769 -0.201425 0)
(0.00717994 -0.211473 0)
(0.00394293 -0.221314 0)
(0.000670752 -0.230936 0)
(-0.00263531 -0.240347 0)
(-0.00598106 -0.24959 0)
(-0.00937975 -0.258762 0)
(-0.0128599 -0.268034 0)
(-0.0164699 -0.277693 0)
(-0.0202777 -0.28817 0)
(-0.0243735 -0.300068 0)
(-0.0288628 -0.314169 0)
(-0.0338474 -0.331398 0)
(-0.039393 -0.352712 0)
(-0.0454777 -0.378892 0)
(-0.0519268 -0.410217 0)
(-0.0583433 -0.446016 0)
(-0.0640553 -0.48415 0)
(-0.0681151 -0.520525 0)
(-0.0693934 -0.548853 0)
(-0.0668114 -0.560984 0)
(-0.0597244 -0.54821 0)
(-0.0483773 -0.503729 0)
(-0.0341877 -0.425713 0)
(-0.0195385 -0.319211 0)
(-0.00733622 -0.194839 0)
(-0.00111523 -0.0643666 0)
(0.0296221 -0.167156 0)
(0.0263804 -0.177618 0)
(0.0230602 -0.187949 0)
(0.0196688 -0.198126 0)
(0.0162139 -0.208123 0)
(0.0127025 -0.217919 0)
(0.0091407 -0.2275 0)
(0.00553164 -0.23687 0)
(0.00187188 -0.246065 0)
(-0.00184512 -0.255167 0)
(-0.00564107 -0.264339 0)
(-0.00955749 -0.273844 0)
(-0.0136516 -0.284092 0)
(-0.0180043 -0.295667 0)
(-0.0227147 -0.309342 0)
(-0.0278851 -0.326057 0)
(-0.0335917 -0.346824 0)
(-0.0398377 -0.372536 0)
(-0.0464887 -0.403652 0)
(-0.0531996 -0.439747 0)
(-0.0593521 -0.478962 0)
(-0.0640353 -0.517452 0)
(-0.0661179 -0.549026 0)
(-0.0644595 -0.565334 0)
(-0.0582911 -0.557031 0)
(-0.0477035 -0.516261 0)
(-0.0340011 -0.440011 0)
(-0.0195622 -0.332557 0)
(-0.00738787 -0.2045 0)
(-0.00113328 -0.0681426 0)
(0.0396383 -0.163856 0)
(0.036188 -0.174228 0)
(0.0326422 -0.184476 0)
(0.0290078 -0.194577 0)
(0.0252921 -0.204505 0)
(0.0215024 -0.214239 0)
(0.0176454 -0.223764 0)
(0.0137259 -0.23308 0)
(0.00974476 -0.242217 0)
(0.0056974 -0.251248 0)
(0.00156837 -0.260323 0)
(-0.00267328 -0.269687 0)
(-0.00707671 -0.279729 0)
(-0.0117132 -0.291012 0)
(-0.0166738 -0.304297 0)
(-0.0220585 -0.320529 0)
(-0.027951 -0.340765 0)
(-0.0343753 -0.365994 0)
(-0.0412332 -0.396843 0)
(-0.0482294 -0.433122 0)
(-0.0547996 -0.47326 0)
(-0.0600746 -0.513684 0)
(-0.0629285 -0.548351 0)
(-0.0621675 -0.568769 0)
(-0.056903 -0.565012 0)
(-0.0470676 -0.528166 0)
(-0.0338433 -0.453964 0)
(-0.0195999 -0.345793 0)
(-0.0074414 -0.214175 0)
(-0.00115054 -0.0719499 0)
(0.0497038 -0.160355 0)
(0.0460444 -0.17062 0)
(0.0422717 -0.180767 0)
(0.0383923 -0.190774 0)
(0.034413 -0.200616 0)
(0.0303412 -0.210271 0)
(0.026184 -0.219722 0)
(0.0219477 -0.228969 0)
(0.0176359 -0.238037 0)
(0.0132473 -0.246992 0)
(0.00877226 -0.25597 0)
(0.00418788 -0.265203 0)
(-0.000545929 -0.275058 0)
(-0.00549045 -0.286077 0)
(-0.0107281 -0.299005 0)
(-0.0163546 -0.314788 0)
(-0.0224576 -0.334513 0)
(-0.029078 -0.359254 0)
(-0.0361504 -0.389789 0)
(-0.0434266 -0.426155 0)
(-0.0503964 -0.467068 0)
(-0.0562363 -0.509252 0)
(-0.0598329 -0.546856 0)
(-0.0599473 -0.57131 0)
(-0.0555752 -0.572163 0)
(-0.0464872 -0.539454 0)
(-0.0337314 -0.467586 0)
(-0.0196637 -0.358935 0)
(-0.00750174 -0.223875 0)
(-0.00116776 -0.0757905 0)
(0.059818 -0.156653 0)
(0.0559487 -0.166794 0)
(0.0519478 -0.176822 0)
(0.0478211 -0.186716 0)
(0.0435752 -0.196453 0)
(0.0392173 -0.206009 0)
(0.0347551 -0.215369 0)
(0.0301958 -0.224531 0)
(0.0255453 -0.233517 0)
(0.0208057 -0.242386 0)
(0.0159725 -0.251266 0)
(0.01103 -0.260373 0)
(0.0059471 -0.270056 0)
(0.000672513 -0.280836 0)
(-0.00486677 -0.29344 0)
(-0.0107604 -0.308807 0)
(-0.0170975 -0.328047 0)
(-0.0239325 -0.352303 0)
(-0.0312288 -0.382487 0)
(-0.0387825 -0.418854 0)
(-0.0461379 -0.460407 0)
(-0.0525199 -0.504182 0)
(-0.0568349 -0.544564 0)
(-0.0578066 -0.572973 0)
(-0.0543196 -0.578492 0)
(-0.0459777 -0.55013 0)
(-0.0336816 -0.48089 0)
(-0.0197658 -0.372007 0)
(-0.00757413 -0.233616 0)
(-0.00118576 -0.079669 0)
(0.0699804 -0.152751 0)
(0.0659004 -0.162748 0)
(0.0616696 -0.172638 0)
(0.0572933 -0.1824 0)
(0.0527777 -0.192011 0)
(0.0481298 -0.201449 0)
(0.0433576 -0.2107 0)
(0.0384693 -0.219759 0)
(0.0334728 -0.228647 0)
(0.0283732 -0.237421 0)
(0.0231708 -0.246197 0)
(0.0178566 -0.255181 0)
(0.0124081 -0.264705 0)
(0.00678388 -0.275269 0)
(0.000920816 -0.287579 0)
(-0.00526339 -0.302564 0)
(-0.0118571 -0.321347 0)
(-0.0189248 -0.345126 0)
(-0.0264552 -0.374934 0)
(-0.0342864 -0.411227 0)
(-0.0420161 -0.453293 0)
(-0.0489211 -0.498496 0)
(-0.0539341 -0.541496 0)
(-0.0557493 -0.573768 0)
(-0.0531445 -0.584 0)
(-0.0455517 -0.560198 0)
(-0.0337092 -0.493893 0)
(-0.0199189 -0.385033 0)
(-0.0076642 -0.243422 0)
(-0.00120547 -0.0835929 0)
(0.0801911 -0.148646 0)
(0.075899 -0.158481 0)
(0.0714364 -0.168213 0)
(0.0668079 -0.177822 0)
(0.0620192 -0.187287 0)
(0.0570772 -0.196587 0)
(0.0519901 -0.205708 0)
(0.0467673 -0.214646 0)
(0.0414179 -0.22342 0)
(0.0359502 -0.232085 0)
(0.0303689 -0.240751 0)
(0.0246711 -0.249613 0)
(0.0188426 -0.258988 0)
(0.0128515 -0.269355 0)
(0.00664495 -0.281399 0)
(0.000148997 -0.296036 0)
(-0.00672195 -0.314392 0)
(-0.0140397 -0.337708 0)
(-0.0218151 -0.367122 0)
(-0.0299251 -0.403278 0)
(-0.0380204 -0.445739 0)
(-0.0454323 -0.49221 0)
(-0.051126 -0.537667 0)
(-0.0537745 -0.573704 0)
(-0.052054 -0.588688 0)
(-0.0452191 -0.569657 0)
(-0.0338282 -0.506609 0)
(-0.0201355 -0.398047 0)
(-0.00777791 -0.253321 0)
(-0.00122793 -0.0875727 0)
(0.0904495 -0.144339 0)
(0.0859438 -0.153991 0)
(0.0812471 -0.163545 0)
(0.0763634 -0.17298 0)
(0.0712982 -0.182278 0)
(0.066058 -0.191418 0)
(0.0606515 -0.200388 0)
(0.0550885 -0.209186 0)
(0.0493801 -0.21783 0)
(0.0435372 -0.226372 0)
(0.0375683 -0.23492 0)
(0.0314768 -0.243658 0)
(0.0252558 -0.25289 0)
(0.0188832 -0.263077 0)
(0.0123161 -0.274882 0)
(0.00548968 -0.289203 0)
(-0.00167717 -0.307164 0)
(-0.00926121 -0.330036 0)
(-0.0172922 -0.359046 0)
(-0.0256833 -0.395009 0)
(-0.034137 -0.437757 0)
(-0.042042 -0.485341 0)
(-0.048402 -0.533089 0)
(-0.0518775 -0.572782 0)
(-0.0510484 -0.592548 0)
(-0.0449869 -0.578502 0)
(-0.0340512 -0.519051 0)
(-0.0204284 -0.411082 0)
(-0.00792164 -0.263348 0)
(-0.00125429 -0.091622 0)
(0.0859581 -0.167871 0)
(0.0806127 -0.176979 0)
(0.0750703 -0.185938 0)
(0.0693398 -0.194737 0)
(0.0634317 -0.203374 0)
(0.0573588 -0.211869 0)
(0.0511343 -0.220274 0)
(0.0447709 -0.228693 0)
(0.0382771 -0.237304 0)
(0.0316536 -0.246398 0)
(0.0248872 -0.25642 0)
(0.0179453 -0.268012 0)
(0.0107723 -0.282049 0)
(0.00329317 -0.299646 0)
(-0.00457163 -0.322097 0)
(-0.0128681 -0.350699 0)
(-0.0215429 -0.386422 0)
(-0.0303493 -0.429355 0)
(-0.038735 -0.477901 0)
(-0.0457492 -0.527772 0)
(-0.0500487 -0.571 0)
(-0.0501232 -0.595565 0)
(-0.0448581 -0.586719 0)
(-0.0343892 -0.531229 0)
(-0.0208103 -0.424176 0)
(-0.0081022 -0.273545 0)
(-0.00128584 -0.095758 0)
(0.0955889 -0.162491 0)
(0.0899598 -0.171388 0)
(0.0841115 -0.180143 0)
(0.0780528 -0.188748 0)
(0.0717954 -0.197204 0)
(0.0653533 -0.205532 0)
(0.0587423 -0.213785 0)
(0.0519786 -0.222064 0)
(0.0450761 -0.230543 0)
(0.0380422 -0.239504 0)
(0.0308726 -0.249373 0)
(0.0235445 -0.260773 0)
(0.016012 -0.274557 0)
(0.00820641 -0.291824 0)
(4.83211e-05 -0.313878 0)
(-0.00852229 -0.342074 0)
(-0.0174833 -0.377519 0)
(-0.0266371 -0.420542 0)
(-0.0354926 -0.469901 0)
(-0.0431505 -0.521721 0)
(-0.0482735 -0.568353 0)
(-0.0492691 -0.597722 0)
(-0.0448317 -0.594289 0)
(-0.0348507 -0.543146 0)
(-0.0212941 -0.437367 0)
(-0.00832692 -0.283959 0)
(-0.001324 -0.100002 0)
(0.105251 -0.156837 0)
(0.0993356 -0.1655 0)
(0.0931779 -0.174029 0)
(0.0867877 -0.182419 0)
(0.0801775 -0.190673 0)
(0.0733628 -0.198815 0)
(0.0663618 -0.2069 0)
(0.0591941 -0.215028 0)
(0.0518786 -0.22337 0)
(0.0444292 -0.232199 0)
(0.0368498 -0.241927 0)
(0.0291272 -0.253156 0)
(0.0212253 -0.266716 0)
(0.0130825 -0.283687 0)
(0.00462069 -0.30537 0)
(-0.00423158 -0.333167 0)
(-0.0134807 -0.3683 0)
(-0.0229767 -0.411326 0)
(-0.0322914 -0.461352 0)
(-0.0405837 -0.514941 0)
(-0.0465322 -0.564831 0)
(-0.0484714 -0.59899 0)
(-0.0449019 -0.601182 0)
(-0.0354417 -0.554798 0)
(-0.0218922 -0.450696 0)
(-0.00860367 -0.294644 0)
(-0.00137037 -0.104378 0)
(0.11494 -0.150905 0)
(0.108735 -0.159312 0)
(0.102265 -0.167593 0)
(0.095541 -0.175746 0)
(0.0885758 -0.183778 0)
(0.0813867 -0.191716 0)
(0.0739941 -0.199617 0)
(0.066421 -0.207582 0)
(0.0586908 -0.215781 0)
(0.0508238 -0.224478 0)
(0.0428314 -0.234076 0)
(0.0347097 -0.245154 0)
(0.0264319 -0.258517 0)
(0.0179443 -0.275224 0)
(0.00917022 -0.296566 0)
(3.06401e-05 -0.323973 0)
(-0.00950678 -0.358768 0)
(-0.0193397 -0.401714 0)
(-0.0291036 -0.452262 0)
(-0.0380213 -0.507434 0)
(-0.0447992 -0.560418 0)
(-0.047709 -0.599336 0)
(-0.0450577 -0.607355 0)
(-0.0361646 -0.566169 0)
(-0.0226167 -0.464198 0)
(-0.00894096 -0.305661 0)
(-0.00142672 -0.108915 0)
(0.124646 -0.144694 0)
(0.11815 -0.152822 0)
(0.111367 -0.160834 0)
(0.104308 -0.168728 0)
(0.0969879 -0.176517 0)
(0.0894247 -0.184233 0)
(0.0816415 -0.191935 0)
(0.0736644 -0.199726 0)
(0.0655212 -0.207775 0)
(0.0572378 -0.216343 0)
(0.0488329 -0.225817 0)
(0.0403111 -0.236762 0)
(0.0316548 -0.249955 0)
(0.022818 -0.266429 0)
(0.0137271 -0.287459 0)
(0.00429645 -0.31449 0)
(-0.00552952 -0.348924 0)
(-0.0156935 -0.391713 0)
(-0.0258959 -0.44264 0)
(-0.0354303 -0.499202 0)
(-0.0430423 -0.5551 0)
(-0.0469543 -0.598718 0)
(-0.0452811 -0.612758 0)
(-0.0370175 -0.577234 0)
(-0.0234788 -0.477905 0)
(-0.00934797 -0.317074 0)
(-0.00149503 -0.113649 0)
(0.134359 -0.138203 0)
(0.127572 -0.14603 0)
(0.120477 -0.15375 0)
(0.113085 -0.161365 0)
(0.105411 -0.168893 0)
(0.0974775 -0.176369 0)
(0.0893077 -0.183857 0)
(0.0809316 -0.191463 0)
(0.0723808 -0.199357 0)
(0.0636864 -0.207794 0)
(0.0548739 -0.217153 0)
(0.0459555 -0.22798 0)
(0.0369222 -0.241029 0)
(0.0277357 -0.2573 0)
(0.0183262 -0.278047 0)
(0.00860287 -0.304716 0)
(-0.00151035 -0.338772 0)
(-0.0119988 -0.381332 0)
(-0.0226289 -0.432497 0)
(-0.0327709 -0.490247 0)
(-0.0412223 -0.548855 0)
(-0.0461716 -0.597087 0)
(-0.045547 -0.617323 0)
(-0.0379935 -0.587948 0)
(-0.0244886 -0.491844 0)
(-0.00983469 -0.328954 0)
(-0.0015775 -0.118616 0)
(0.144067 -0.131432 0)
(0.13699 -0.138937 0)
(0.129586 -0.146344 0)
(0.121865 -0.153661 0)
(0.113845 -0.160909 0)
(0.105547 -0.168129 0)
(0.0969991 -0.175389 0)
(0.0882333 -0.1828 0)
(0.079285 -0.190533 0)
(0.07019 -0.198839 0)
(0.0609795 -0.208091 0)
(0.0516729 -0.218815 0)
(0.0422688 -0.231741 0)
(0.0327364 -0.247838 0)
(0.0230098 -0.268329 0)
(0.0129946 -0.294653 0)
(0.00259674 -0.328317 0)
(-0.00820933 -0.37058 0)
(-0.0192559 -0.421842 0)
(-0.0299957 -0.480571 0)
(-0.0392917 -0.541662 0)
(-0.0453166 -0.594388 0)
(-0.0458214 -0.620969 0)
(-0.0390786 -0.598251 0)
(-0.0256542 -0.506029 0)
(-0.010412 -0.341379 0)
(-0.00167664 -0.123863 0)
(0.153754 -0.124384 0)
(0.146394 -0.131547 0)
(0.138687 -0.138622 0)
(0.130645 -0.145622 0)
(0.122288 -0.152574 0)
(0.113638 -0.159523 0)
(0.104726 -0.166544 0)
(0.0955849 -0.173751 0)
(0.0862549 -0.181316 0)
(0.0767754 -0.189492 0)
(0.0671825 -0.198641 0)
(0.0575016 -0.209275 0)
(0.0477383 -0.222098 0)
(0.037868 -0.238046 0)
(0.0278295 -0.258309 0)
(0.0175257 -0.284303 0)
(0.00684684 -0.317563 0)
(-0.00426972 -0.359466 0)
(-0.0157215 -0.410685 0)
(-0.0270486 -0.470174 0)
(-0.0371939 -0.533498 0)
(-0.044335 -0.590557 0)
(-0.0460605 -0.623598 0)
(-0.0402514 -0.608057 0)
(-0.0269809 -0.520461 0)
(-0.011092 -0.354428 0)
(-0.00179526 -0.129438 0)
(0.163404 -0.117065 0)
(0.15577 -0.123868 0)
(0.147771 -0.130594 0)
(0.139423 -0.137261 0)
(0.130744 -0.143901 0)
(0.12176 -0.150567 0)
(0.112503 -0.157337 0)
(0.103009 -0.164332 0)
(0.0933197 -0.171726 0)
(0.0834786 -0.179771 0)
(0.0735255 -0.188822 0)
(0.0634906 -0.199376 0)
(0.0533851 -0.212112 0)
(0.0431903 -0.227934 0)
(0.0328487 -0.24799 0)
(0.0222618 -0.273671 0)
(0.0113068 -0.306517 0)
(-0.000113292 -0.347999 0)
(-0.0119592 -0.399038 0)
(-0.0238631 -0.459061 0)
(-0.0348615 -0.524339 0)
(-0.0431612 -0.585525 0)
(-0.0462086 -0.625098 0)
(-0.0414805 -0.617258 0)
(-0.0284705 -0.535118 0)
(-0.0118882 -0.368184 0)
(-0.00193672 -0.135399 0)
(0.173 -0.109486 0)
(0.165106 -0.115912 0)
(0.156834 -0.122274 0)
(0.148199 -0.128594 0)
(0.139221 -0.134911 0)
(0.129929 -0.141282 0)
(0.120355 -0.147793 0)
(0.110537 -0.15457 0)
(0.100519 -0.161789 0)
(0.0903476 -0.169702 0)
(0.0800642 -0.178658 0)
(0.0697028 -0.18914 0)
(0.0592788 -0.201803 0)
(0.0487779 -0.217514 0)
(0.0381461 -0.237384 0)
(0.0272842 -0.262762 0)
(0.0160582 -0.295184 0)
(0.00434082 -0.336187 0)
(-0.00788976 -0.38691 0)
(-0.02036 -0.447233 0)
(-0.0322149 -0.514161 0)
(-0.0417165 -0.579216 0)
(-0.0461969 -0.625337 0)
(-0.042723 -0.625712 0)
(-0.0301198 -0.549955 0)
(-0.0128164 -0.38273 0)
(-0.00210518 -0.141811 0)
(0.182527 -0.101663 0)
(0.174395 -0.1077 0)
(0.165875 -0.113686 0)
(0.156981 -0.119648 0)
(0.147737 -0.125632 0)
(0.138171 -0.131701 0)
(0.128317 -0.137947 0)
(0.118215 -0.1445 0)
(0.107909 -0.151541 0)
(0.0974466 -0.15932 0)
(0.0868715 -0.168182 0)
(0.0762192 -0.178596 0)
(0.0655074 -0.191194 0)
(0.0547248 -0.206807 0)
(0.04382 -0.226501 0)
(0.0326933 -0.251584 0)
(0.0212017 -0.283569 0)
(0.00919146 -0.324038 0)
(-0.00341692 -0.374311 0)
(-0.016445 -0.434695 0)
(-0.0291593 -0.502939 0)
(-0.0399074 -0.571549 0)
(-0.0459409 -0.624164 0)
(-0.0439222 -0.633246 0)
(-0.0319188 -0.564892 0)
(-0.0138957 -0.398148 0)
(-0.00230623 -0.148746 0)
(0.191975 -0.0936224 0)
(0.183638 -0.0992593 0)
(0.174903 -0.10486 0)
(0.16579 -0.110457 0)
(0.156322 -0.116102 0)
(0.146528 -0.121863 0)
(0.136442 -0.12784 0)
(0.126106 -0.134166 0)
(0.115564 -0.141026 0)
(0.104861 -0.14867 0)
(0.0940431 -0.157437 0)
(0.0831442 -0.167782 0)
(0.072183 -0.180315 0)
(0.0611494 -0.195833 0)
(0.0499932 -0.215357 0)
(0.038614 -0.240146 0)
(0.0268621 -0.271678 0)
(0.0145605 -0.311556 0)
(0.00157654 -0.361247 0)
(-0.0120043 -0.421446 0)
(-0.0255823 -0.490648 0)
(-0.0376224 -0.562437 0)
(-0.0453383 -0.621409 0)
(-0.0450052 -0.639644 0)
(-0.0338493 -0.579806 0)
(-0.0151506 -0.414513 0)
(-0.00254806 -0.156292 0)
(0.201348 -0.0853968 0)
(0.192846 -0.0906283 0)
(0.183945 -0.0958392 0)
(0.174664 -0.101069 0)
(0.165027 -0.106371 0)
(0.155063 -0.111824 0)
(0.144808 -0.117528 0)
(0.134301 -0.123625 0)
(0.123585 -0.130301 0)
(0.112706 -0.137806 0)
(0.101704 -0.146472 0)
(0.0906124 -0.156744 0)
(0.0794487 -0.169206 0)
(0.0682014 -0.184624 0)
(0.0568198 -0.203971 0)
(0.0452026 -0.228455 0)
(0.0331942 -0.259512 0)
(0.0205987 -0.298742 0)
(0.00723596 -0.347721 0)
(-0.00689903 -0.407484 0)
(-0.0213495 -0.477259 0)
(-0.0347294 -0.551788 0)
(-0.0442657 -0.616882 0)
(-0.045879 -0.644651 0)
(-0.0358818 -0.594518 0)
(-0.0166129 -0.431887 0)
(-0.00284344 -0.16455 0)
(0.210666 -0.0770331 0)
(0.202057 -0.0818581 0)
(0.193051 -0.0866798 0)
(0.183667 -0.0915418 0)
(0.173932 -0.0965044 0)
(0.163873 -0.101649 0)
(0.153524 -0.107082 0)
(0.142924 -0.112949 0)
(0.132113 -0.119437 0)
(0.121131 -0.126795 0)
(0.110016 -0.135351 0)
(0.0987971 -0.145535 0)
(0.0874864 -0.157912 0)
(0.0760697 -0.173212 0)
(0.0644936 -0.192364 0)
(0.0526546 -0.216522 0)
(0.0403913 -0.24707 0)
(0.0274932 -0.285588 0)
(0.0137429 -0.333726 0)
(-0.000957682 -0.392804 0)
(-0.0162994 -0.462743 0)
(-0.03107 -0.539504 0)
(-0.0425738 -0.610372 0)
(-0.0464263 -0.647958 0)
(-0.0379719 -0.608783 0)
(-0.0183248 -0.450309 0)
(-0.00321289 -0.173647 0)
(0.219988 -0.0685926 0)
(0.211343 -0.0730156 0)
(0.20231 -0.0774533 0)
(0.192908 -0.0819536 0)
(0.183161 -0.0865813 0)
(0.173097 -0.0914214 0)
(0.162748 -0.096586 0)
(0.152148 -0.102221 0)
(0.141332 -0.108515 0)
(0.130337 -0.115717 0)
(0.119192 -0.124147 0)
(0.107921 -0.134223 0)
(0.0965282 -0.146488 0)
(0.0849934 -0.161639 0)
(0.0732585 -0.180562 0)
(0.0612153 -0.204355 0)
(0.0486976 -0.234346 0)
(0.0354822 -0.272079 0)
(0.021319 -0.319241 0)
(0.00602854 -0.377386 0)
(-0.0102304 -0.447059 0)
(-0.0264523 -0.525476 0)
(-0.0400814 -0.601643 0)
(-0.0464993 -0.6492 0)
(-0.0400549 -0.622273 0)
(-0.0203402 -0.469781 0)
(-0.00368929 -0.183745 0)
(0.229423 -0.0601541 0)
(0.220836 -0.0641852 0)
(0.211873 -0.0682494 0)
(0.202554 -0.0723982 0)
(0.192901 -0.0766996 0)
(0.18294 -0.0812422 0)
(0.172699 -0.0861402 0)
(0.162208 -0.0915411 0)
(0.151494 -0.0976345 0)
(0.140587 -0.104664 0)
(0.129508 -0.112945 0)
(0.11827 -0.122881 0)
(0.106869 -0.134995 0)
(0.0952746 -0.149951 0)
(0.0834208 -0.168592 0)
(0.0711929 -0.191963 0)
(0.0584178 -0.221331 0)
(0.0448616 -0.258192 0)
(0.030247 -0.304239 0)
(0.0143263 -0.361195 0)
(-0.00289535 -0.430159 0)
(-0.0206429 -0.509588 0)
(-0.036567 -0.590435 0)
(-0.0459107 -0.647949 0)
(-0.0420369 -0.634554 0)
(-0.022724 -0.490243 0)
(-0.0043239 -0.195055 0)
(0.239165 -0.051817 0)
(0.230749 -0.0554717 0)
(0.221974 -0.0591776 0)
(0.212859 -0.0629886 0)
(0.203424 -0.0669753 0)
(0.193692 -0.0712279 0)
(0.183684 -0.075862 0)
(0.173424 -0.0810251 0)
(0.162933 -0.086905 0)
(0.152228 -0.0937415 0)
(0.141321 -0.101841 0)
(0.130212 -0.111595 0)
(0.118884 -0.123503 0)
(0.107294 -0.1382 0)
(0.095366 -0.156486 0)
(0.0829736 -0.179353 0)
(0.0699351 -0.208007 0)
(0.0560056 -0.243887 0)
(0.0408854 -0.288665 0)
(0.0242687 -0.344176 0)
(0.00601606 -0.411977 0)
(-0.0133486 -0.491704 0)
(-0.031755 -0.576457 0)
(-0.0444208 -0.643704 0)
(-0.0437824 -0.645065 0)
(-0.0255437 -0.51154 0)
(-0.00519283 -0.207853 0)
(0.249531 -0.0437027 0)
(0.241418 -0.0470011 0)
(0.23297 -0.0503674 0)
(0.224199 -0.0538571 0)
(0.215123 -0.0575416 0)
(0.20576 -0.0615119 0)
(0.196125 -0.0658829 0)
(0.186232 -0.0708006 0)
(0.176094 -0.0764496 0)
(0.165715 -0.0830639 0)
(0.155094 -0.0909402 0)
(0.144216 -0.100456 0)
(0.133048 -0.112088 0)
(0.121533 -0.126442 0)
(0.109577 -0.144276 0)
(0.0970413 -0.16653 0)
(0.0837298 -0.19435 0)
(0.0693847 -0.229112 0)
(0.0536856 -0.272449 0)
(0.0362786 -0.326247 0)
(0.0169016 -0.39242 0)
(-0.00419904 -0.471678 0)
(-0.0252998 -0.559386 0)
(-0.0417199 -0.635882 0)
(-0.0450941 -0.653094 0)
(-0.0288519 -0.533377 0)
(-0.0064023 -0.222497 0)
(0.261011 -0.035954 0)
(0.253357 -0.0389191 0)
(0.245388 -0.0419665 0)
(0.237116 -0.045152 0)
(0.228553 -0.0485466 0)
(0.21971 -0.0522401 0)
(0.210596 -0.0563455 0)
(0.201213 -0.0610055 0)
(0.191564 -0.0663994 0)
(0.181639 -0.0727536 0)
(0.171422 -0.080354 0)
(0.160881 -0.0895612 0)
(0.149964 -0.100831 0)
(0.138595 -0.114737 0)
(0.12666 -0.131997 0)
(0.114001 -0.153499 0)
(0.100403 -0.18033 0)
(0.0855899 -0.213802 0)
(0.0692205 -0.255492 0)
(0.0509003 -0.30729 0)
(0.0302625 -0.371357 0)
(0.0072774 -0.449339 0)
(-0.0167497 -0.538864 0)
(-0.0374006 -0.623813 0)
(-0.0456828 -0.657748 0)
(-0.03265 -0.55526 0)
(-0.00808778 -0.239434 0)
(0.274343 -0.028732 0)
(0.267313 -0.0313872 0)
(0.259989 -0.0341358 0)
(0.252377 -0.0370324 0)
(0.244485 -0.0401464 0)
(0.236316 -0.0435648 0)
(0.22787 -0.047397 0)
(0.21914 -0.0517804 0)
(0.210113 -0.0568872 0)
(0.200768 -0.0629343 0)
(0.19107 -0.0701942 0)
(0.180968 -0.0790098 0)
(0.170391 -0.0898126 0)
(0.159238 -0.103144 0)
(0.14737 -0.119681 0)
(0.134604 -0.14026 0)
(0.120702 -0.165908 0)
(0.105361 -0.197874 0)
(0.0882122 -0.237669 0)
(0.0688237 -0.287153 0)
(0.0467396 -0.348624 0)
(0.0216952 -0.424478 0)
(-0.00551727 -0.514523 0)
(-0.0309259 -0.606741 0)
(-0.0451249 -0.657932 0)
(-0.0368323 -0.576424 0)
(-0.0103976 -0.259192 0)
(0.290593 -0.0222068 0)
(0.284352 -0.024573 0)
(0.277834 -0.0270393 0)
(0.271039 -0.029658 0)
(0.263967 -0.0324954 0)
(0.256615 -0.0356344 0)
(0.248973 -0.039179 0)
(0.241023 -0.0432594 0)
(0.23274 -0.0480389 0)
(0.224087 -0.053722 0)
(0.21501 -0.0605658 0)
(0.20544 -0.0688927 0)
(0.19528 -0.0791077 0)
(0.184403 -0.0917179 0)
(0.172642 -0.107356 0)
(0.159784 -0.126808 0)
(0.145554 -0.15104 0)
(0.129617 -0.181232 0)
(0.111567 -0.218831 0)
(0.0909289 -0.265639 0)
(0.0671725 -0.323998 0)
(0.0398345 -0.396837 0)
(0.00915772 -0.485967 0)
(-0.0215607 -0.583817 0)
(-0.0428017 -0.652314 0)
(-0.0411066 -0.595742 0)
(-0.013447 -0.28233 0)
(0.311245 -0.0165421 0)
(0.30594 -0.0186342 0)
(0.300365 -0.0208281 0)
(0.294516 -0.023173 0)
(0.288388 -0.0257306 0)
(0.281968 -0.0285784 0)
(0.275237 -0.0318133 0)
(0.268168 -0.0355566 0)
(0.260721 -0.0399599 0)
(0.252844 -0.0452135 0)
(0.244466 -0.0515558 0)
(0.235494 -0.0592857 0)
(0.225809 -0.068778 0)
(0.215253 -0.0805022 0)
(0.203628 -0.0950444 0)
(0.190681 -0.113134 0)
(0.176098 -0.135673 0)
(0.159494 -0.163774 0)
(0.140416 -0.198812 0)
(0.118331 -0.242517 0)
(0.0926385 -0.297209 0)
(0.0627054 -0.366122 0)
(0.0282883 -0.452753 0)
(-0.00831337 -0.554167 0)
(-0.0378204 -0.639292 0)
(-0.0448962 -0.611585 0)
(-0.0172289 -0.30929 0)
(0.338278 -0.011871 0)
(0.334006 -0.0136954 0)
(0.329465 -0.0156183 0)
(0.324643 -0.0176848 0)
(0.319531 -0.0199511 0)
(0.314108 -0.022488 0)
(0.308346 -0.0253835 0)
(0.302209 -0.0287481 0)
(0.295644 -0.0327198 0)
(0.288584 -0.0374716 0)
(0.28094 -0.04322 0)
(0.2726 -0.0502366 0)
(0.263417 -0.058862 0)
(0.253203 -0.0695226 0)
(0.241723 -0.0827528 0)
(0.228682 -0.0992195 0)
(0.213716 -0.119755 0)
(0.196381 -0.145396 0)
(0.176156 -0.177438 0)
(0.152434 -0.217539 0)
(0.124531 -0.267944 0)
(0.0916733 -0.331992 0)
(0.0531892 -0.414412 0)
(0.0101632 -0.516882 0)
(-0.0288202 -0.616933 0)
(-0.0472189 -0.621669 0)
(-0.0214799 -0.340139 0)
(0.374195 -0.00826504 0)
(0.370975 -0.00981834 0)
(0.367478 -0.0114627 0)
(0.363687 -0.0132378 0)
(0.359587 -0.0151937 0)
(0.355152 -0.0173929 0)
(0.350347 -0.0199134 0)
(0.345125 -0.022853 0)
(0.339423 -0.0263338 0)
(0.333161 -0.0305084 0)
(0.326235 -0.0355685 0)
(0.318509 -0.0417537 0)
(0.309814 -0.0493651 0)
(0.29993 -0.0587803 0)
(0.288586 -0.070474 0)
(0.275437 -0.0850424 0)
(0.260064 -0.103237 0)
(0.241952 -0.126006 0)
(0.220498 -0.154559 0)
(0.194991 -0.190467 0)
(0.164645 -0.235886 0)
(0.128535 -0.294098 0)
(0.0856163 -0.370554 0)
(0.0358088 -0.471046 0)
(-0.0137599 -0.58315 0)
(-0.0465687 -0.623052 0)
(-0.0255014 -0.37441 0)
(0.421939 -0.00569865 0)
(0.419681 -0.0069701 0)
(0.417132 -0.00832145 0)
(0.414274 -0.00978658 0)
(0.411086 -0.0114083 0)
(0.407537 -0.01324 0)
(0.403587 -0.0153483 0)
(0.399182 -0.0178163 0)
(0.394249 -0.0207481 0)
(0.388698 -0.0242735 0)
(0.382408 -0.0285555 0)
(0.375228 -0.0337976 0)
(0.366964 -0.0402559 0)
(0.35737 -0.0482517 0)
(0.346134 -0.0581914 0)
(0.332868 -0.070588 0)
(0.317092 -0.086098 0)
(0.298209 -0.105562 0)
(0.275521 -0.130083 0)
(0.248183 -0.161126 0)
(0.215271 -0.200756 0)
(0.175667 -0.252116 0)
(0.12805 -0.320864 0)
(0.0713244 -0.415877 0)
(0.0103183 -0.53599 0)
(-0.0406536 -0.612337 0)
(-0.0278964 -0.41119 0)
(0.484628 -0.00402064 0)
(0.483114 -0.00499753 0)
(0.4813 -0.00604075 0)
(0.479165 -0.00717777 0)
(0.476685 -0.00844341 0)
(0.473827 -0.00988099 0)
(0.470544 -0.0115445 0)
(0.466778 -0.0135012 0)
(0.462451 -0.015835 0)
(0.45746 -0.0186507 0)
(0.451676 -0.0220794 0)
(0.444933 -0.0262845 0)
(0.437018 -0.031472 0)
(0.427661 -0.0379 0)
(0.416523 -0.0458966 0)
(0.403169 -0.055878 0)
(0.387067 -0.068386 0)
(0.367534 -0.0841248 0)
(0.343771 -0.104056 0)
(0.31476 -0.129494 0)
(0.279413 -0.162393 0)
(0.236313 -0.205737 0)
(0.184007 -0.26503 0)
(0.12039 -0.35082 0)
(0.0476754 -0.473494 0)
(-0.025991 -0.585832 0)
(-0.0260349 -0.448319 0)
(0.56502 -0.0029467 0)
(0.56393 -0.00362378 0)
(0.562545 -0.0043522 0)
(0.560842 -0.00515256 0)
(0.558795 -0.00605103 0)
(0.556369 -0.00708015 0)
(0.553517 -0.00828037 0)
(0.550173 -0.00970191 0)
(0.546257 -0.0114074 0)
(0.54166 -0.0134744 0)
(0.536247 -0.0160003 0)
(0.529841 -0.0191056 0)
(0.522222 -0.0229423 0)
(0.513102 -0.0276997 0)
(0.502128 -0.0336206 0)
(0.488833 -0.0410107 0)
(0.472654 -0.0502781 0)
(0.452831 -0.061954 0)
(0.428489 -0.0768052 0)
(0.398396 -0.0959052 0)
(0.361288 -0.121 0)
(0.315233 -0.154835 0)
(0.258695 -0.202661 0)
(0.188414 -0.275253 0)
(0.104325 -0.393099 0)
(0.00328943 -0.537452 0)
(-0.0140846 -0.477882 0)
(0.664786 -0.00210484 0)
(0.663787 -0.00249639 0)
(0.662524 -0.0029235 0)
(0.660974 -0.00339964 0)
(0.65911 -0.00394195 0)
(0.656896 -0.00457178 0)
(0.654282 -0.00531557 0)
(0.651205 -0.00620601 0)
(0.64758 -0.00728373 0)
(0.6433 -0.00859881 0)
(0.638229 -0.0102139 0)
(0.63219 -0.0122058 0)
(0.624965 -0.014672 0)
(0.616266 -0.0177312 0)
(0.605749 -0.0215387 0)
(0.59294 -0.0262843 0)
(0.577296 -0.032232 0)
(0.558013 -0.0397133 0)
(0.534238 -0.0492493 0)
(0.50452 -0.0615519 0)
(0.467534 -0.0779586 0)
(0.420503 -0.100613 0)
(0.361735 -0.13429 0)
(0.285594 -0.188573 0)
(0.191046 -0.29033 0)
(0.0596144 -0.452639 0)
(0.0209529 -0.477193 0)
(0.783927 -0.00121263 0)
(0.78287 -0.00136876 0)
(0.781615 -0.00154471 0)