/*--------------------------------*- C++ -*----------------------------------*\
  =========                 |
  \\      /  F ield         | OpenFOAM: The Open Source CFD Toolbox
   \\    /   O peration     | Website:  https://openfoam.org
    \\  /    A nd           | Version:  9
     \\/     M anipulation  |
\*---------------------------------------------------------------------------*/
FoamFile
{
    format      ascii;
    class       volScalarField;
    location    "2.75";
    object      p;
}
// * * * * * * * * * * * * * * * * * * * * * * * * * * * * * * * * * * * * * //

dimensions      [0 2 -2 0 0 0 0];

internalField   nonuniform List<scalar> 
10000
(
-1.47784e-07
1.89739e-05
3.01509e-05
2.89542e-05
1.18811e-05
-2.212e-05
-7.24481e-05
-0.000137739
-0.000216372
-0.000306744
-0.000407419
-0.000517232
-0.00063534
-0.000761222
-0.00089465
-0.00103566
-0.0011845
-0.00134152
-0.00150717
-0.00168189
-0.00186606
-0.00205995
-0.00226366
-0.00247711
-0.0027
-0.00293175
-0.00317152
-0.00341817
-0.00367024
-0.00392593
-0.0041831
-0.00443927
-0.00469159
-0.0049369
-0.00517172
-0.00539227
-0.00559458
-0.0057745
-0.00592783
-0.00605037
-0.00613804
-0.00618704
-0.00619393
-0.00615576
-0.00607028
-0.00593597
-0.00575225
-0.00551955
-0.00523942
-0.0049146
-0.00454907
-0.00414799
-0.00371743
-0.00326554
-0.00280058
-0.00233193
-0.00186965
-0.00142418
-0.00100606
-0.00062566
-0.000292775
-1.63581e-05
0.000195834
0.000337529
0.000404196
0.000393239
0.00030412
0.000138397
-0.000100317
-0.000406509
-0.000773027
-0.00119116
-0.00165132
-0.00214321
-0.00265623
-0.00317996
-0.00370448
-0.00422066
-0.00472044
-0.00519701
-0.00564487
-0.00605993
-0.00643939
-0.00678172
-0.00708645
-0.00735407
-0.00758577
-0.00778329
-0.00794868
-0.00808414
-0.0081918
-0.00827364
-0.00833137
-0.00836644
-0.00838017
-0.00837417
-0.00835104
-0.00831567
-0.0082758
-0.00824457
-1.97973e-05
-4.19706e-07
6.34112e-06
7.12359e-07
-1.83795e-05
-5.18654e-05
-9.95324e-05
-0.000160505
-0.000233649
-0.000317759
-0.000411716
-0.000514593
-0.000625653
-0.000744485
-0.000870868
-0.00100481
-0.00114649
-0.00129621
-0.00145431
-0.00162116
-0.00179709
-0.00198232
-0.00217696
-0.00238092
-0.00259393
-0.00281551
-0.0030449
-0.00328108
-0.00352272
-0.00376821
-0.00401558
-0.00426255
-0.00450648
-0.00474444
-0.00497315
-0.00518908
-0.00538847
-0.00556739
-0.00572179
-0.00584766
-0.00594106
-0.00599828
-0.00601592
-0.0059911
-0.00592149
-0.00580553
-0.00564252
-0.0054327
-0.00517742
-0.00487918
-0.00454175
-0.00416997
-0.00376933
-0.00334735
-0.00291223
-0.00247289
-0.00203892
-0.0016203
-0.00122713
-0.000869353
-0.000556368
-0.000296766
-9.79918e-05
3.39457e-05
9.47131e-05
8.18419e-05
-5.15656e-06
-0.000164757
-0.00039347
-0.000685981
-0.00103538
-0.00143347
-0.00187096
-0.00233811
-0.00282489
-0.00332148
-0.00381851
-0.00430746
-0.00478081
-0.00523223
-0.00565667
-0.00605036
-0.00641076
-0.00673648
-0.00702714
-0.00728318
-0.00750573
-0.00769638
-0.00785703
-0.00798975
-0.00809657
-0.00817944
-0.00824014
-0.00828031
-0.00830151
-0.00830552
-0.00829476
-0.00827304
-0.00824466
-0.00821331
-3.13301e-05
-7.3446e-06
-6.25684e-07
-7.58052e-06
-2.73836e-05
-6.05531e-05
-0.000106822
-0.000165398
-0.000235282
-0.000315429
-0.00040487
-0.000502791
-0.000608615
-0.000721924
-0.000842568
-0.000970581
-0.00110615
-0.00124957
-0.0014012
-0.0015614
-0.0017305
-0.00190876
-0.0020963
-0.00229311
-0.00249898
-0.00271352
-0.00293609
-0.00316579
-0.00340144
-0.00364156
-0.00388436
-0.0041277
-0.00436912
-0.00460581
-0.00483463
-0.00505218
-0.00525476
-0.00543851
-0.00559944
-0.0057335
-0.00583673
-0.00590534
-0.00593586
-0.00592523
-0.005871
-0.00577142
-0.00562557
-0.00543351
-0.00519632
-0.00491633
-0.00459704
-0.00424231
-0.00385913
-0.00345384
-0.00303441
-0.00260968
-0.0021891
-0.00178254
-0.00140003
-0.00105141
-0.000746072
-0.00049256
-0.000298312
-0.000169338
-0.000109982
-0.000122727
-0.00020808
-0.000364531
-0.000588612
-0.000875033
-0.0012169
-0.00160602
-0.00203324
-0.00248893
-0.00296301
-0.00344592
-0.00392849
-0.00440237
-0.0048603
-0.00529623
-0.00570537
-0.00608422
-0.00643052
-0.00674309
-0.00702174
-0.00726709
-0.00748035
-0.00766321
-0.00781763
-0.00794567
-0.00804941
-0.00813082
-0.00819171
-0.0082337
-0.00825828
-0.00826691
-0.00826144
-0.00824446
-0.00821638
-0.00817335
-3.0551e-05
-2.01114e-06
5.66191e-06
-1.72537e-06
-2.1989e-05
-5.51916e-05
-0.000100853
-0.000158071
-0.000225833
-0.000303144
-0.000389105
-0.000482976
-0.000584231
-0.000692557
-0.000807864
-0.000930251
-0.00105996
-0.00119734
-0.00134281
-0.00149679
-0.00165968
-0.0018318
-0.00201336
-0.00220444
-0.00240497
-0.00261466
-0.00283302
-0.00305931
-0.0032925
-0.00353126
-0.00377396
-0.0040186
-0.00426281
-0.00450388
-0.00473875
-0.00496401
-0.00517596
-0.00537066
-0.00554403
-0.00569188
-0.00581007
-0.0058946
-0.00594177
-0.00594829
-0.00591144
-0.00582921
-0.00570043
-0.00552491
-0.00530354
-0.00503852
-0.00473341
-0.00439074
-0.00401842
-0.00362267
-0.00321129
-0.00279307
-0.00237748
-0.00197446
-0.00159411
-0.00124642
-0.000940899
-0.000686267
-0.000490126
-0.000358652
-0.000296343
-0.000305812
-0.000387664
-0.000540449
-0.00076071
-0.00104313
-0.00138074
-0.00176519
-0.00218708
-0.00263745
-0.00310482
-0.0035803
-0.00405454
-0.00451914
-0.00496691
-0.00539187
-0.00578942
-0.00615625
-0.00649039
-0.00679086
-0.00705777
-0.00729197
-0.00749493
-0.00766855
-0.00781494
-0.00793633
-0.0080349
-0.0081127
-0.00817152
-0.00821293
-0.00823819
-0.0082483
-0.00824439
-0.00822789
-0.00819603
-0.00813959
-1.36644e-05
1.68653e-05
2.45321e-05
1.62951e-05
-4.86848e-06
-3.8656e-05
-8.43429e-05
-0.000140881
-0.000207204
-0.000282318
-0.000365351
-0.00045562
-0.000552673
-0.000656289
-0.000766467
-0.000883402
-0.00100744
-0.00113903
-0.0012787
-0.00142697
-0.00158438
-0.00175135
-0.00192825
-0.00211531
-0.0023126
-0.00252003
-0.00273728
-0.00296376
-0.00319865
-0.00344077
-0.0036886
-0.00394025
-0.00419344
-0.00444545
-0.00469318
-0.00493314
-0.00516149
-0.00537411
-0.00556668
-0.00573474
-0.00587386
-0.00597971
-0.00604828
-0.00607596
-0.0060597
-0.00599721
-0.00588704
-0.00572878
-0.00552313
-0.00527179
-0.00497726
-0.00464587
-0.0042817
-0.00389178
-0.00348411
-0.00306753
-0.00265162
-0.00224646
-0.00186232
-0.00150939
-0.00119744
-0.000935449
-0.000731306
-0.000591474
-0.000520726
-0.000521924
-0.000595879
-0.000741294
-0.0009548
-0.00123109
-0.00156315
-0.00194252
-0.00235973
-0.00280486
-0.0032674
-0.00373743
-0.00420554
-0.00466315
-0.00510297
-0.00551902
-0.0059067
-0.00626287
-0.0065856
-0.00687431
-0.00712932
-0.00735177
-0.00754344
-0.00770649
-0.0078433
-0.00795631
-0.00804788
-0.00812016
-0.008175
-0.00821388
-0.00823786
-0.0082475
-0.0082433
-0.00822576
-0.00818967
-0.00812179
2.10424e-05
5.06871e-05
5.69311e-05
4.7008e-05
2.42206e-05
-1.08359e-05
-5.72203e-05
-0.000113756
-0.00017931
-0.00025286
-0.000333557
-0.000420773
-0.000514138
-0.000613533
-0.000719077
-0.000831096
-0.000950081
-0.00107664
-0.00121145
-0.00135522
-0.00150864
-0.00167234
-0.00184688
-0.0020327
-0.0022301
-0.00243917
-0.00265982
-0.00289166
-0.00313402
-0.00338587
-0.00364578
-0.00391188
-0.00418186
-0.00445293
-0.00472181
-0.00498479
-0.00523776
-0.00547628
-0.00569564
-0.00589102
-0.00605757
-0.00619059
-0.00628567
-0.00633882
-0.0063467
-0.00630668
-0.00621708
-0.00607723
-0.00588767
-0.00564999
-0.0053668
-0.00504326
-0.00468449
-0.00429731
-0.00388965
-0.00347042
-0.00304931
-0.00263655
-0.00224263
-0.00187802
-0.00155278
-0.00127626
-0.00105673
-0.000901055
-0.000814424
-0.000800089
-0.000859213
-0.000990794
-0.00119168
-0.00145669
-0.00177884
-0.00214962
-0.00255941
-0.00299791
-0.00345451
-0.00391879
-0.0043813
-0.00483272
-0.00526577
-0.00567423
-0.00605339
-0.00640009
-0.00671251
-0.00699018
-0.00723368
-0.0074444
-0.00762443
-0.00777622
-0.00790248
-0.0080059
-0.00808907
-0.0081543
-0.00820352
-0.00823822
-0.00825929
-0.00826699
-0.00826132
-0.00824208
-0.00820247
-0.00812658
7.38918e-05
9.99588e-05
0.000103256
9.06254e-05
6.53759e-05
2.83252e-05
-1.94295e-05
-7.66119e-05
-0.000142029
-0.000214643
-0.000293633
-0.000378441
-0.000468791
-0.000564693
-0.000666417
-0.000774463
-0.000889512
-0.00101238
-0.00114397
-0.00128522
-0.00143705
-0.00160037
-0.00177599
-0.00196461
-0.0021668
-0.0023829
-0.00261303
-0.00285701
-0.00311429
-0.00338393
-0.00366451
-0.00395408
-0.00425018
-0.00454978
-0.00484932
-0.0051447
-0.00543141
-0.00570453
-0.00595889
-0.0061892
-0.00639014
-0.00655657
-0.00668367
-0.00676709
-0.00680314
-0.00678893
-0.0067225
-0.00660299
-0.00643072
-0.00620719
-0.00593507
-0.00561891
-0.00526412
-0.00487746
-0.00446684
-0.0040412
-0.00361033
-0.00318461
-0.00277476
-0.00239152
-0.00204533
-0.00174596
-0.00150216
-0.00132134
-0.00120925
-0.00116968
-0.00120435
-0.00131274
-0.00149209
-0.00173754
-0.00204227
-0.00239784
-0.00279455
-0.0032219
-0.003669
-0.00412511
-0.00458009
-0.00502464
-0.00545082
-0.00585209
-0.00622352
-0.00656174
-0.0068649
-0.00713247
-0.00736534
-0.00756494
-0.00773365
-0.00787423
-0.00798967
-0.00808297
-0.00815696
-0.00821419
-0.00825672
-0.00828609
-0.00830315
-0.00830796
-0.00830021
-0.00827927
-0.00823741
-0.00815737
0.000144573
0.000164609
0.00016345
0.000147062
0.000118509
7.87594e-05
2.90023e-05
-2.94126e-05
-9.52834e-05
-0.000167583
-0.000245546
-0.000328703
-0.000416905
-0.000510319
-0.000609409
-0.000714892
-0.000827696
-0.000948904
-0.0010797
-0.00122132
-0.00137501
-0.00154199
-0.00172339
-0.00192025
-0.0021334
-0.00236347
-0.00261079
-0.00287533
-0.00315662
-0.00345369
-0.00376501
-0.00408844
-0.00442121
-0.0047599
-0.0051005
-0.00543842
-0.00576859
-0.00608554
-0.00638357
-0.00665684
-0.00689955
-0.00710612
-0.0072713
-0.0073904
-0.00745942
-0.00747519
-0.00743551
-0.00733931
-0.00718668
-0.00697899
-0.00671884
-0.00641049
-0.00605927
-0.00567184
-0.00525605
-0.00482084
-0.00437602
-0.0039321
-0.00349999
-0.00309072
-0.00271511
-0.00238343
-0.00210502
-0.00188794
-0.00173865
-0.00166172
-0.0016596
-0.00173249
-0.00187829
-0.00209266
-0.00236919
-0.00269967
-0.0030745
-0.00348308
-0.0039143
-0.00435707
-0.00480077
-0.00523564
-0.00565322
-0.00604648
-0.00641005
-0.00674024
-0.00703498
-0.00729369
-0.00751687
-0.00770642
-0.00786475
-0.00799485
-0.00809996
-0.00818337
-0.00824819
-0.00829717
-0.00833261
-0.00835616
-0.00836871
-0.00837027
-0.00836038
-0.00833818
-0.00829561
-0.00821513
0.000232424
0.00024419
0.00023718
0.000216059
0.000183427
0.000140353
8.80135e-05
2.78413e-05
-3.90528e-05
-0.000111696
-0.000189407
-0.000271843
-0.000359021
-0.00045131
-0.000549409
-0.000654313
-0.00076725
-0.00088963
-0.00102299
-0.00116894
-0.00132911
-0.0015051
-0.00169842
-0.00191044
-0.00214232
-0.00239494
-0.00266877
-0.00296388
-0.00327976
-0.00361531
-0.00396872
-0.00433751
-0.00471844
-0.00510757
-0.00550028
-0.00589138
-0.00627517
-0.00664558
-0.0069963
-0.00732098
-0.00761331
-0.00786728
-0.00807727
-0.00823823
-0.00834587
-0.00839675
-0.00838844
-0.00831961
-0.00819012
-0.00800107
-0.00775503
-0.00745588
-0.00710876
-0.00672015
-0.00629776
-0.0058504
-0.00538787
-0.00492069
-0.00445995
-0.00401692
-0.00360283
-0.00322846
-0.00290382
-0.00263776
-0.00243763
-0.00230894
-0.00225515
-0.00227744
-0.00237464
-0.00254323
-0.00277749
-0.00306973
-0.00341062
-0.00378966
-0.00419566
-0.00461722
-0.00504328
-0.00546356
-0.00586898
-0.00625191
-0.00660639
-0.0069282
-0.00721483
-0.00746536
-0.00768024
-0.00786112
-0.0080105
-0.00813146
-0.00822745
-0.00830195
-0.00835834
-0.00839963
-0.00842831
-0.00844622
-0.00845439
-0.00845289
-0.00844124
-0.0084185
-0.00837678
-0.00829912
0.000336482
0.000337932
0.000323817
0.0002971
0.000259717
0.000212762
0.000157427
9.49744e-05
2.64617e-05
-4.72553e-05
-0.000125639
-0.000208521
-0.000296131
-0.00038909
-0.000488392
-0.000595363
-0.0007116
-0.000838908
-0.000979247
-0.00113467
-0.00130723
-0.00149899
-0.00171184
-0.00194753
-0.00220748
-0.00249276
-0.00280395
-0.00314106
-0.00350343
-0.00388963
-0.00429747
-0.00472391
-0.00516513
-0.00561653
-0.0060728
-0.00652805
-0.00697592
-0.00740969
-0.00782249
-0.00820741
-0.00855771
-0.00886693
-0.0091291
-0.00933886
-0.00949161
-0.00958364
-0.00961225
-0.00957584
-0.00947396
-0.00930743
-0.00907864
-0.00879104
-0.0084495
-0.00806019
-0.00763057
-0.00716924
-0.00668584
-0.00619085
-0.0056954
-0.00521098
-0.00474919
-0.00432133
-0.00393812
-0.00360929
-0.00334321
-0.00314659
-0.0030241
-0.00297821
-0.00300899
-0.0031141
-0.00328884
-0.00352635
-0.00381791
-0.00415339
-0.00452165
-0.00491116
-0.00531049
-0.00570883
-0.00609641
-0.00646489
-0.00680757
-0.00711953
-0.00739762
-0.0076404
-0.00784793
-0.00802153
-0.00816365
-0.00827725
-0.00836585
-0.00843308
-0.0084825
-0.00851732
-0.00854027
-0.0085534
-0.0085579
-0.00855401
-0.00854134
-0.00851896
-0.00847954
-0.00840733
0.000455464
0.000444693
0.000422353
0.000389328
0.000346669
0.000295422
0.000236669
0.000171444
0.000100675
2.503e-05
-5.51574e-05
-0.00013995
-0.000229845
-0.000325779
-0.000429104
-0.000541542
-0.000665123
-0.000802121
-0.000954986
-0.00112626
-0.00131851
-0.00153422
-0.00177571
-0.00204504
-0.00234386
-0.00267335
-0.00303403
-0.00342573
-0.00384744
-0.0042973
-0.00477252
-0.0052694
-0.00578339
-0.00630914
-0.00684058
-0.00737111
-0.00789366
-0.0084009
-0.00888537
-0.00933968
-0.00975664
-0.0101294
-0.0104516
-0.0107177
-0.0109226
-0.0110624
-0.0111342
-0.0111359
-0.0110669
-0.0109276
-0.0107199
-0.0104471
-0.0101135
-0.00972488
-0.00928836
-0.00881219
-0.00830573
-0.00777927
-0.00724389
-0.00671119
-0.00619303
-0.00570121
-0.00524714
-0.00484149
-0.00449378
-0.004212
-0.00400234
-0.00386881
-0.00381309
-0.00383438
-0.00392941
-0.00409257
-0.00431612
-0.00459062
-0.00490531
-0.00524874
-0.00560923
-0.0059755
-0.00633709
-0.00668487
-0.00701124
-0.00731041
-0.00757839
-0.00781299
-0.00801365
-0.00818124
-0.00831765
-0.00842583
-0.00850912
-0.00857118
-0.00861562
-0.00864582
-0.00866468
-0.00867444
-0.00867651
-0.00867133
-0.00865864
-0.00863765
-0.00860179
-0.00853697
0.000587716
0.000562877
0.000531346
0.000491453
0.000443129
0.000387263
0.000324701
0.000256215
0.000182462
0.00010386
2.04774e-05
-6.80486e-05
-0.000162551
-0.000264345
-0.000375209
-0.000497333
-0.00063325
-0.000785769
-0.000957886
-0.00115268
-0.00137323
-0.00162247
-0.00190309
-0.00221739
-0.00256716
-0.00295351
-0.00337681
-0.00383649
-0.00433106
-0.00485803
-0.00541387
-0.00599413
-0.00659341
-0.00720557
-0.00782375
-0.0084406
-0.00904837
-0.00963912
-0.0102049
-0.0107377
-0.0112301
-0.0116747
-0.0120649
-0.0123948
-0.0126592
-0.0128536
-0.0129749
-0.0130208
-0.0129901
-0.0128831
-0.0127011
-0.0124468
-0.0121243
-0.0117387
-0.0112967
-0.010806
-0.0102756
-0.00971549
-0.00913644
-0.00855004
-0.00796828
-0.00740333
-0.00686724
-0.00637156
-0.00592696
-0.00554289
-0.00522717
-0.00498563
-0.00482189
-0.00473709
-0.00472984
-0.00479622
-0.00492998
-0.0051228
-0.00536472
-0.00564465
-0.00595093
-0.00627194
-0.0065966
-0.00691491
-0.00721831
-0.00749993
-0.00775475
-0.00797959
-0.008173
-0.00833509
-0.00846724
-0.00857186
-0.00865204
-0.00871125
-0.00875308
-0.00878092
-0.00879779
-0.00880608
-0.00880738
-0.00880233
-0.00879085
-0.00877232
-0.00874104
-0.00868489
0.000730987
0.000690426
0.000648867
0.000601685
0.00054742
0.000486678
0.000419952
0.000347631
0.000270022
0.000187208
9.89151e-05
4.41325e-06
-9.75419e-05
-0.000208718
-0.00033139
-0.000468285
-0.000622511
-0.000797467
-0.000996732
-0.00122395
-0.00148267
-0.00177626
-0.00210769
-0.0024794
-0.00289316
-0.00334987
-0.00384952
-0.00439103
-0.00497222
-0.00558983
-0.00623949
-0.00691587
-0.00761271
-0.008323
-0.00903911
-0.00975292
-0.010456
-0.0111399
-0.0117961
-0.0124161
-0.0129921
-0.0135164
-0.0139821
-0.0143829
-0.0147132
-0.0149686
-0.0151455
-0.0152412
-0.0152543
-0.0151844
-0.0150327
-0.0148013
-0.0144935
-0.0141142
-0.0136692
-0.0131658
-0.0126123
-0.0120181
-0.0113938
-0.0107505
-0.0101003
-0.00945541
-0.00882841
-0.00823158
-0.0076767
-0.00717462
-0.0067349
-0.00636538
-0.00607187
-0.00585784
-0.00572422
-0.00566933
-0.00568893
-0.00577638
-0.00592304
-0.00611865
-0.00635193
-0.00661117
-0.00688482
-0.00716207
-0.0074333
-0.00769045
-0.00792724
-0.00813926
-0.00832391
-0.00848028
-0.00860891
-0.00871149
-0.00879059
-0.00884933
-0.00889104
-0.00891905
-0.00893634
-0.00894536
-0.00894784
-0.00894458
-0.00893568
-0.00892067
-0.00889481
-0.00884796
0.000882497
0.000824666
0.000772392
0.000717634
0.000657246
0.000591407
0.000520128
0.000443291
0.00036076
0.0002722
0.000176912
7.37187e-05
-3.91068e-05
-0.000163861
-0.00030339
-0.000461029
-0.000640516
-0.000845875
-0.00108129
-0.00135093
-0.00165881
-0.00200861
-0.00240348
-0.00284583
-0.00333724
-0.00387823
-0.00446822
-0.00510542
-0.00578685
-0.00650832
-0.00726455
-0.00804926
-0.00885527
-0.00967471
-0.0104991
-0.0113197
-0.0121273
-0.0129129
-0.0136675
-0.0143823
-0.0150489
-0.0156594
-0.0162067
-0.0166841
-0.017086
-0.0174075
-0.0176449
-0.0177951
-0.0178565
-0.0178284
-0.0177113
-0.0175069
-0.0172181
-0.0168489
-0.0164046
-0.0158916
-0.0153176
-0.0146914
-0.0140227
-0.0133223
-0.0126019
-0.0118737
-0.0111504
-0.0104447
-0.00976946
-0.00913666
-0.00855757
-0.0080421
-0.00759843
-0.00723263
-0.00694838
-0.00674676
-0.00662612
-0.00658218
-0.00660823
-0.00669547
-0.00683352
-0.00701102
-0.00721622
-0.00743764
-0.00766463
-0.00788785
-0.00809957
-0.00829391
-0.00846684
-0.00861613
-0.00874114
-0.0088426
-0.00892229
-0.00898272
-0.00902678
-0.00905752
-0.00907776
-0.0090899
-0.00909568
-0.00909601
-0.00909112
-0.00908067
-0.00906082
-0.00902335
0.00103878
0.000962285
0.000898752
0.000836243
0.000769614
0.000698457
0.000622156
0.000539968
0.000451209
0.000355038
0.000250253
0.000135149
7.43555e-06
-0.000135787
-0.000298007
-0.000483227
-0.00069585
-0.000940543
-0.00122207
-0.00154509
-0.00191399
-0.00233262
-0.00280415
-0.0033308
-0.00391375
-0.00455296
-0.00524708
-0.00599347
-0.00678818
-0.00762604
-0.00850073
-0.00940498
-0.0103307
-0.011269
-0.0122108
-0.0131464
-0.0140661
-0.0149604
-0.0158197
-0.0166348
-0.0173971
-0.0180985
-0.0187314
-0.0192893
-0.0197662
-0.0201573
-0.0204583
-0.0206665
-0.0207796
-0.0207966
-0.0207178
-0.0205444
-0.0202786
-0.0199239
-0.0194847
-0.0189667
-0.0183767
-0.0177226
-0.0170134
-0.016259
-0.0154705
-0.0146597
-0.013839
-0.0130215
-0.0122204
-0.0114487
-0.0107191
-0.0100436
-0.00943253
-0.00889486
-0.00843728
-0.00806405
-0.00777675
-0.00757413
-0.00745217
-0.00740428
-0.00742171
-0.00749403
-0.0076098
-0.00775719
-0.00792467
-0.0081016
-0.0082787
-0.00844837
-0.00860485
-0.00874426
-0.00886448
-0.00896493
-0.00904628
-0.00911016
-0.0091588
-0.00919473
-0.00922042
-0.00923807
-0.00924933
-0.00925509
-0.00925564
-0.00925072
-0.00923729
-0.00920886
0.00119564
0.00109929
0.00102409
0.000953737
0.000880787
0.00080405
0.000722134
0.000633552
0.000536975
0.000430967
0.000313738
0.000182977
3.57535e-05
-0.000131511
-0.000323006
-0.000543441
-0.000797902
-0.00109168
-0.00143006
-0.00181812
-0.00226046
-0.00276097
-0.00332262
-0.00394727
-0.00463547
-0.00538641
-0.00619785
-0.0070661
-0.00798616
-0.00895173
-0.00995544
-0.0109889
-0.0120431
-0.0131084
-0.0141745
-0.0152314
-0.0162686
-0.017276
-0.0182437
-0.0191623
-0.0200228
-0.0208169
-0.0215371
-0.0221767
-0.0227298
-0.0231914
-0.0235574
-0.0238248
-0.0239913
-0.0240557
-0.0240177
-0.0238785
-0.0236395
-0.0233036
-0.0228746
-0.0223572
-0.0217572
-0.0210816
-0.0203383
-0.0195364
-0.0186857
-0.0177974
-0.0168834
-0.0159564
-0.0150296
-0.0141167
-0.0132315
-0.0123873
-0.0115968
-0.0108716
-0.0102216
-0.00965454
-0.00917564
-0.00878737
-0.00848922
-0.0082777
-0.00814655
-0.00808716
-0.00808905
-0.00814063
-0.00822983
-0.00834487
-0.00847488
-0.00861037
-0.00874358
-0.00886864
-0.00898155
-0.00908004
-0.00916334
-0.00923188
-0.0092869
-0.00933019
-0.00936366
-0.00938912
-0.00940795
-0.00942093
-0.0094283
-0.00942981
-0.00942304
-0.009403
0.00134815
0.00123094
0.0011438
0.00106561
0.000986249
0.000903582
0.000815295
0.000719037
0.000612736
0.000494279
0.000361205
0.000210519
3.85756e-05
-0.000158943
-0.000386973
-0.000650946
-0.000956618
-0.00130985
-0.00171639
-0.00218155
-0.00271
-0.00330548
-0.00397057
-0.0047065
-0.00551303
-0.00638839
-0.00732924
-0.00833077
-0.00938675
-0.0104897
-0.0116311
-0.0128016
-0.0139909
-0.0151886
-0.0163837
-0.0175652
-0.0187224
-0.0198445
-0.0209214
-0.0219433
-0.0229014
-0.0237872
-0.0245933
-0.0253131
-0.0259408
-0.0264715
-0.0269013
-0.0272271
-0.0274469
-0.0275591
-0.0275632
-0.0274601
-0.027251
-0.0269381
-0.0265242
-0.0260135
-0.0254106
-0.0247215
-0.0239529
-0.0231125
-0.0222093
-0.021253
-0.0202546
-0.019226
-0.01818
-0.0171304
-0.0160911
-0.0150768
-0.0141018
-0.0131799
-0.0123242
-0.0115458
-0.010854
-0.0102555
-0.00975401
-0.00935011
-0.00904103
-0.00882099
-0.00868151
-0.00861201
-0.00860053
-0.00863455
-0.00870173
-0.00879065
-0.00889131
-0.00899551
-0.00909695
-0.00919127
-0.00927583
-0.00934946
-0.00941213
-0.00946454
-0.00950782
-0.00954315
-0.00957149
-0.00959337
-0.00960884
-0.00961758
-0.00961763
-0.00960518
0.00149062
0.00135182
0.00125262
0.00116661
0.00108072
0.000991648
0.000896034
0.00079055
0.000672288
0.000538378
0.000385614
0.00021024
7.83198e-06
-0.000226712
-0.000499095
-0.000815465
-0.0011822
-0.00160566
-0.00209188
-0.00264629
-0.00327341
-0.00397662
-0.00475786
-0.00561755
-0.00655444
-0.00756561
-0.00864648
-0.00979094
-0.0109915
-0.0122394
-0.0135248
-0.0148373
-0.0161657
-0.0174984
-0.0188238
-0.0201303
-0.0214066
-0.0226417
-0.0238251
-0.0249472
-0.025999
-0.0269723
-0.02786
-0.0286555
-0.0293536
-0.0299495
-0.0304395
-0.030821
-0.0310919
-0.0312506
-0.0312962
-0.0312302
-0.0310531
-0.0307663
-0.0303723
-0.0298742
-0.0292759
-0.0285821
-0.0277983
-0.0269309
-0.0259873
-0.024976
-0.0239065
-0.0227896
-0.0216369
-0.0204615
-0.0192774
-0.0180993
-0.0169426
-0.015823
-0.0147557
-0.0137556
-0.0128356
-0.0120071
-0.0112786
-0.0106553
-0.0101392
-0.00972853
-0.00941796
-0.0091991
-0.00906104
-0.00899121
-0.00897625
-0.00900292
-0.00905889
-0.0091333
-0.00921718
-0.00930358
-0.00938752
-0.0094658
-0.00953666
-0.00959943
-0.00965413
-0.0097011
-0.00974068
-0.00977295
-0.00979769
-0.00981438
-0.00982135
-0.00981568
0.00161662
0.00145583
0.00134457
0.0012508
0.00115817
0.00106209
0.000957967
0.000841424
0.000708638
0.000555897
0.000379183
0.000173916
-6.5152e-05
-0.000343935
-0.000668899
-0.00104687
-0.00148477
-0.00198931
-0.00256668
-0.00322222
-0.00396009
-0.00478303
-0.00569218
-0.00668687
-0.00776467
-0.00892131
-0.0101508
-0.0114457
-0.0127971
-0.0141948
-0.0156278
-0.0170845
-0.0185525
-0.0200197
-0.0214734
-0.0229018
-0.0242929
-0.0256357
-0.0269198
-0.0281356
-0.0292743
-0.0303281
-0.0312901
-0.0321546
-0.0329163
-0.0335713
-0.0341161
-0.0345483
-0.0348662
-0.0350684
-0.0351536
-0.0351247
-0.0349803
-0.0347219
-0.0343514
-0.0338714
-0.0332847
-0.0325949
-0.0318065
-0.0309243
-0.0299543
-0.0289034
-0.0277793
-0.0265912
-0.0253493
-0.0240653
-0.0227522
-0.0214244
-0.0200974
-0.0187877
-0.0175124
-0.0162888
-0.0151337
-0.0140624
-0.0130887
-0.0122234
-0.0114737
-0.0108432
-0.010331
-0.00993249
-0.00963896
-0.00943893
-0.00931879
-0.00926393
-0.00925978
-0.00929268
-0.00935059
-0.00942347
-0.00950349
-0.00958486
-0.00966365
-0.00973739
-0.00980465
-0.00986466
-0.0099169
-0.00996087
-0.0099959
-0.0100212
-0.0100352
-0.0100356
0.00171919
0.00153629
0.0014131
0.00131162
0.00121197
0.00110806
0.000994036
0.000864327
0.000714134
0.000538847
0.000333567
9.28486e-05
-0.000189413
-0.000519944
-0.000905944
-0.00135484
-0.00187398
-0.00247028
-0.00314989
-0.0039178
-0.0047776
-0.00573119
-0.00677859
-0.00791791
-0.00914528
-0.010455
-0.0118395
-0.0132897
-0.0147953
-0.0163448
-0.0179258
-0.0195254
-0.0211305
-0.0227279
-0.0243047
-0.0258483
-0.0273468
-0.0287891
-0.030165
-0.0314652
-0.0326813
-0.0338061
-0.0348334
-0.0357577
-0.0365748
-0.0372809
-0.0378734
-0.0383501
-0.0387095
-0.0389512
-0.0390755
-0.0390798
-0.038967
-0.0387378
-0.0383934
-0.0379356
-0.0373666
-0.036689
-0.035906
-0.0350212
-0.034039
-0.0329645
-0.0318039
-0.0305642
-0.029254
-0.027883
-0.0264626
-0.0250059
-0.0235277
-0.0220444
-0.0205738
-0.0191348
-0.017747
-0.0164295
-0.0152009
-0.0140774
-0.0130726
-0.0121962
-0.0114532
-0.0108442
-0.0103643
-0.0100048
-0.00975285
-0.00959342
-0.00951012
-0.00948654
-0.00950732
-0.00955889
-0.00962996
-0.00971158
-0.00979706
-0.00988165
-0.00996207
-0.0100361
-0.0101021
-0.0101589
-0.0102051
-0.0102397
-0.0102609
-0.0102669
0.00179085
0.00158606
0.00145116
0.00134199
0.00123491
0.00112223
0.000996655
0.000851416
0.00068066
0.000478826
0.000240094
-4.1882e-05
-0.000374068
-0.000763981
-0.00121949
-0.00174851
-0.00235868
-0.00305692
-0.0038491
-0.00473968
-0.00573138
-0.00682502
-0.00801931
-0.00931088
-0.0106943
-0.0121621
-0.0137052
-0.0153129
-0.0169732
-0.0186731
-0.0203992
-0.0221373
-0.0238734
-0.0255938
-0.027285
-0.0289343
-0.0305298
-0.0320608
-0.0335172
-0.0348903
-0.0361726
-0.0373574
-0.0384391
-0.0394132
-0.040276
-0.0410245
-0.0416565
-0.0421705
-0.0425654
-0.0428411
-0.0429979
-0.0430344
-0.0429521
-0.0427518
-0.0424347
-0.0420021
-0.0414555
-0.0407966
-0.0400277
-0.0391512
-0.0381699
-0.0370876
-0.0359083
-0.0346374
-0.0332811
-0.031847
-0.0303446
-0.0287848
-0.0271808
-0.0255478
-0.0239033
-0.0222666
-0.0206588
-0.0191019
-0.0176184
-0.0162299
-0.0149561
-0.0138134
-0.0128142
-0.0119654
-0.0112682
-0.0107179
-0.0103046
-0.0100139
-0.00982867
-0.00973005
-0.00969939
-0.00971923
-0.00977426
-0.00985172
-0.00994151
-0.010036
-0.0101296
-0.0102182
-0.0102988
-0.0103693
-0.0104275
-0.0104719
-0.0105007
-0.010512
0.00182377
0.00159763
0.00145138
0.00133449
0.00121947
0.00109685
0.000957898
0.000794541
0.000599848
0.000367264
9.00238e-05
-0.00023913
-0.000628011
-0.00108487
-0.00161815
-0.00223613
-0.00294653
-0.00375608
-0.00467014
-0.00569237
-0.00682441
-0.0080657
-0.00941346
-0.0108626
-0.012406
-0.0140344
-0.0157368
-0.0175009
-0.0193132
-0.0211592
-0.0230241
-0.024893
-0.0267512
-0.0285842
-0.0303786
-0.0321216
-0.0338017
-0.0354085
-0.0369327
-0.0383662
-0.0397022
-0.0409351
-0.0420599
-0.0430731
-0.0439716
-0.0447533
-0.0454166
-0.0459605
-0.0463844
-0.0466884
-0.0468729
-0.0469375
-0.0468832
-0.0467106
-0.0464209
-0.0460148
-0.0454935
-0.0448582
-0.0441101
-0.0432507
-0.0422817
-0.0412051
-0.0400237
-0.0387405
-0.0373599
-0.0358871
-0.034329
-0.0326943
-0.0309937
-0.0292404
-0.0274504
-0.025642
-0.0238366
-0.0220577
-0.0203303
-0.0186804
-0.0171333
-0.0157125
-0.0144379
-0.0133244
-0.0123805
-0.0116081
-0.011002
-0.0105504
-0.0102366
-0.0100406
-0.0099407
-0.00991536
-0.00994481
-0.0100118
-0.0101022
-0.0102046
-0.0103106
-0.0104139
-0.0105097
-0.0105945
-0.0106655
-0.0107204
-0.0107571
-0.010774
0.00180996
0.00156337
0.00140619
0.00128152
0.00115791
0.00102407
0.00086971
0.000685478
0.000463326
0.000195685
-0.000125169
-0.000507393
-0.000959603
-0.0014907
-0.00210958
-0.00282471
-0.0036437
-0.00457285
-0.00561678
-0.00677807
-0.00805702
-0.00945153
-0.0109571
-0.0125667
-0.0142713
-0.0160598
-0.0179193
-0.0198359
-0.0217943
-0.0237788
-0.0257736
-0.0277629
-0.0297313
-0.0316645
-0.0335488
-0.035372
-0.0371228
-0.0387917
-0.0403701
-0.0418509
-0.0432281
-0.0444971
-0.0456539
-0.0466957
-0.0476203
-0.0484263
-0.0491128
-0.0496794
-0.0501258
-0.0504526
-0.05066
-0.0507486
-0.050719
-0.050572
-0.0503083
-0.0499289
-0.0494343
-0.0488253
-0.0481026
-0.0472668
-0.0463186
-0.0452589
-0.0440889
-0.04281
-0.0414246
-0.0399356
-0.0383474
-0.0366659
-0.0348993
-0.0330579
-0.031155
-0.0292072
-0.0272344
-0.0252599
-0.02331
-0.0214135
-0.0196001
-0.0178995
-0.0163393
-0.0149428
-0.0137277
-0.0127039
-0.0118733
-0.0112292
-0.0107574
-0.0104379
-0.0102471
-0.0101597
-0.0101512
-0.0101992
-0.0102847
-0.010392
-0.0105091
-0.0106266
-0.0107378
-0.0108376
-0.010922
-0.0109881
-0.0110333
-0.0110562
0.00174149
0.00147568
0.00130807
0.00117552
0.00104257
0.00089605
0.000724148
0.000516183
0.000262991
-4.40138e-05
-0.000413507
-0.000854508
-0.00137636
-0.00198852
-0.00270017
-0.00351977
-0.00445461
-0.00551033
-0.00669053
-0.00799647
-0.00942689
-0.0109779
-0.012643
-0.0144134
-0.0162777
-0.018223
-0.0202346
-0.0222966
-0.0243926
-0.0265055
-0.0286186
-0.0307156
-0.0327809
-0.0348001
-0.03676
-0.0386487
-0.040456
-0.042173
-0.0437922
-0.0453075
-0.046714
-0.0480078
-0.0491862
-0.0502471
-0.051189
-0.0520114
-0.0527138
-0.0532964
-0.0537595
-0.0541036
-0.0543296
-0.054438
-0.0544296
-0.0543054
-0.054066
-0.053712
-0.053244
-0.0526624
-0.0519675
-0.0511592
-0.0502377
-0.0492028
-0.0480545
-0.046793
-0.0454187
-0.0439328
-0.0423371
-0.040635
-0.0388315
-0.036934
-0.0349525
-0.0329007
-0.0307959
-0.0286596
-0.0265176
-0.0243995
-0.0223379
-0.0203673
-0.0185219
-0.0168337
-0.0153298
-0.01403
-0.0129455
-0.012077
-0.0114155
-0.0109434
-0.0106363
-0.0104663
-0.0104042
-0.0104221
-0.0104953
-0.0106031
-0.0107288
-0.0108597
-0.0109862
-0.0111013
-0.0111998
-0.0112778
-0.0113324
-0.0113623
0.0016107
0.00132721
0.00114976
0.00100915
0.000866016
0.000705299
0.000513638
0.000279056
-8.72191e-06
-0.000359285
-0.000782225
-0.00128737
-0.00188469
-0.00258406
-0.00339477
-0.00432509
-0.00538173
-0.00656942
-0.00789051
-0.00934472
-0.010929
-0.0126374
-0.0144615
-0.0163901
-0.01841
-0.0205061
-0.022662
-0.0248601
-0.0270826
-0.0293116
-0.0315296
-0.0337202
-0.0358676
-0.037958
-0.0399786
-0.0419184
-0.0437681
-0.0455199
-0.0471673
-0.0487054
-0.0501303
-0.0514391
-0.0526299
-0.0537015
-0.0546534
-0.0554853
-0.0561975
-0.0567905
-0.057265
-0.057622
-0.0578622
-0.0579867
-0.0579963
-0.0578919
-0.0576742
-0.0573438
-0.0569011
-0.0563464
-0.0556797
-0.0549007
-0.0540089
-0.0530036
-0.0518839
-0.050649
-0.0492979
-0.0478301
-0.0462454
-0.0445448
-0.0427304
-0.0408063
-0.0387792
-0.0366591
-0.0344598
-0.0321998
-0.0299024
-0.0275962
-0.0253147
-0.0230949
-0.0209764
-0.0189985
-0.0171978
-0.0156049
-0.0142417
-0.013119
-0.0122359
-0.0115796
-0.0111278
-0.0108509
-0.010716
-0.0106896
-0.0107409
-0.010843
-0.0109739
-0.0111165
-0.0112579
-0.0113886
-0.0115019
-0.0115927
-0.0116576
-0.0116957
0.00141043
0.0011111
0.000924451
0.00077557
0.000621357
0.000444863
0.000231223
-3.2807e-05
-0.000358584
-0.000756664
-0.00123751
-0.00181165
-0.00248961
-0.00328148
-0.0041965