/*--------------------------------*- C++ -*----------------------------------*\
  =========                 |
  \\      /  F ield         | OpenFOAM: The Open Source CFD Toolbox
   \\    /   O peration     | Website:  https://openfoam.org
    \\  /    A nd           | Version:  9
     \\/     M anipulation  |
\*---------------------------------------------------------------------------*/
FoamFile
{
    format      ascii;
    class       surfaceScalarField;
    location    "2.75";
    object      phi;
}
// * * * * * * * * * * * * * * * * * * * * * * * * * * * * * * * * * * * * * //

dimensions      [0 3 -1 0 0 0 0];

internalField   nonuniform List<scalar> 
19800
(
8.07533e-11
-7.964e-11
9.08753e-10
-8.27978e-10
2.36182e-09
-1.45306e-09
4.16438e-09
-1.80255e-09
6.08828e-09
-1.92393e-09
7.96416e-09
-1.87586e-09
9.67325e-09
-1.70909e-09
1.11379e-08
-1.46469e-09
1.23122e-08
-1.17423e-09
1.31733e-08
-8.61123e-10
1.37152e-08
-5.41911e-10
1.39425e-08
-2.27279e-10
1.38659e-08
7.65929e-11
1.34978e-08
3.68109e-10
1.28493e-08
6.48485e-10
1.19279e-08
9.21344e-10
1.07361e-08
1.19185e-09
9.27017e-09
1.46591e-09
7.52065e-09
1.74952e-09
5.47244e-09
2.0482e-09
3.10585e-09
2.36659e-09
3.97732e-10
2.70812e-09
-2.67718e-09
3.07491e-09
-6.14491e-09
3.46773e-09
-1.00309e-08
3.88602e-09
-1.43589e-08
4.32797e-09
-1.91495e-08
4.79062e-09
-2.44194e-08
5.26991e-09
-3.01801e-08
5.76071e-09
-3.64371e-08
6.25691e-09
-4.31885e-08
6.7514e-09
-5.04246e-08
7.23614e-09
-5.81268e-08
7.7022e-09
-6.62666e-08
8.13982e-09
-7.48052e-08
8.53857e-09
-8.36927e-08
8.88747e-09
-9.28678e-08
9.17517e-09
-1.02258e-07
9.39023e-09
-1.11779e-07
9.52132e-09
-1.21337e-07
9.55747e-09
-1.30825e-07
9.48845e-09
-1.4013e-07
9.30498e-09
-1.49129e-07
8.99906e-09
-1.57694e-07
8.56429e-09
-1.6569e-07
7.99611e-09
-1.72982e-07
7.29213e-09
-1.79434e-07
6.45231e-09
-1.84913e-07
5.47927e-09
-1.89292e-07
4.37864e-09
-1.92452e-07
3.15963e-09
-1.94286e-07
1.83447e-09
-1.94707e-07
4.2088e-10
-1.93619e-07
-1.08761e-09
-1.90986e-07
-2.63388e-09
-1.86771e-07
-4.21501e-09
-1.80969e-07
-5.8012e-09
-1.73605e-07
-7.36421e-09
-1.64731e-07
-8.8744e-09
-1.5443e-07
-1.03013e-08
-1.42815e-07
-1.16142e-08
-1.30032e-07
-1.27836e-08
-1.1625e-07
-1.37815e-08
-1.01667e-07
-1.45829e-08
-8.65004e-08
-1.51668e-08
-7.09837e-08
-1.55168e-08
-5.53611e-08
-1.56226e-08
-3.98809e-08
-1.54802e-08
-2.47884e-08
-1.50926e-08
-1.03185e-08
-1.44699e-08
3.31107e-09
-1.36296e-08
1.59071e-08
-1.2596e-08
2.73036e-08
-1.13965e-08
3.73699e-08
-1.00663e-08
4.60109e-08
-8.64107e-09
5.31725e-08
-7.16159e-09
5.88378e-08
-5.66529e-09
6.30267e-08
-4.18886e-09
6.5793e-08
-2.76633e-09
6.72201e-08
-1.42712e-09
6.74155e-08
-1.95348e-10
6.65047e-08
9.10746e-10
6.46256e-08
1.87913e-09
6.19217e-08
2.7039e-09
5.8537e-08
3.38467e-09
5.46109e-08
3.92617e-09
5.02736e-08
4.33728e-09
4.56436e-08
4.62999e-09
4.08255e-08
4.81812e-09
3.59095e-08
4.91594e-09
3.0973e-08
4.9365e-09
2.60834e-08
4.88965e-09
2.13035e-08
4.77987e-09
1.66999e-08
4.60361e-09
1.23533e-08
4.34663e-09
8.37176e-09
3.98149e-09
4.9047e-09
3.46706e-09
2.14995e-09
2.75475e-09
3.40858e-10
1.80909e-09
-3.3316e-10
6.74018e-10
-3.33159e-10
8.2709e-10
-9.0673e-10
3.16349e-09
-3.1644e-09
6.59395e-09
-4.88351e-09
1.06603e-08
-5.86888e-09
1.49366e-08
-6.2002e-09
1.90698e-08
-6.00916e-09
2.27891e-08
-5.42838e-09
2.58999e-08
-4.57547e-09
2.82728e-08
-3.5471e-09
2.98302e-08
-2.41857e-09
3.05336e-08
-1.24531e-09
3.037e-08
-6.36072e-11
2.93452e-08
1.10132e-09
2.7469e-08
2.24429e-09
2.4752e-08
3.36554e-09
2.11983e-08
4.47501e-09
1.68024e-08
5.58772e-09
1.1547e-08
6.72137e-09
5.40247e-09
7.89401e-09
-1.67149e-09
9.12217e-09
-9.72418e-09
1.04193e-08
-1.88108e-08
1.17948e-08
-2.89892e-08
1.32533e-08
-4.03162e-08
1.47947e-08
-5.28441e-08
1.64139e-08
-6.66172e-08
1.81011e-08
-8.16688e-08
1.98423e-08
-9.8018e-08
2.16191e-08
-1.15667e-07
2.34095e-08
-1.34598e-07
2.51878e-08
-1.54771e-07
2.6925e-08
-1.76124e-07
2.8589e-08
-1.98567e-07
3.01452e-08
-2.21984e-07
3.1557e-08
-2.46232e-07
3.27861e-08
-2.71138e-07
3.37937e-08
-2.96504e-07
3.45408e-08
-3.22103e-07
3.49897e-08
-3.47686e-07
3.51046e-08
-3.72981e-07
3.48522e-08
-3.97696e-07
3.42037e-08
-4.21526e-07
3.31346e-08
-4.44153e-07
3.16262e-08
-4.65255e-07
2.96664e-08
-4.84509e-07
2.72501e-08
-5.01597e-07
2.43799e-08
-5.16212e-07
2.10667e-08
-5.28062e-07
1.733e-08
-5.36882e-07
1.31985e-08
-5.42434e-07
8.71113e-09
-5.44515e-07
3.91619e-09
-5.42974e-07
-1.12079e-09
-5.37666e-07
-6.39476e-09
-5.28534e-07
-1.17664e-08
-5.15567e-07
-1.71824e-08
-4.98808e-07
-2.25596e-08
-4.78363e-07
-2.78098e-08
-4.54395e-07
-3.28417e-08
-4.27134e-07
-3.75631e-08
-3.96865e-07
-4.18828e-08
-3.63935e-07
-4.57133e-08
-3.28744e-07
-4.89728e-08
-2.91738e-07
-5.15886e-08
-2.53406e-07
-5.34992e-08
-2.14265e-07
-5.46575e-08
-1.74855e-07
-5.50324e-08
-1.35724e-07
-5.46117e-08
-9.7414e-08
-5.34024e-08
-6.04514e-08
-5.14325e-08
-2.53308e-08
-4.87502e-08
7.4966e-09
-4.54234e-08
3.76378e-08
-4.15377e-08
6.47615e-08
-3.71899e-08
8.86108e-08
-3.24904e-08
1.09011e-07
-2.75618e-08
1.25868e-07
-2.25219e-08
1.39166e-07
-1.74876e-08
1.48971e-07
-1.2571e-08
1.55416e-07
-7.87253e-09
1.58699e-07
-3.4783e-09
1.59068e-07
5.41811e-10
1.5681e-07
4.13714e-09
1.52239e-07
7.27514e-09
1.45682e-07
9.94174e-09
1.37468e-07
1.21399e-08
1.27919e-07
1.3887e-08
1.17336e-07
1.52123e-08
1.06002e-07
1.61522e-08
9.4172e-08
1.67461e-08
8.20775e-08
1.70311e-08
6.99321e-08
1.7035e-08
5.79414e-08
1.67705e-08
4.63176e-08
1.62275e-08
3.52973e-08
1.53669e-08
2.51607e-08
1.41181e-08
1.62447e-08
1.2383e-08
8.93874e-09
1.00607e-08
3.6467e-09
7.10114e-09
6.97602e-10
3.62312e-09
3.64443e-10
1.45943e-09
-2.36615e-09
4.90409e-09
-6.60905e-09
9.64585e-09
-9.62532e-09
1.50785e-08
-1.13015e-08
2.06616e-08
-1.17833e-08
2.59405e-08
-1.12881e-08
3.05542e-08
-1.00421e-08
3.42317e-08
-8.25295e-09
3.67813e-08
-6.09675e-09
3.80772e-08
-3.71447e-09
3.80441e-08
-1.21221e-09
3.66441e-08
1.33644e-09
3.38589e-08
3.88649e-09
2.9684e-08
6.41917e-09
2.41144e-08
8.93513e-09
1.71389e-08
1.14505e-08
8.73496e-09
1.39917e-08
-1.13372e-09
1.659e-08
-1.25174e-08
1.92777e-08
-2.54785e-08
2.20832e-08
-4.00883e-08
2.50291e-08
-5.64225e-08
2.8129e-08
-7.45562e-08
3.1387e-08
-9.45583e-08
3.47967e-08
-1.16486e-07
3.83415e-08
-1.40379e-07
4.19946e-08
-1.66257e-07
4.57202e-08
-1.94112e-07
4.94736e-08
-2.23905e-07
5.32022e-08
-2.55563e-07
5.68464e-08
-2.88979e-07
6.03403e-08
-3.24002e-07
6.36129e-08
-3.60446e-07
6.65892e-08
-3.98081e-07
6.91916e-08
-4.36637e-07
7.13418e-08
-4.75805e-07
7.2962e-08
-5.15242e-07
7.39774e-08
-5.5457e-07
7.43179e-08
-5.93385e-07
7.392e-08
-6.31261e-07
7.27284e-08
-6.67756e-07
7.06982e-08
-7.02417e-07
6.7796e-08
-7.34792e-07
6.40013e-08
-7.64433e-07
5.93073e-08
-7.90905e-07
5.37221e-08
-8.13794e-07
4.72688e-08
-8.32713e-07
3.99861e-08
-8.47312e-07
3.19281e-08
-8.57278e-07
2.31647e-08
-8.6235e-07
1.37832e-08
-8.62336e-07
3.9023e-09
-8.57032e-07
-6.42429e-09
-8.46391e-07
-1.7036e-08
-8.30373e-07
-2.77842e-08
-8.09025e-07
-3.85314e-08
-7.8246e-07
-4.91244e-08
-7.50867e-07
-5.94027e-08
-7.14506e-07
-6.92026e-08
-6.73709e-07
-7.83596e-08
-6.2888e-07
-8.67126e-08
-5.80485e-07
-9.41074e-08
-5.29057e-07
-1.00401e-07
-4.75181e-07
-1.05465e-07
-4.1949e-07
-1.09191e-07
-3.62653e-07
-1.11494e-07
-3.05367e-07
-1.12319e-07
-2.4834e-07
-1.11639e-07
-1.9228e-07
-1.09462e-07
-1.37879e-07
-1.05833e-07
-8.57975e-08
-1.00831e-07
-3.66503e-08
-9.45706e-08
9.01004e-09
-8.7198e-08
5.071e-08
-7.88899e-08
8.80432e-08
-6.98237e-08
1.20724e-07
-6.02428e-08
1.48553e-07
-5.03506e-08
1.71435e-07
-4.03699e-08
1.8938e-07
-3.05162e-08
2.02495e-07
-2.09874e-08
2.10977e-07
-1.19598e-08
2.15101e-07
-3.58211e-09
2.15209e-07
4.02885e-09
2.11692e-07
1.0792e-08
2.04977e-07
1.66572e-08
1.95507e-07
2.16096e-08
1.83731e-07
2.56627e-08
1.70089e-07
2.88544e-08
1.55002e-07
3.12398e-08
1.38866e-07
3.2882e-08
1.22054e-07
3.38428e-08
1.04919e-07
3.41701e-08
8.7803e-08
3.38865e-08
7.10535e-08
3.29769e-08
5.50409e-08
3.13795e-08
4.01759e-08
2.89831e-08
2.69201e-08
2.56389e-08
1.5781e-08
2.11998e-08
7.28233e-09
1.55998e-08
1.8984e-09
9.00704e-09
2.26285e-09
1.82898e-09
-4.19512e-09
5.93947e-09
-1.07196e-08
1.1399e-08
-1.50848e-08
1.74662e-08
-1.73687e-08
2.3517e-08
-1.78341e-08
2.90348e-08
-1.68059e-08
3.36063e-08
-1.46136e-08
3.69136e-08
-1.15603e-08
3.8723e-08
-7.90611e-09
3.88708e-08
-3.86231e-09
3.72487e-08
4.09906e-10
3.37881e-08
4.79707e-09
2.84453e-08
9.22925e-09
2.11901e-08
1.36744e-08
1.19939e-08
1.81313e-08
8.22621e-10
2.26218e-08
-1.23687e-08
2.7183e-08
-2.76381e-08
3.18594e-08
-4.50559e-08
3.66955e-08
-6.47025e-08
4.17298e-08
-8.66631e-08
4.69897e-08
-1.11022e-07
5.2488e-08
-1.37856e-07
5.82209e-08
-1.67226e-07
6.41673e-08
-1.99173e-07
7.02884e-08
-2.33708e-07
7.6529e-08
-2.70806e-07
8.28183e-08
-3.10404e-07
8.90714e-08
-3.52393e-07
9.51912e-08
-3.96616e-07
1.0107e-07
-4.42867e-07
1.06591e-07
-4.90886e-07
1.11632e-07
-5.40364e-07
1.16068e-07
-5.90943e-07
1.1977e-07
-6.42217e-07
1.22616e-07
-6.93741e-07
1.24486e-07
-7.45032e-07
1.25269e-07
-7.95583e-07
1.24869e-07
-8.44863e-07
1.232e-07
-8.92331e-07
1.20196e-07
-9.37442e-07
1.15809e-07
-9.79657e-07
1.10011e-07
-1.01845e-06
1.02797e-07
-1.05333e-06
9.41815e-08
-1.08381e-06
8.4204e-08
-1.10946e-06
7.29248e-08
-1.1299e-06
6.0426e-08
-1.14479e-06
4.68114e-08
-1.15383e-06
3.22044e-08
-1.15679e-06
1.6743e-08
-1.15355e-06
6.68359e-10
-1.14392e-06
-1.60556e-08
-1.12793e-06
-3.303e-08
-1.10559e-06
-5.01208e-08
-1.07701e-06
-6.71092e-08
-1.04237e-06
-8.37689e-08
-1.0019e-06
-9.98674e-08
-9.55938e-07
-1.15169e-07
-9.04859e-07
-1.29439e-07
-8.49125e-07
-1.42447e-07
-7.8926e-07
-1.53972e-07
-7.2585e-07
-1.6381e-07
-6.59539e-07
-1.71776e-07
-5.91019e-07
-1.77711e-07
-5.21024e-07
-1.8149e-07
-4.50318e-07
-1.83025e-07
-3.79686e-07
-1.82271e-07
-3.09918e-07
-1.7923e-07
-2.41798e-07
-1.73954e-07
-1.76082e-07
-1.66547e-07
-1.13491e-07
-1.57162e-07
-5.46912e-08
-1.45998e-07
-2.8092e-10
-1.333e-07
4.92606e-08
-1.19365e-07
9.34897e-08
-1.04472e-07
1.32104e-07
-8.89649e-08
1.64909e-07
-7.31747e-08
1.91822e-07
-5.74298e-08
2.12876e-07
-4.20412e-08
2.28209e-07
-2.72931e-08
2.38061e-07
-1.34338e-08
2.42761e-07
-6.7062e-10
2.42706e-07
1.08467e-08
2.38357e-07
2.10064e-08
2.30211e-07
2.97552e-08
2.1879e-07
3.70835e-08
2.04623e-07
4.30214e-08
1.88234e-07
4.76292e-08
1.70132e-07
5.09843e-08
1.50808e-07
5.31665e-08
1.30737e-07
5.42409e-08
1.10384e-07
5.42399e-08
9.02142e-08
5.31464e-08
7.07125e-08
5.08812e-08
5.2395e-08
4.73007e-08
3.58225e-08
4.22114e-08
2.16056e-08
3.54167e-08
1.04024e-08
2.6803e-08
2.92052e-09
1.6489e-08
5.18337e-09
1.97932e-09
-6.17447e-09
6.331e-09
-1.50712e-08
1.19535e-08
-2.07073e-08
1.8e-08
-2.34152e-08
2.37847e-08
-2.36188e-08
2.87524e-08
-2.17736e-08
3.24602e-08
-1.83214e-08
3.45634e-08
-1.36635e-08
3.48012e-08
-8.14389e-09
3.29822e-08
-2.04337e-09
2.89696e-08
4.42256e-09
2.26655e-08
1.11011e-08
1.39978e-08
1.7897e-08
2.90699e-09
2.47652e-08
-1.06633e-08
3.17016e-08
-2.67739e-08
3.87324e-08
-4.54946e-08
4.59036e-08
-6.69047e-08
5.32695e-08
-9.10918e-08
6.08827e-08
-1.18147e-07
6.87855e-08
-1.4816e-07
7.70028e-08
-1.8121e-07
8.55375e-08
-2.17357e-07
9.43675e-08
-2.56634e-07
1.03444e-07
-2.9904e-07
1.12695e-07
-3.44531e-07
1.2202e-07
-3.93014e-07
1.31301e-07
-4.44341e-07
1.40398e-07
-4.98306e-07
1.49156e-07
-5.54644e-07
1.57407e-07
-6.13028e-07
1.64975e-07
-6.73074e-07
1.71678e-07
-7.34341e-07
1.77335e-07
-7.9634e-07
1.81769e-07
-8.58539e-07
1.84815e-07
-9.20372e-07
1.86318e-07
-9.81247e-07
1.86144e-07
-1.04056e-06
1.84181e-07
-1.0977e-06
1.80339e-07
-1.15206e-06
1.74558e-07
-1.20306e-06
1.66807e-07
-1.25013e-06
1.57081e-07
-1.29274e-06
1.45409e-07
-1.3304e-06
1.31844e-07
-1.36267e-06
1.16472e-07
-1.38915e-06
9.94013e-08
-1.40949e-06
8.07683e-08
-1.42341e-06
6.07324e-08
-1.43068e-06
3.94752e-08
-1.43114e-06
1.72036e-08
-1.42463e-06
-5.84736e-09
-1.41117e-06
-2.95123e-08
-1.39074e-06
-5.34616e-08
-1.36341e-06
-7.74459e-08
-1.32933e-06
-1.01188e-07
-1.28871e-06
-1.24397e-07
-1.2418e-06
-1.46778e-07
-1.18894e-06
-1.68028e-07
-1.13053e-06
-1.87848e-07
-1.06703e-06
-2.05943e-07
-9.98974e-07
-2.22029e-07
-9.26946e-07
-2.35838e-07
-8.51594e-07
-2.47128e-07
-7.73617e-07
-2.55688e-07
-6.93761e-07
-2.61346e-07
-6.12812e-07
-2.63974e-07
-5.31582e-07
-2.635e-07
-4.50902e-07
-2.5991e-07
-3.71605e-07
-2.53252e-07
-2.9451e-07
-2.43641e-07
-2.20412e-07
-2.3126e-07
-1.50058e-07
-2.16352e-07
-8.41344e-08
-1.99224e-07
-2.32649e-08
-1.80235e-07
3.20411e-08
-1.59778e-07
8.13613e-08
-1.38285e-07
1.24383e-07
-1.16196e-07
1.60919e-07
-9.39663e-08
1.909e-07
-7.20225e-08
2.14376e-07
-5.07692e-08
2.31512e-07
-3.05694e-08
2.42575e-07
-1.1734e-08
2.47934e-07
5.48818e-09
2.48027e-07
2.09132e-08
2.4336e-07
3.44221e-08
2.34483e-07
4.59608e-08
2.21972e-07
5.55317e-08
2.0642e-07
6.31818e-08
1.88417e-07
6.89877e-08
1.68547e-07
7.30358e-08
1.47387e-07
7.54007e-08
1.25506e-07
7.61215e-08
1.03472e-07
7.51798e-08
8.18698e-08
7.24838e-08
6.13083e-08
6.78622e-08
4.24414e-08
6.10783e-08
2.59851e-08
5.1873e-08
1.27449e-08
4.00431e-08
3.66834e-09
2.55656e-08
8.85171e-09
1.95847e-09
-8.13292e-09
6.17332e-09
-1.92861e-08
1.1451e-08
-2.59851e-08
1.68795e-08
-2.88436e-08
2.1736e-08
-2.84754e-08
2.54454e-08
-2.54829e-08
2.75515e-08
-2.04276e-08
2.76969e-08
-1.38088e-08
2.5605e-08
-6.05201e-09
2.10648e-08
2.49689e-09
1.39154e-08
1.15719e-08
4.03254e-09
2.0984e-08
-8.68507e-09
3.06146e-08
-2.43264e-08
4.04066e-08
-4.29772e-08
5.03524e-08
-6.47254e-08
6.04806e-08
-8.96641e-08
7.08423e-08
-1.17891e-07
8.14961e-08
-1.49504e-07
9.24955e-08
-1.84595e-07
1.03877e-07
-2.23246e-07
1.15653e-07
-2.65512e-07
1.27804e-07
-3.11418e-07
1.40274e-07
-3.60948e-07
1.52974e-07
-4.14033e-07
1.6578e-07
-4.70549e-07
1.78537e-07
-5.30309e-07
1.91061e-07
-5.93058e-07
2.03147e-07
-6.58472e-07
2.14571e-07
-7.26162e-07
2.25097e-07
-7.95674e-07
2.34486e-07
-8.66494e-07
2.42498e-07
-9.38059e-07
2.489e-07
-1.00977e-06
2.53477e-07
-1.08098e-06
2.56031e-07
-1.15105e-06
2.5639e-07
-1.21932e-06
2.54415e-07
-1.28514e-06
2.49997e-07
-1.34787e-06
2.43067e-07
-1.4069e-06
2.33589e-07
-1.46166e-06
2.21567e-07
-1.51162e-06
2.07038e-07
-1.55628e-06
1.90077e-07
-1.59523e-06
1.7079e-07
-1.62807e-06
1.49312e-07
-1.65448e-06
1.25807e-07
-1.67417e-06
1.00465e-07
-1.68694e-06
7.34975e-08
-1.6926e-06
4.51405e-08
-1.69105e-06
1.5655e-08
-1.6822e-06
-1.47009e-08
-1.66606e-06
-4.56499e-08
-1.64266e-06
-7.68611e-08
-1.61209e-06
-1.08021e-07
-1.57448e-06
-1.38797e-07
-1.53003e-06
-1.68845e-07
-1.479e-06
-1.97813e-07
-1.42169e-06
-2.2534e-07
-1.35847e-06
-2.51067e-07
-1.28977e-06
-2.74637e-07
-1.2161e-06
-2.95704e-07
-1.138e-06
-3.13938e-07
-1.05609e-06
-3.29034e-07
-9.71055e-07
-3.40723e-07
-8.83625e-07
-3.48776e-07
-7.9458e-07
-3.53019e-07
-7.04741e-07
-3.53339e-07
-6.14958e-07
-3.49693e-07
-5.26097e-07
-3.42112e-07
-4.39027e-07
-3.30711e-07
-3.54603e-07
-3.15684e-07
-2.73647e-07
-2.97308e-07
-1.96935e-07
-2.75936e-07
-1.25177e-07
-2.51993e-07
-5.89991e-08
-2.25956e-07
1.06725e-09
-1.98351e-07
5.461e-08
-1.69739e-07
1.01316e-07
-1.40672e-07
1.41006e-07
-1.11713e-07
1.73628e-07
-8.33915e-08
1.99253e-07
-5.61942e-08
2.18069e-07
-3.055e-08
2.30376e-07
-6.819e-09
2.36571e-07
1.47187e-08
2.37129e-07
3.38641e-08
2.32595e-07
5.04942e-08
2.23564e-07
6.4563e-08
2.10661e-07
7.60849e-08
1.94531e-07
8.51173e-08
1.75828e-07
9.17389e-08
1.55207e-07
9.60224e-08
1.33321e-07
9.80068e-08
1.10831e-07
9.76701e-08
8.84071e-08
9.49077e-08
6.67475e-08
8.95218e-08
4.6597e-08
8.12287e-08
2.87782e-08
6.96919e-08
1.4239e-08
5.45823e-08
4.13344e-09
3.56711e-08
1.29851e-08
1.8013e-09
-9.93423e-09
5.54887e-09
-2.30337e-08
1.00215e-08
-3.04576e-08
1.42845e-08
-3.31067e-08
1.76063e-08
-3.17971e-08
1.94106e-08
-2.72872e-08
1.92425e-08
-2.02595e-08
1.6743e-08
-1.13093e-08
1.16283e-08
-9.37308e-10
3.67382e-09
1.04513e-08
-7.30048e-09
2.25462e-08
-2.14433e-08
3.51268e-08
-3.88831e-08
4.80544e-08
-5.97374e-08
6.12609e-08
-8.41194e-08
7.47344e-08
-1.12142e-07
8.85028e-08
-1.43916e-07
1.02617e-07
-1.79551e-07
1.17131e-07
-2.19145e-07
1.3209e-07
-2.62779e-07
1.47512e-07
-3.10508e-07
1.63382e-07
-3.62347e-07
1.79642e-07
-4.18262e-07
1.96189e-07
-4.78164e-07
2.12876e-07
-5.41897e-07
2.29513e-07
-6.09233e-07
2.45873e-07
-6.7987e-07
2.61698e-07
-7.53432e-07
2.76708e-07
-8.29468e-07
2.90607e-07
-9.07461e-07
3.03091e-07
-9.86836e-07
3.13861e-07
-1.06697e-06
3.22628e-07
-1.14719e-06
3.29125e-07
-1.22682e-06
3.3311e-07
-1.30517e-06
3.34378e-07
-1.38154e-06
3.32762e-07
-1.45527e-06
3.28138e-07
-1.52569e-06
3.20426e-07
-1.59222e-06
3.09594e-07
-1.65428e-06
2.9565e-07
-1.71136e-06
2.78647e-07
-1.763e-06
2.58675e-07
-1.80878e-06
2.35861e-07
-1.84836e-06
2.10364e-07
-1.88142e-06
1.8237e-07
-1.9077e-06
1.52092e-07
-1.927e-06
1.19766e-07
-1.93915e-06
8.56477e-08
-1.94403e-06
5.00137e-08
-1.94154e-06
1.31675e-08
-1.93163e-06
-2.4608e-08
-1.91431e-06
-6.29713e-08
-1.8896e-06
-1.01571e-07
-1.85757e-06
-1.4005e-07
-1.81833e-06
-1.78033e-07
-1.77205e-06
-2.15131e-07
-1.71892e-06
-2.50942e-07
-1.6592e-06
-2.85054e-07
-1.59322e-06
-3.17051e-07
-1.52134e-06
-3.46515e-07
-1.44401e-06
-3.73037e-07
-1.36173e-06
-3.96221e-07
-1.27507e-06
-4.15696e-07
-1.18467e-06
-4.31123e-07
-1.09123e-06
-4.4221e-07
-9.95527e-07
-4.48723e-07
-8.98371e-07
-4.50495e-07
-8.00627e-07
-4.47437e-07
-7.03189e-07
-4.39551e-07
-6.06969e-07
-4.2693e-07
-5.12882e-07
-4.09771e-07
-4.21824e-07
-3.88366e-07
-3.34656e-07
-3.63105e-07
-2.52183e-07
-3.34465e-07
-1.75138e-07
-3.03001e-07
-1.0416e-07
-2.6933e-07
-3.97893e-08
-2.34109e-07
1.75594e-08
-1.98021e-07
6.75921e-08
-1.61746e-07
1.10146e-07
-1.25945e-07
1.45191e-07
-9.12386e-08
1.72823e-07
-5.81829e-08
1.93264e-07
-2.72593e-08
2.0685e-07
1.13255e-09
2.14005e-07
2.67086e-08
2.15252e-07
4.9248e-08
2.11173e-07
6.86414e-08
2.02408e-07
8.48502e-08
1.89631e-07
9.78944e-08
1.73541e-07
1.07828e-07
1.54854e-07
1.1471e-07
1.34293e-07
1.18568e-07
1.12594e-07
1.1937e-07
9.05056e-08
1.16996e-07
6.881e-08
1.11217e-07
4.83399e-08
1.01699e-07
3.00181e-08
8.80136e-08
1.49153e-08
6.96852e-08
4.33824e-09
4.62482e-08
1.73234e-08
1.53036e-09
-1.14646e-08
4.51813e-09
-2.60214e-08
7.7666e-09
-3.37061e-08
1.03603e-08
-3.57004e-08
1.15876e-08
-3.30244e-08
1.08921e-08
-2.65917e-08
7.83321e-09
-1.72006e-08
2.06095e-09
-5.53703e-09
-6.70857e-09
7.8322e-09
-1.87085e-08
2.24513e-08
-3.41348e-08
3.79725e-08
-5.31574e-08
5.41494e-08
-7.59294e-08
7.08264e-08
-1.02594e-07
8.79254e-08
-1.33287e-07
1.05428e-07
-1.68141e-07
1.23357e-07
-2.07278e-07
1.41753e-07
-2.50807e-07
1.60659e-07
-2.98813e-07
1.80096e-07
-3.51351e-07
2.00049e-07
-4.08428e-07
2.20459e-07
-4.69999e-07
2.41213e-07
-5.35952e-07
2.62142e-07
-6.06102e-07
2.83026e-07
-6.80186e-07
3.03596e-07
-7.57857e-07
3.23544e-07
-8.38689e-07
3.4253e-07
-9.22178e-07
3.60197e-07
-1.00775e-06
3.7618e-07
-1.09478e-06
3.90118e-07
-1.18258e-06
4.01664e-07
-1.27045e-06
4.105e-07
-1.35767e-06
4.16343e-07
-1.44351e-06
4.18952e-07
-1.52727e-06
4.18137e-07
-1.60827e-06
4.13759e-07
-1.68587e-06
4.05733e-07
-1.75947e-06
3.94027e-07
-1.82853e-06
3.78659e-07
-1.89258e-06
3.59693e-07
-1.95117e-06
3.37237e-07
-2.00393e-06
3.11436e-07
-2.05053e-06
2.82465e-07
-2.0907e-06
2.50532e-07
-2.12419e-06
2.15865e-07
-2.15082e-06
1.78715e-07
-2.1704e-06
1.39353e-07
-2.18282e-06
9.80654e-08
-2.18796e-06
5.51561e-08
-2.18575e-06
1.09572e-08
-2.17613e-06
-3.42296e-08
-2.15908e-06
-8.00236e-08
-2.1346e-06
-1.26055e-07
-2.10271e-06
-1.71937e-07
-2.06348e-06
-2.17259e-07
-2.01702e-06
-2.61595e-07
-1.96346e-06
-3.045e-07
-1.903e-06
-3.45516e-07
-1.83588e-06
-3.84171e-07
-1.7624e-06
-4.1999e-07
-1.68294e-06
-4.52498e-07
-1.59794e-06
-4.81229e-07
-1.50789e-06
-5.05739e-07
-1.4134e-06
-5.25612e-07
-1.31513e-06
-5.40481e-07
-1.21382e-06
-5.50036e-07
-1.11027e-06
-5.54042e-07
-1.00536e-06
-5.5235e-07
-9.00002e-07
-5.44909e-07
-7.95154e-07
-5.31779e-07
-6.91789e-07
-5.13136e-07
-5.90881e-07
-4.89274e-07
-4.9338e-07
-4.60605e-07
-4.00195e-07
-4.2765e-07
-3.12168e-07
-3.91028e-07
-2.30057e-07
-3.5144e-07
-1.54518e-07
-3.09648e-07
-8.6089e-08
-2.6645e-07
-2.51787e-08
-2.22656e-07
2.79394e-08
-1.79064e-07
7.31307e-08
-1.3643e-07
1.10399e-07
-9.54509e-08
1.39881e-07
-5.67415e-08
1.61835e-07
-2.08215e-08
1.76645e-07
1.18982e-08
1.84784e-07
4.11095e-08
1.86814e-07
6.6611e-08
1.8337e-07
8.82946e-08
1.75138e-07
1.06126e-07
1.62848e-07
1.20118e-07
1.47258e-07
1.303e-07
1.29145e-07
1.3668e-07
1.0931e-07
1.39205e-07
8.8574e-08
1.37732e-07
6.77929e-08
1.31999e-07
4.78814e-08
1.2161e-07
2.98497e-08
1.06045e-07
1.4862e-08
8.46729e-08
4.31847e-09
5.67917e-08
2.16419e-08
1.15822e-09
-1.26228e-08
3.12021e-09
-2.79834e-08
4.75892e-09
-3.53448e-08
5.21705e-09
-3.61585e-08
3.83246e-09
-3.16399e-08
8.82751e-11
-2.28475e-08
-6.42324e-09
-1.06891e-08
-1.6038e-08
4.07773e-09
-2.90334e-08
2.08276e-08
-4.56465e-08
3.90644e-08
-6.60857e-08
5.84117e-08
-9.05393e-08
7.86029e-08
-1.19181e-07
9.94685e-08
-1.52176e-07
1.2092e-07
-1.89676e-07
1.42928e-07
-2.31823e-07
1.65504e-07
-2.7874e-07
1.8867e-07
-3.30521e-07
2.12441e-07
-3.87224e-07
2.36799e-07
-4.48855e-07
2.61681e-07
-5.1536e-07
2.86964e-07
-5.86608e-07
3.12462e-07
-6.62393e-07
3.37927e-07
-7.42416e-07
3.6305e-07
-8.26295e-07
3.87475e-07
-9.13558e-07
4.10807e-07
-1.00366e-06
4.32627e-07
-1.09597e-06
4.52508e-07
-1.18981e-06
4.70026e-07
-1.28447e-06
4.84779e-07
-1.37921e-06
4.96398e-07
-1.47326e-06
5.04557e-07
-1.5659e-06
5.08984e-07
-1.65642e-06
5.09465e-07
-1.74413e-06
5.05848e-07
-1.82841e-06
4.98042e-07
-1.90869e-06
4.86017e-07
-1.98447e-06
4.69801e-07
-2.05528e-06
4.4947e-07
-2.12073e-06
4.25145e-07
-2.18048e-06
3.96987e-07
-2.23423e-06
3.65188e-07
-2.28174e-06
3.29969e-07
-2.32277e-06
2.91569e-07
-2.35716e-06
2.50251e-07
-2.38474e-06
2.06291e-07
-2.40536e-06
1.59981e-07
-2.41892e-06
1.11625e-07
-2.42531e-06
6.15449e-08
-2.42444e-06
1.0085e-08
-2.41624e-06
-4.24339e-08
-2.40064e-06
-9.56157e-08
-2.37762e-06
-1.49076e-07
-2.34716e-06
-2.02404e-07
-2.30925e-06
-2.55168e-07
-2.26393e-06
-3.06908e-07
-2.21129e-06
-3.57145e-07
-2.15143e-06
-4.05378e-07
-2.08451e-06
-4.51086e-07
-2.01076e-06
-4.93736e-07
-1.93048e-06
-5.32788e-07
-1.844e-06
-5.67703e-07
-1.75178e-06
-5.97957e-07
-1.65434e-06
-6.23053e-07
-1.55229e-06
-6.42535e-07
-1.44632e-06
-6.56004e-07
-1.33722e-06
-6.63139e-07
-1.22586e-06
-6.6371e-07
-1.11317e-06
-6.57597e-07
-1.00015e-06
-6.44801e-07
-8.87828e-07
-6.2546e-07
-7.77255e-07
-5.99847e-07
-6.69481e-07
-5.68379e-07
-5.65525e-07
-5.31607e-07
-4.66351e-07
-4.90202e-07
-3.72847e-07
-4.44945e-07
-2.85797e-07
-3.96698e-07
-2.05869e-07
-3.46377e-07
-1.33597e-07
-2.94928e-07
-6.93717e-08
-2.43289e-07
-1.34344e-08
-1.92367e-07
3.41214e-08
-1.43007e-07
7.33478e-08
-9.59679e-08
1.04434e-07
-5.19078e-08
1.277e-07
-1.1368e-08
1.43579e-07
2.52305e-08
1.52604e-07
5.75862e-08
1.55395e-07
8.55036e-08
1.52642e-07
1.08879e-07
1.45092e-07
1.27669e-07
1.33532e-07
1.4186e-07
1.18788e-07
1.51424e-07
1.0171e-07
1.56282e-07
8.31834e-08
1.56259e-07
6.41311e-08
1.51051e-07
4.55384e-08
1.40203e-07
2.84857e-08
1.23098e-07
1.41985e-08
9.89601e-08
4.11597e-09
6.68742e-08
2.57578e-08
6.90706e-10
-1.33135e-08
1.3784e-09
-2.86711e-08
1.04794e-09
-3.50144e-08
-1.06183e-09
-3.40488e-08
-5.53424e-09
-2.71674e-08
-1.28245e-08
-1.55572e-08
-2.33016e-08
-2.12029e-10
-3.72708e-08
1.8047e-08
-5.49996e-08
3.85563e-08
-7.67258e-08
6.07906e-08
-1.02667e-07
8.43531e-08
-1.33027e-07
1.08962e-07
-1.67994e-07
1.34436e-07
-2.07748e-07
1.60673e-07
-2.5245e-07
1.8763e-07
-3.0224e-07
2.15294e-07
-3.57226e-07
2.43656e-07
-4.17473e-07
2.72688e-07
-4.82992e-07
3.02318e-07
-5.53723e-07
3.32412e-07
-6.29528e-07
3.62768e-07
-7.10179e-07
3.93113e-07
-7.95355e-07
4.23103e-07
-8.8464e-07
4.52335e-07
-9.77526e-07
4.80361e-07
-1.07342e-06
5.06703e-07
-1.17167e-06
5.30872e-07
-1.27154e-06
5.52385e-07
-1.3723e-06
5.70781e-07
-1.47316e-06
5.85642e-07
-1.57336e-06
5.96599e-07
-1.67215e-06
6.03348e-07
-1.76882e-06
6.05652e-07
-1.8627e-06
6.03346e-07
-1.95319e-06
5.96333e-07
-2.03973e-06
5.84588e-07
-2.12186e-06
5.68142e-07
-2.19914e-06
5.47084e-07
-2.27122e-06
5.21548e-07
-2.33778e-06
4.91708e-07
-2.39856e-06
4.57769e-07
-2.45334e-06
4.19963e-07
-2.50191e-06
3.7854e-07
-2.54411e-06
3.33767e-07
-2.57978e-06
2.85925e-07
-2.6088e-06
2.35305e-07
-2.63103e-06
1.82211e-07
-2.64636e-06
1.26957e-07
-2.65468e-06
6.9869e-08
-2.65589e-06
1.12947e-08
-2.6499e-06
-4.84259e-08
-2.63662e-06
-1.08901e-07
-2.61596e-06
-1.69733e-07
-2.58786e-06
-2.30501e-07
-2.55228e-06
-2.90753e-07
-2.50917e-06
-3.50011e-07
-2.45855e-06
-4.07766e-07
-2.40045e-06
-4.63482e-07
-2.33494e-06
-5.16595e-07
-2.26216e-06
-5.66519e-07
-2.18229e-06
-6.12652e-07
-2.09561e-06
-6.54383e-07
-2.00246e-06
-6.91107e-07
-1.90328e-06
-7.22236e-07
-1.7986e-06
-7.47216e-07
-1.68906e-06
-7.65547e-07
-1.57539e-06
-7.76803e-07
-1.45845e-06
-7.80655e-07
-1.33916e-06
-7.76885e-07
-1.21855e-06
-7.65414e-07
-1.09769e-06
-7.46312e-07
-9.77733e-07
-7.19809e-07
-8.5981e-07
-6.86302e-07
-7.45067e-07
-6.4635e-07
-6.34603e-07
-6.00665e-07
-5.29452e-07
-5.50096e-07
-4.30548e-07
-4.95602e-07
-3.38706e-07
-4.38219e-07
-2.54602e-07
-3.79033e-07
-1.78755e-07
-3.19136e-07
-1.11527e-07
-2.59596e-07
-5.31132e-08
-2.01421e-07
-3.54985e-09
-1.45531e-07
3.72806e-08
-9.27382e-08
6.96378e-08
-4.37253e-08
9.39146e-08
9.53624e-10
1.10612e-07
4.0889e-08
1.20336e-07
7.57792e-08
1.23776e-07
1.05439e-07
1.21689e-07
1.29756e-07
1.1489e-07
1.48659e-07
1.04237e-07
1.62077e-07
9.06291e-08
1.6989e-07
7.50037e-08
1.71884e-07
5.83431e-08
1.67711e-07
4.16906e-08
1.56856e-07
2.61775e-08
1.38611e-07
1.30615e-08
1.12076e-07
3.77554e-09
7.61602e-08
2.95334e-08
1.30949e-10
-1.34445e-08
-6.92561e-10
-2.78476e-08
-3.3295e-09
-3.23774e-08
-8.40859e-09
-2.89697e-08
-1.64057e-08
-1.91703e-08
-2.76959e-08
-4.2671e-09
-4.25903e-08
1.46824e-08
-6.13636e-08
3.68202e-08
-8.42657e-08
6.14584e-08
-1.11532e-07
8.80571e-08
-1.43387e-07
1.16208e-07
-1.80043e-07
1.45618e-07
-2.217e-07
1.76094e-07
-2.68542e-07
2.07516e-07
-3.20728e-07
2.39816e-07
-3.78383e-07
2.72948e-07
-4.41585e-07
3.06858e-07
-5.10352e-07
3.41455e-07
-5.84628e-07
3.76594e-07
-6.64272e-07
4.12055e-07
-7.49045e-07
4.47541e-07
-8.38608e-07
4.82676e-07
-9.32522e-07
5.17016e-07
-1.03025e-06
5.50062e-07
-1.13117e-06
5.81278e-07
-1.23458e-06
6.10115e-07
-1.33973e-06
6.3603e-07
-1.44586e-06
6.58505e-07
-1.55215e-06
6.77071e-07
-1.65782e-06
6.91318e-07
-1.76213e-06
7.00906e-07
-1.86436e-06
7.05575e-07
-1.96385e-06
7.05145e-07
-2.06002e-06
6.99515e-07
-2.15234e-06
6.88656e-07
-2.24036e-06
6.72608e-07
-2.32369e-06
6.51469e-07
-2.40199e-06
6.25382e-07
-2.47497e-06
5.94535e-07
-2.54241e-06
5.59145e-07
-2.60409e-06
5.19451e-07
-2.65984e-06
4.75715e-07
-2.70951e-06
4.28209e-07
-2.75296e-06
3.77216e-07
-2.79006e-06
3.23028e-07
-2.82071e-06
2.65946e-07
-2.84477e-06
2.06277e-07
-2.86215e-06
1.44338e-07
-2.87274e-06
8.04557e-08
-2.87642e-06
1.49724e-08
-2.87308e-06
-5.17601e-08
-2.86262e-06
-1.1936e-07
-2.84493e-06
-1.87429e-07
-2.81989e-06
-2.5554e-07
-2.78741e-06
-3.23235e-07
-2.74739e-06
-3.90025e-07
-2.69977e-06
-4.55384e-07
-2.6445e-06
-5.1875e-07
-2.58157e-06
-5.79527e-07
-2.51101e-06
-6.37084e-07
-2.4329e-06
-6.90764e-07
-2.34739e-06
-7.39889e-07
-2.25472e-06
-7.83774e-07
-2.15522e-06
-8.21736e-07
-2.04932e-06
-8.5312e-07
-1.93756e-06
-8.77311e-07
-1.8206e-06
-8.93761e-07
-1.69923e-06
-9.02019e-07
-1.57437e-06
-9.01746e-07
-1.44704e-06
-8.92751e-07
-1.31834e-06
-8.75004e-07
-1.1895e-06
-8.48658e-07
-1.06174e-06
-8.1406e-07
-9.36337e-07
-7.7175e-07
-8.14544e-07
-7.22458e-07
-6.97557e-07
-6.67083e-07
-5.86485e-07
-6.06673e-07
-4.82318e-07
-5.42386e-07
-3.85899e-07
-4.75452e-07
-2.97905e-07
-4.0713e-07
-2.18833e-07
-3.38667e-07
-1.49e-07
-2.71254e-07
-8.85383e-08
-2.05993e-07
-3.74084e-08
-1.43868e-07
4.59162e-09
-8.57253e-08
3.78074e-08
-3.22622e-08
6.27218e-08
1.59746e-08
7.99244e-08
5.85766e-08
9.01046e-08
9.52586e-08
9.40323e-08
1.25828e-07
9.25444e-08
1.50147e-07
8.65332e-08
1.68089e-07
7.69384e-08
1.79485e-07
6.47444e-08
1.84078e-07
5.09829e-08
1.81473e-07
3.67436e-08
1.71095e-07
2.31919e-08
1.52163e-07
1.15933e-08
1.23675e-07
3.3425e-09
8.4411e-08
3.28759e-08
-5.22957e-10
-1.29215e-08
-3.0841e-09
-2.52864e-08
-8.34405e-09
-2.71175e-08
-1.67613e-08
-2.05524e-08
-2.8677e-08
-7.25462e-09
-4.43666e-08
1.14224e-08
-6.40747e-08
3.43906e-08
-8.80351e-08
6.07806e-08
-1.16478e-07
8.99017e-08
-1.49634e-07
1.21213e-07
-1.87729e-07
1.54302e-07
-2.3098e-07
1.88869e-07
-2.7959e-07
2.24704e-07
-3.33738e-07
2.61663e-07
-3.93567e-07
2.99645e-07
-4.59171e-07
3.38553e-07
-5.30583e-07
3.7827e-07
-6.07756e-07
4.18628e-07
-6.90552e-07
4.5939e-07
-7.7873e-07
5.00233e-07
-8.71943e-07
5.40754e-07
-9.69734e-07
5.80468e-07
-1.07155e-06
6.1883e-07
-1.17673e-06
6.55248e-07
-1.28457e-06
6.89115e-07
-1.39428e-06
7.19828e-07
-1.50507e-06
7.46811e-07
-1.6161e-06
7.69543e-07
-1.7266e-06
7.87567e-07
-1.83579e-06
8.00511e-07
-1.94297e-06
8.08086e-07
-2.04749e-06
8.10096e-07
-2.14878e-06
8.06429e-07
-2.24632e-06
7.97055e-07
-2.33968e-06
7.82018e-07
-2.42849e-06
7.6142e-07
-2.51244e-06
7.35418e-07
-2.59126e-06
7.04208e-07
-2.66475e-06
6.68018e-07
-2.7327e-06
6.271e-07
-2.79498e-06
5.81724e-07
-2.85143e-06
5.32171e-07
-2.90195e-06
4.7873e-07
-2.94643e-06
4.21696e-07
-2.98478e-06
3.6137e-07
-3.01688e-06
2.98054e-07
-3.04267e-06
2.32058e-07
-3.06202e-06
1.63697e-07
-3.07486e-06
9.32925e-08
-3.08107e-06
2.11804e-08
-3.08054e-06
-5.22899e-08
-3.07315e-06
-1.26749e-07
-3.05877e-06
-2.01806e-07
-3.03727e-06
-2.77041e-07
-3.0085e-06
-3.52002e-07
-2.97233e-06
-4.262e-07
-2.92861e-06
-4.99105e-07
-2.87722e-06
-5.70144e-07
-2.81804e-06
-6.38701e-07
-2.75101e-06
-7.04115e-07
-2.67609e-06
-7.65685e-07
-2.5933e-06
-8.22676e-07
-2.50275e-06
-8.74328e-07
-2.40461e-06
-9.19869e-07
-2.2992e-06
-9.58537e-07
-2.18691e-06
-9.89594e-07
-2.06831e-06
-1.01236e-06
-1.94409e-06
-1.02624e-06
-1.8151e-06
-1.03074e-06
-1.68231e-06
-1.02554e-06
-1.54686e-06
-1.01046e-06
-1.40998e-06
-9.85534e-07
-1.27301e-06
-9.51025e-07
-1.13735e-06
-9.07415e-07
-1.00439e-06
-8.55414e-07
-8.75529e-07
-7.95949e-07
-7.52066e-07
-7.30137e-07
-6.35202e-07
-6.5925e-07
-5.25987e-07
-5.84667e-07
-4.25288e-07
-5.07828e-07
-3.33777e-07
-4.30178e-07
-2.51916e-07
-3.53115e-07
-1.79957e-07
-2.77952e-07
-1.17952e-07
-2.05873e-07
-6.57668e-08
-1.37911e-07
-2.30949e-08