/*--------------------------------*- C++ -*----------------------------------*\
  =========                 |
  \\      /  F ield         | OpenFOAM: The Open Source CFD Toolbox
   \\    /   O peration     | Website:  https://openfoam.org
    \\  /    A nd           | Version:  9
     \\/     M anipulation  |
\*---------------------------------------------------------------------------*/
FoamFile
{
    format      ascii;
    class       volVectorField;
    location    "2.75";
    object      U;
}
// * * * * * * * * * * * * * * * * * * * * * * * * * * * * * * * * * * * * * //

dimensions      [0 1 -1 0 0 0 0];

internalField   nonuniform List<vector> 
10000
(
(-7.24115e-06 7.19194e-06 0)
(3.17957e-05 -2.19387e-05 0)
(0.000153862 -4.76878e-05 0)
(0.000321889 -6.17585e-05 0)
(0.000512029 -6.66577e-05 0)
(0.000705022 -6.52988e-05 0)
(0.000886451 -5.99263e-05 0)
(0.00104658 -5.21904e-05 0)
(0.0011794 -4.32605e-05 0)
(0.00128161 -3.39466e-05 0)
(0.00135189 -2.47854e-05 0)
(0.0013903 -1.61033e-05 0)
(0.00139768 -8.08051e-06 0)
(0.00137527 -7.15774e-07 0)
(0.00132431 6.06729e-06 0)
(0.00124578 1.24224e-05 0)
(0.00114018 1.85524e-05 0)
(0.00100747 2.46816e-05 0)
(0.000846999 3.10346e-05 0)
(0.00065751 3.78201e-05 0)
(0.000437245 4.52159e-05 0)
(0.000184035 5.3362e-05 0)
(-0.000104573 6.23578e-05 0)
(-0.000431174 7.22627e-05 0)
(-0.000798373 8.3098e-05 0)
(-0.00120865 9.48505e-05 0)
(-0.00166427 0.000107476 0)
(-0.0021671 0.000120901 0)
(-0.00271858 0.00013502 0)
(-0.00331958 0.000149702 0)
(-0.00397031 0.000164783 0)
(-0.00467021 0.000180067 0)
(-0.00541788 0.000195324 0)
(-0.00621096 0.000210292 0)
(-0.00704611 0.000224673 0)
(-0.0079189 0.000238143 0)
(-0.00882377 0.000250346 0)
(-0.00975401 0.000260908 0)
(-0.0107018 0.000269436 0)
(-0.0116581 0.000275532 0)
(-0.012613 0.000278797 0)
(-0.0135555 0.000278845 0)
(-0.0144735 0.000275311 0)
(-0.0153546 0.000267867 0)
(-0.0161856 0.000256228 0)
(-0.0169529 0.000240173 0)
(-0.017643 0.00021955 0)
(-0.0182423 0.000194295 0)
(-0.0187377 0.000164454 0)
(-0.0191168 0.000130227 0)
(-0.0193684 9.19362e-05 0)
(-0.0194827 4.98962e-05 0)
(-0.0194506 4.66436e-06 0)
(-0.0192651 -4.35442e-05 0)
(-0.0189227 -9.36297e-05 0)
(-0.0184214 -0.000144638 0)
(-0.0177621 -0.000195591 0)
(-0.0169484 -0.000245426 0)
(-0.0159874 -0.000293016 0)
(-0.0148887 -0.000337208 0)
(-0.0136654 -0.000376862 0)
(-0.0123332 -0.000410898 0)
(-0.0109106 -0.000438335 0)
(-0.00941834 -0.000458343 0)
(-0.00787915 -0.000470283 0)
(-0.00631704 -0.000473745 0)
(-0.00475674 -0.000468579 0)
(-0.00322305 -0.000454912 0)
(-0.00174011 -0.000433155 0)
(-0.000330636 -0.000404013 0)
(0.000984554 -0.000368463 0)
(0.00218739 -0.000327517 0)
(0.00326311 -0.000282574 0)
(0.00420032 -0.000234983 0)
(0.0049915 -0.000186234 0)
(0.00563312 -0.000137671 0)
(0.00612535 -9.05791e-05 0)
(0.00647195 -4.61002e-05 0)
(0.00667985 -5.17104e-06 0)
(0.0067587 3.14951e-05 0)
(0.00672028 6.34168e-05 0)
(0.00657788 9.03526e-05 0)
(0.00634569 0.000112276 0)
(0.0060382 0.00012935 0)
(0.00566968 0.000141905 0)
(0.00525369 0.000150395 0)
(0.00480275 0.000155364 0)
(0.00432802 0.000157395 0)
(0.00383926 0.000157069 0)
(0.00334479 0.000154907 0)
(0.00285178 0.000151304 0)
(0.0023666 0.000146443 0)
(0.00189555 0.000140184 0)
(0.00144576 0.000131934 0)
(0.00102647 0.000120478 0)
(0.000650484 0.000103862 0)
(0.000335233 7.9553e-05 0)
(0.00010201 4.53379e-05 0)
(-2.51346e-05 2.72402e-06 0)
(-2.9506e-05 -2.97442e-05 0)
(2.18218e-05 -3.16584e-05 0)
(0.000165812 -0.00016578 0)
(0.000466596 -0.000273595 0)
(0.000853525 -0.000335513 0)
(0.00127968 -0.000357415 0)
(0.00170737 -0.000348511 0)
(0.00210551 -0.000317441 0)
(0.00245089 -0.000271499 0)
(0.00272759 -0.000216459 0)
(0.00292557 -0.000156684 0)
(0.00303931 -9.53075e-05 0)
(0.00306649 -3.43961e-05 0)
(0.00300699 2.49305e-05 0)
(0.00286178 8.22192e-05 0)
(0.00263203 0.000137668 0)
(0.00231859 0.000191918 0)
(0.00192145 0.0002459 0)
(0.00143949 0.000300689 0)
(0.000870361 0.00035738 0)
(0.000210533 0.000416987 0)
(-0.000544545 0.000480351 0)
(-0.00140017 0.000548097 0)
(-0.00236209 0.000620597 0)
(-0.0034361 0.000697967 0)
(-0.00462776 0.000780068 0)
(-0.00594199 0.000866516 0)
(-0.00738273 0.000956703 0)
(-0.00895268 0.00104981 0)
(-0.010653 0.0011448 0)
(-0.0124828 0.00124045 0)
(-0.0144396 0.00133536 0)
(-0.016518 0.00142793 0)
(-0.0187105 0.00151641 0)
(-0.021007 0.0015989 0)
(-0.0233943 0.00167336 0)
(-0.0258568 0.00173769 0)
(-0.0283758 0.0017897 0)
(-0.03093 0.00182724 0)
(-0.0334957 0.00184817 0)
(-0.0360465 0.00185045 0)
(-0.0385543 0.0018322 0)
(-0.0409891 0.00179176 0)
(-0.0433197 0.00172771 0)
(-0.0455138 0.00163898 0)
(-0.0475392 0.00152484 0)
(-0.0493636 0.00138501 0)
(-0.0509555 0.00121965 0)
(-0.0522851 0.00102942 0)
(-0.0533242 0.000815528 0)
(-0.0540475 0.000579798 0)
(-0.0544332 0.000324405 0)
(-0.054463 5.16121e-05 0)
(-0.0541223 -0.000233245 0)
(-0.0534007 -0.000527705 0)
(-0.0522949 -0.000827184 0)
(-0.0508064 -0.0011267 0)
(-0.0489427 -0.00142104 0)
(-0.0467172 -0.00170475 0)
(-0.0441495 -0.00197224 0)
(-0.0412655 -0.00221797 0)
(-0.0380968 -0.00243654 0)
(-0.034681 -0.00262293 0)
(-0.0310604 -0.00277263 0)
(-0.0272819 -0.00288184 0)
(-0.0233962 -0.00294765 0)
(-0.0194563 -0.00296817 0)
(-0.0155167 -0.00294267 0)
(-0.0116324 -0.00287167 0)
(-0.00785703 -0.00275695 0)
(-0.00424186 -0.00260161 0)
(-0.000834447 -0.00240994 0)
(0.00232259 -0.0021871 0)
(0.00519289 -0.00193921 0)
(0.00774694 -0.00167279 0)
(0.00996298 -0.00139542 0)
(0.0118276 -0.00111391 0)
(0.0133353 -0.000835101 0)
(0.0144886 -0.000565365 0)
(0.0152977 -0.00031029 0)
(0.0157793 -7.45172e-05 0)
(0.0159559 0.000138365 0)
(0.0158546 0.000325891 0)
(0.0155057 0.000486758 0)
(0.0149416 0.000620673 0)
(0.0141954 0.000728317 0)
(0.0132997 0.000811169 0)
(0.012286 0.000871309 0)
(0.0111836 0.000911186 0)
(0.0100194 0.000933348 0)
(0.00881759 0.00094013 0)
(0.00760034 0.000933291 0)
(0.00638831 0.000913606 0)
(0.00520201 0.000880414 0)
(0.00406347 0.000831176 0)
(0.00299817 0.000761142 0)
(0.002037 0.000663466 0)
(0.00121664 0.000530567 0)
(0.000576432 0.000357867 0)
(0.000157363 0.000153758 0)
(4.21238e-06 -2.49058e-05 0)
(4.78902e-05 -0.000153702 0)
(0.000275058 -0.00046684 0)
(0.00070138 -0.000698711 0)
(0.00122676 -0.000831224 0)
(0.00178959 -0.000874331 0)
(0.0023424 -0.000844859 0)
(0.0028447 -0.000760363 0)
(0.0032649 -0.000636784 0)
(0.00358014 -0.000487469 0)
(0.00377491 -0.000322963 0)
(0.00383951 -0.000151115 0)
(0.0037686 2.27024e-05 0)
(0.00355969 0.000195344 0)
(0.0032119 0.000365425 0)
(0.00272495 0.000533124 0)
(0.00209817 0.000699747 0)
(0.00132998 0.000867342 0)
(0.000417456 0.00103835 0)
(-0.000643746 0.00121525 0)
(-0.00185932 0.00140032 0)
(-0.00323606 0.0015954 0)
(-0.00478143 0.00180172 0)
(-0.0065031 0.00201985 0)
(-0.0084084 0.00224964 0)
(-0.0105038 0.00249023 0)
(-0.0127942 0.00274007 0)
(-0.0152828 0.00299695 0)
(-0.0179702 0.00325808 0)
(-0.0208541 0.00352007 0)
(-0.0239291 0.00377905 0)
(-0.0271862 0.00403064 0)
(-0.0306126 0.00427004 0)
(-0.0341914 0.00449212 0)
(-0.0379018 0.00469145 0)
(-0.0417187 0.00486245 0)
(-0.0456132 0.00499947 0)
(-0.0495526 0.00509694 0)
(-0.0535007 0.0051495 0)
(-0.0574183 0.00515212 0)
(-0.0612637 0.00510028 0)
(-0.0649933 0.00499006 0)
(-0.0685622 0.00481832 0)
(-0.071925 0.00458276 0)
(-0.0750365 0.00428209 0)
(-0.0778523 0.00391605 0)
(-0.0803299 0.00348549 0)
(-0.0824289 0.00299247 0)
(-0.0841124 0.00244024 0)
(-0.085347 0.00183328 0)
(-0.0861042 0.00117735 0)
(-0.086361 0.000479235 0)
(-0.0860975 -0.000254092 0)
(-0.0853011 -0.00101095 0)
(-0.0839672 -0.00178246 0)
(-0.0820964 -0.00255797 0)
(-0.0796966 -0.00332572 0)
(-0.076783 -0.00407342 0)
(-0.0733779 -0.00478847 0)
(-0.069511 -0.00545819 0)
(-0.0652192 -0.00607008 0)
(-0.0605461 -0.0066122 0)
(-0.0555417 -0.00707342 0)
(-0.0502622 -0.00744383 0)
(-0.0447686 -0.00771507 0)
(-0.0391262 -0.00788068 0)
(-0.0334037 -0.00793639 0)
(-0.0276715 -0.00788043 0)
(-0.0220007 -0.00771368 0)
(-0.0164618 -0.00743979 0)
(-0.0111226 -0.00706518 0)
(-0.00604716 -0.00659899 0)
(-0.00129424 -0.00605278 0)
(0.0030846 -0.00544 0)
(0.00704487 -0.00477503 0)
(0.0105519 -0.00407569 0)
(0.0135815 -0.00335789 0)
(0.0161187 -0.0026381 0)
(0.0181593 -0.00193219 0)
(0.0197092 -0.00125452 0)
(0.0207839 -0.000617627 0)
(0.0214071 -3.17815e-05 0)
(0.0216102 0.000495221 0)
(0.0214301 0.000958271 0)
(0.0209081 0.00135475 0)
(0.020088 0.0016845 0)
(0.0190149 0.00194947 0)
(0.0177335 0.00215328 0)
(0.0162868 0.00230071 0)
(0.0147161 0.00239702 0)
(0.0130597 0.00244717 0)
(0.0113536 0.00245497 0)
(0.00963243 0.00242215 0)
(0.0079302 0.00234738 0)
(0.00628236 0.00222557 0)
(0.00472765 0.00204753 0)
(0.00330984 0.0018009 0)
(0.00207739 0.00147338 0)
(0.00107934 0.00105984 0)
(0.000372374 0.00057695 0)
(4.99315e-05 0.000107513 0)
(6.29101e-05 -0.000323221 0)
(0.000340496 -0.000856564 0)
(0.000840354 -0.00122552 0)
(0.00143673 -0.0014266 0)
(0.00205659 -0.001479 0)
(0.0026462 -0.0014092 0)
(0.00315964 -0.00124469 0)
(0.00356037 -0.00101089 0)
(0.00382111 -0.000729534 0)
(0.00392236 -0.000418194 0)
(0.00385089 -9.01903e-05 0)
(0.0035982 0.000245167 0)
(0.00315902 0.000582169 0)
(0.00252993 0.000918293 0)
(0.0017082 0.00125354 0)
(0.000690878 0.00158984 0)
(-0.000525919 0.00193039 0)
(-0.00194731 0.00227905 0)
(-0.00357977 0.00263971 0)
(-0.00543092 0.00301585 0)
(-0.00750918 0.0034101 0)
(-0.00982318 0.00382396 0)
(-0.0123811 0.00425769 0)
(-0.0151902 0.00471017 0)
(-0.0182555 0.00517894 0)
(-0.0215798 0.00566023 0)
(-0.0251627 0.00614905 0)
(-0.0289998 0.00663928 0)
(-0.0330826 0.00712378 0)
(-0.037398 0.00759451 0)
(-0.0419277 0.00804266 0)
(-0.0466486 0.0084588 0)
(-0.051532 0.00883306 0)
(-0.0565447 0.00915531 0)
(-0.0616482 0.00941545 0)
(-0.0667998 0.00960357 0)
(-0.0719532 0.00971027 0)
(-0.0770584 0.00972688 0)
(-0.0820634 0.00964569 0)
(-0.0869144 0.00946025 0)
(-0.0915568 0.00916547 0)
(-0.0959362 0.00875785 0)
(-0.0999993 0.00823561 0)
(-0.103695 0.00759879 0)
(-0.106973 0.00684927 0)
(-0.10979 0.00599087 0)
(-0.112103 0.00502929 0)
(-0.113877 0.00397214 0)
(-0.115078 0.00282877 0)
(-0.115683 0.00161011 0)
(-0.115672 0.000329198 0)
(-0.115029 -0.000996963 0)
(-0.113747 -0.00235555 0)
(-0.111829 -0.00372882 0)
(-0.109279 -0.00509838 0)
(-0.106112 -0.00644507 0)
(-0.102349 -0.00774912 0)
(-0.0980189 -0.00899042 0)
(-0.0931562 -0.0101489 0)
(-0.0878036 -0.011205 0)
(-0.0820104 -0.0121399 0)
(-0.0758321 -0.0129361 0)
(-0.0693303 -0.013578 0)
(-0.062572 -0.0140524 0)
(-0.0556286 -0.0143488 0)
(-0.0485754 -0.0144603 0)
(-0.04149 -0.0143833 0)
(-0.0344515 -0.0141187 0)
(-0.0275388 -0.0136713 0)
(-0.0208294 -0.0130507 0)
(-0.0143975 -0.0122704 0)
(-0.00831253 -0.0113478 0)
(-0.0026368 -0.0103042 0)
(0.00257241 -0.00916349 0)
(0.0072687 -0.00795173 0)
(0.0114176 -0.00669634 0)
(0.0149927 -0.00542486 0)
(0.01798 -0.00416438 0)
(0.020377 -0.00294005 0)
(0.0221924 -0.00177453 0)
(0.0234453 -0.000687266 0)
(0.0241644 0.000306166 0)
(0.0243865 0.00119424 0)
(0.0241548 0.0019699 0)
(0.0235176 0.0026301 0)
(0.0225264 0.00317556 0)
(0.021234 0.00361012 0)
(0.0196933 0.00393993 0)
(0.0179562 0.00417234 0)
(0.0160728 0.00431463 0)
(0.0140913 0.00437261 0)
(0.0120584 0.00434905 0)
(0.0100203 0.0042423 0)
(0.00802414 0.00404521 0)
(0.00611962 0.00374487 0)
(0.00436077 0.00332417 0)
(0.00280551 0.00276621 0)
(0.00151216 0.00206313 0)
(0.000557118 0.00123188 0)
(8.80491e-05 0.00035409 0)
(6.93339e-05 -0.000517503 0)
(0.00036719 -0.0012891 0)
(0.000890598 -0.00179262 0)
(0.00149642 -0.00204779 0)
(0.00210319 -0.00208812 0)
(0.00265285 -0.00195211 0)
(0.00309633 -0.00167811 0)
(0.00339438 -0.00130126 0)
(0.00351705 -0.000851795 0)
(0.0034421 -0.000354375 0)
(0.0031535 0.000172111 0)
(0.00263985 0.000714308 0)
(0.00189298 0.00126393 0)
(0.000906576 0.00181711 0)
(-0.000324937 0.0023736 0)
(-0.00180729 0.00293585 0)
(-0.00354693 0.00350808 0)
(-0.00555134 0.00409534 0)
(-0.00782893 0.00470264 0)
(-0.0103888 0.00533421 0)
(-0.0132401 0.0059929 0)
(-0.0163915 0.00667977 0)
(-0.0198502 0.00739385 0)
(-0.023621 0.008132 0)
(-0.0277059 0.00888896 0)
(-0.0321026 0.00965744 0)
(-0.0368044 0.0104283 0)
(-0.0417995 0.0111906 0)
(-0.0470702 0.011932 0)
(-0.052593 0.0126391 0)
(-0.0583382 0.0132973 0)
(-0.0642703 0.0138915 0)
(-0.0703478 0.0144064 0)
(-0.0765242 0.0148266 0)
(-0.0827482 0.0151374 0)
(-0.0889645 0.0153249 0)
(-0.095115 0.0153764 0)
(-0.10114 0.0152809 0)
(-0.106978 0.0150294 0)
(-0.112568 0.0146149 0)
(-0.11785 0.0140329 0)
(-0.122767 0.0132815 0)
(-0.127263 0.0123612 0)
(-0.131288 0.0112754 0)
(-0.134795 0.0100297 0)
(-0.137741 0.00863264 0)
(-0.140089 0.00709485 0)
(-0.141808 0.00542945 0)
(-0.142872 0.00365163 0)
(-0.143261 0.00177841 0)
(-0.142959 -0.00017074 0)
(-0.141961 -0.00217244 0)
(-0.140264 -0.00420747 0)
(-0.137873 -0.00625117 0)
(-0.134798 -0.00827825 0)
(-0.131057 -0.0102626 0)
(-0.126672 -0.0121777 0)
(-0.121674 -0.0139964 0)
(-0.1161 -0.0156918 0)
(-0.109993 -0.0172376 0)
(-0.103402 -0.0186086 0)
(-0.096383 -0.0197811 0)
(-0.0889982 -0.0207339 0)
(-0.0813147 -0.0214485 0)
(-0.0734051 -0.0219102 0)
(-0.0653461 -0.0221086 0)
(-0.0572179 -0.0220379 0)
(-0.0491028 -0.0216978 0)
(-0.0410843 -0.0210936 0)
(-0.0332454 -0.0202365 0)
(-0.0256672 -0.0191436 0)
(-0.0184271 -0.0178374 0)
(-0.011597 -0.0163456 0)
(-0.005243 -0.0147011 0)
(0.0005778 -0.012938 0)
(0.00581877 -0.0110948 0)
(0.0104428 -0.00921032 0)
(0.0144247 -0.00732366 0)
(0.0177517 -0.0054716 0)
(0.0204227 -0.00368835 0)
(0.0224486 -0.00200421 0)
(0.0238514 -0.000444565 0)
(0.024663 0.000970604 0)
(0.0249242 0.00222735 0)
(0.0246827 0.00331757 0)
(0.0239916 0.00423854 0)
(0.0229077 0.00499237 0)
(0.0214898 0.0055849 0)
(0.0197972 0.00602425 0)
(0.017889 0.00631904 0)
(0.0158231 0.00647648 0)
(0.0136567 0.00650028 0)
(0.0114464 0.00638869 0)
(0.00924944 0.00613312 0)
(0.00712525 0.00571776 0)
(0.00513702 0.00512119 0)
(0.0033519 0.00432102 0)
(0.00183867 0.00330247 0)
(0.000694263 0.00207231 0)
(0.000114936 0.000689057 0)
(6.97358e-05 -0.000717718 0)
(0.000362332 -0.00172577 0)
(0.000863607 -0.00234933 0)
(0.00142251 -0.00263552 0)
(0.00195265 -0.00263577 0)
(0.00239339 -0.00240266 0)
(0.00269421 -0.00198624 0)
(0.00281467 -0.00143155 0)
(0.00272344 -0.000777131 0)
(0.00239651 -5.4456e-05 0)
(0.00181566 0.00071229 0)
(0.000966956 0.00150592 0)
(-0.000160597 0.00231568 0)
(-0.00157627 0.00313644 0)
(-0.00328861 0.00396762 0)
(-0.00530622 0.00481205 0)
(-0.00763811 0.00567467 0)
(-0.0102939 0.00656132 0)
(-0.0132834 0.00747751 0)
(-0.0166164 0.00842748 0)
(-0.0203018 0.00941338 0)
(-0.0243467 0.0104347 0)
(-0.0287552 0.011488 0)
(-0.0335281 0.0125668 0)
(-0.0386613 0.0136616 0)
(-0.0441454 0.0147601 0)
(-0.0499649 0.0158474 0)
(-0.0560978 0.0169065 0)
(-0.0625151 0.0179188 0)
(-0.0691812 0.018864 0)
(-0.0760536 0.0197214 0)
(-0.083084 0.0204697 0)
(-0.0902182 0.0210881 0)
(-0.0973977 0.0215565 0)
(-0.10456 0.0218563 0)
(-0.111641 0.0219708 0)
(-0.118575 0.0218856 0)
(-0.125296 0.0215893 0)
(-0.131739 0.0210732 0)
(-0.137841 0.0203323 0)
(-0.143545 0.0193644 0)
(-0.148793 0.0181713 0)
(-0.153535 0.0167575 0)
(-0.157726 0.015131 0)
(-0.161323 0.0133027 0)
(-0.164293 0.0112863 0)
(-0.166603 0.00909828 0)
(-0.168231 0.00675725 0)
(-0.169155 0.00428428 0)
(-0.169362 0.00170255 0)
(-0.168842 -0.000962941 0)
(-0.167592 -0.00368663 0)
(-0.165613 -0.00643918 0)
(-0.16291 -0.00919099 0)
(-0.159496 -0.0119113 0)
(-0.155387 -0.014568 0)
(-0.150606 -0.0171286 0)
(-0.14518 -0.0195598 0)
(-0.139144 -0.0218286 0)
(-0.132537 -0.0239023 0)
(-0.125406 -0.0257494 0)
(-0.117803 -0.0273401 0)
(-0.109788 -0.0286473 0)
(-0.101424 -0.0296469 0)
(-0.092783 -0.0303193 0)
(-0.0839405 -0.0306496 0)
(-0.0749767 -0.0306289 0)
(-0.0659754 -0.0302545 0)
(-0.0570226 -0.0295309 0)
(-0.0482055 -0.0284698 0)
(-0.0396106 -0.0270903 0)
(-0.0313221 -0.0254189 0)
(-0.0234203 -0.0234887 0)
(-0.01598 -0.0213392 0)
(-0.0090684 -0.0190141 0)
(-0.00274318 -0.0165613 0)
(0.00294708 -0.014031 0)
(0.00796587 -0.0114736 0)
(0.0122895 -0.00893848 0)
(0.0159058 -0.00647221 0)
(0.0188158 -0.00411709 0)
(0.0210325 -0.00190983 0)
(0.0225807 0.000119497 0)
(0.0234953 0.00194786 0)
(0.0238206 0.00355998 0)
(0.0236078 0.0049475 0)
(0.0229144 0.00610868 0)
(0.0218018 0.00704705 0)
(0.0203338 0.00776977 0)
(0.0185757 0.00828547 0)
(0.0165929 0.0086018 0)
(0.0144509 0.00872288 0)
(0.0122152 0.00864681 0)
(0.00995211 0.00836382 0)
(0.00772963 0.00785549 0)
(0.00561986 0.00709596 0)
(0.00369933 0.0060558 0)
(0.00204783 0.00470916 0)
(0.000780737 0.0030445 0)
(0.000130988 0.00108466 0)
(6.57966e-05 -0.000908554 0)
(0.000331655 -0.00213136 0)
(0.000769871 -0.00284761 0)
(0.00123033 -0.0031331 0)
(0.00162556 -0.00305919 0)
(0.00189433 -0.00269384 0)
(0.0019862 -0.00209924 0)
(0.00186082 -0.00133027 0)
(0.00148648 -0.000433366 0)
(0.00083815 0.000553732 0)
(-0.000104081 0.00160205 0)
(-0.00135636 0.00269098 0)
(-0.00293229 0.00380758 0)
(-0.00484399 0.00494557 0)
(-0.00710287 0.006104 0)
(-0.00972017 0.00728581 0)
(-0.0127071 0.00849624 0)
(-0.0160749 0.00974121 0)
(-0.019834 0.0110259 0)
(-0.0239937 0.0123534 0)
(-0.028561 0.013724 0)
(-0.0335396 0.0151342 0)
(-0.0389289 0.0165765 0)
(-0.0447229 0.0180394 0)
(-0.0509096 0.0195077 0)
(-0.0574698 0.0209626 0)
(-0.0643771 0.0223821 0)
(-0.0715977 0.0237422 0)
(-0.0790899 0.0250168 0)
(-0.0868054 0.0261788 0)
(-0.0946892 0.0272011 0)
(-0.102681 0.0280567 0)
(-0.110716 0.0287204 0)
(-0.118726 0.0291686 0)
(-0.126643 0.0293807 0)
(-0.134397 0.029339 0)
(-0.141918 0.0290299 0)
(-0.149141 0.0284434 0)
(-0.156004 0.0275739 0)
(-0.162447 0.0264199 0)
(-0.168416 0.0249837 0)
(-0.173862 0.0232718 0)
(-0.178743 0.0212941 0)
(-0.183019 0.0190639 0)
(-0.186657 0.0165974 0)
(-0.189629 0.0139138 0)
(-0.191912 0.0110345 0)
(-0.193488 0.00798325 0)
(-0.194341 0.00478585 0)
(-0.194461 0.00147015 0)
(-0.193841 -0.00193438 0)
(-0.192478 -0.00539743 0)
(-0.190375 -0.00888545 0)
(-0.187535 -0.0123642 0)
(-0.183968 -0.0157981 0)
(-0.179687 -0.0191502 0)
(-0.17471 -0.0223826 0)
(-0.16906 -0.0254566 0)
(-0.162767 -0.0283335 0)
(-0.155864 -0.0309744 0)
(-0.148392 -0.0333417 0)
(-0.140399 -0.0353991 0)
(-0.131937 -0.037113 0)
(-0.123069 -0.0384533 0)
(-0.11386 -0.0393942 0)
(-0.104384 -0.0399155 0)
(-0.0947217 -0.0400037 0)
(-0.084956 -0.0396524 0)
(-0.0751754 -0.0388638 0)
(-0.0654708 -0.0376487 0)
(-0.0559336 -0.0360268 0)
(-0.0466549 -0.034027 0)
(-0.037723 -0.0316868 0)
(-0.0292217 -0.0290515 0)
(-0.0212284 -0.0261728 0)
(-0.0138119 -0.0231081 0)
(-0.00703173 -0.0199182 0)
(-0.000935974 -0.0166648 0)
(0.00443977 -0.0134102 0)
(0.0090725 -0.0102137 0)
(0.0129525 -0.00713048 0)
(0.0160833 -0.00420956 0)
(0.0184808 -0.00149269 0)
(0.0201731 0.000986652 0)
(0.0211987 0.00320364 0)
(0.0216053 0.00514265 0)
(0.0214485 0.00679599 0)
(0.0207899 0.00816286 0)
(0.0196954 0.00924757 0)
(0.0182342 0.0100571 0)
(0.0164772 0.0105984 0)
(0.0144962 0.0108752 0)
(0.0123643 0.0108847 0)
(0.0101554 0.0106161 0)
(0.00794577 0.010048 0)
(0.00581583 0.00914963 0)
(0.00385137 0.00788308 0)
(0.00214267 0.0062084 0)
(0.000819548 0.00409112 0)
(0.000137637 0.00151335 0)
(5.84877e-05 -0.00107763 0)
(0.000279073 -0.00247483 0)
(0.000617387 -0.0032435 0)
(0.000932156 -0.00348791 0)
(0.0011387 -0.0033 0)
(0.00117735 -0.00276347 0)
(0.000999399 -0.00195258 0)
(0.000565754 -0.000931584 0)
(-0.000154827 0.00024588 0)
(-0.00118784 0.00153655 0)
(-0.00255445 0.00290733 0)
(-0.0042727 0.00433474 0)
(-0.00635856 0.00580398 0)
(-0.00882673 0.00730774 0)
(-0.0116911 0.00884458 0)
(-0.0149652 0.0104172 0)
(-0.0186617 0.0120303 0)
(-0.0227924 0.0136892 0)
(-0.0273674 0.0153975 0)
(-0.0323937 0.0171557 0)
(-0.0378749 0.0189606 0)
(-0.0438093 0.0208041 0)
(-0.0501892 0.022673 0)
(-0.0570001 0.0245493 0)
(-0.0642196 0.0264103 0)
(-0.0718172 0.0282295 0)
(-0.0797543 0.0299771 0)
(-0.0879841 0.031621 0)
(-0.0964527 0.033128 0)
(-0.1051 0.0344645 0)
(-0.113859 0.0355978 0)
(-0.122661 0.036497 0)
(-0.131434 0.0371338 0)
(-0.140105 0.0374836 0)
(-0.148603 0.037526 0)
(-0.156858 0.0372451 0)
(-0.164803 0.0366299 0)
(-0.172377 0.0356745 0)
(-0.179523 0.034378 0)
(-0.18619 0.0327438 0)
(-0.192332 0.0307799 0)
(-0.197908 0.0284982 0)
(-0.202883 0.025914 0)
(-0.207228 0.0230456 0)
(-0.210916 0.0199143 0)
(-0.213926 0.0165435 0)
(-0.216239 0.0129588 0)
(-0.217842 0.00918756 0)
(-0.218721 0.00525918 0)
(-0.218868 0.00120472 0)
(-0.218277 -0.00294305 0)
(-0.216943 -0.00715034 0)
(-0.214865 -0.0113808 0)
(-0.212044 -0.0155966 0)
(-0.208486 -0.0197584 0)
(-0.204198 -0.0238251 0)
(-0.199193 -0.0277543 0)
(-0.193486 -0.0315023 0)
(-0.1871 -0.0350248 0)
(-0.180062 -0.0382771 0)
(-0.172406 -0.041215 0)
(-0.164171 -0.0437956 0)
(-0.155406 -0.0459781 0)
(-0.146165 -0.0477253 0)
(-0.13651 -0.0490043 0)
(-0.126513 -0.0497883 0)
(-0.116251 -0.0500577 0)
(-0.105807 -0.0498009 0)
(-0.0952709 -0.0490159 0)
(-0.0847376 -0.047711 0)
(-0.0743035 -0.0459051 0)
(-0.0640664 -0.0436279 0)
(-0.054123 -0.0409199 0)
(-0.0445668 -0.0378313 0)
(-0.0354859 -0.0344209 0)
(-0.0269608 -0.0307547 0)
(-0.0190627 -0.0269038 0)
(-0.0118515 -0.022942 0)
(-0.005375 -0.0189439 0)
(0.000332577 -0.0149822 0)
(0.0052507 -0.0111255 0)
(0.00937285 -0.00743625 0)
(0.0127062 -0.00396897 0)
(0.0152707 -0.000768981 0)
(0.0170987 0.00212812 0)
(0.0182334 0.00469736 0)
(0.0187271 0.0069233 0)
(0.0186399 0.00879893 0)
(0.0180382 0.0103239 0)
(0.0169934 0.0115021 0)
(0.0155798 0.012338 0)
(0.0138746 0.0128338 0)
(0.0119566 0.0129856 0)
(0.00990661 0.0127803 0)
(0.00780822 0.0121935 0)
(0.00574977 0.0111888 0)
(0.00382543 0.00971888 0)
(0.00213455 0.00772824 0)
(0.000816663 0.00515814 0)
(0.000136555 0.00195057 0)
(4.82656e-05 -0.00121433 0)
(0.000206895 -0.00272849 0)
(0.000411576 -0.00349693 0)
(0.000537011 -0.00365153 0)
(0.000505065 -0.00330438 0)
(0.000259991 -0.00255443 0)
(-0.0002436 -0.00148732 0)
(-0.00104241 -0.000175601 0)
(-0.00216641 0.00132081 0)
(-0.00364112 0.00295405 0)
(-0.00548861 0.00468769 0)
(-0.00772852 0.00649596 0)
(-0.0103789 0.00836254 0)
(-0.0134565 0.0102791 0)
(-0.0169774 0.0122435 0)
(-0.0209563 0.0142575 0)
(-0.0254066 0.0163246 0)
(-0.0303394 0.0184481 0)
(-0.0357628 0.0206285 0)
(-0.04168 0.0228624 0)
(-0.0480891 0.0251411 0)
(-0.054981 0.0274501 0)
(-0.062339 0.0297689 0)
(-0.0701381 0.0320713 0)
(-0.0783441 0.0343263 0)
(-0.0869143 0.0364986 0)
(-0.0957973 0.0385501 0)
(-0.104934 0.0404414 0)
(-0.11426 0.0421327 0)
(-0.123704 0.043585 0)
(-0.133193 0.0447622 0)
(-0.142652 0.0456313 0)
(-0.152006 0.0461638 0)
(-0.161181 0.0463364 0)
(-0.170109 0.0461316 0)
(-0.178724 0.0455373 0)
(-0.186966 0.0445477 0)
(-0.194781 0.0431622 0)
(-0.202121 0.0413855 0)
(-0.208943 0.039227 0)
(-0.215211 0.0367003 0)
(-0.220892 0.0338224 0)
(-0.225961 0.0306134 0)
(-0.230392 0.027096 0)
(-0.234167 0.0232949 0)
(-0.237268 0.0192369 0)
(-0.239681 0.0149503 0)
(-0.241392 0.010465 0)
(-0.242391 0.00581248 0)
(-0.242668 0.00102572 0)
(-0.242215 -0.00386044 0)
(-0.241026 -0.00881003 0)
(-0.239095 -0.0137846 0)
(-0.23642 -0.0187438 0)
(-0.233 -0.0236454 0)
(-0.228837 -0.0284449 0)
(-0.223936 -0.033096 0)
(-0.218307 -0.0375504 0)
(-0.211964 -0.0417586 0)
(-0.204924 -0.04567 0)
(-0.197215 -0.0492338 0)
(-0.188868 -0.0524001 0)
(-0.179922 -0.0551203 0)
(-0.170426 -0.0573491 0)
(-0.160436 -0.0590457 0)
(-0.150017 -0.060175 0)
(-0.139245 -0.0607095 0)
(-0.128201 -0.0606309 0)
(-0.116976 -0.0599311 0)
(-0.105666 -0.0586138 0)
(-0.0943738 -0.0566951 0)
(-0.0832035 -0.0542041 0)
(-0.0722607 -0.0511824 0)
(-0.0616495 -0.0476841 0)
(-0.0514697 -0.0437741 0)
(-0.0418144 -0.0395264 0)
(-0.0327678 -0.0350223 0)
(-0.024403 -0.0303474 0)
(-0.0167804 -0.0255895 0)
(-0.00994652 -0.0208349 0)
(-0.00393309 -0.0161667 0)
(0.00124309 -0.0116615 0)
(0.00558006 -0.00738782 0)
(0.00909005 -0.00340411 0)
(0.0117988 0.000242284 0)
(0.0137444 0.00351519 0)
(0.0149753 0.00638986 0)
(0.0155498 0.00885147 0)
(0.0155336 0.0108934 0)
(0.014999 0.0125146 0)
(0.0140231 0.0137159 0)
(0.0126865 0.0144968 0)
(0.0110733 0.014851 0)
(0.00927003 0.0147625 0)
(0.00736676 0.0142033 0)
(0.00545884 0.013131 0)
(0.00364766 0.0114884 0)
(0.00203972 0.00920477 0)
(0.000779514 0.00619847 0)
(0.000129436 0.00237581 0)
(3.52684e-05 -0.00130894 0)
(0.000116306 -0.00286676 0)
(0.000155892 -0.00357078 0)
(5.14008e-05 -0.00357912 0)
(-0.00026509 -0.00302271 0)
(-0.000843232 -0.00201439 0)
(-0.00172325 -0.000649766 0)
(-0.00293838 0.000991823 0)
(-0.00451686 0.00284543 0)
(-0.00648373 0.00485971 0)
(-0.00886163 0.00699579 0)
(-0.0116715 0.00922614 0)
(-0.014933 0.0115332 0)
(-0.0186646 0.0139075 0)
(-0.0228834 0.0163456 0)
(-0.0276047 0.0188477 0)
(-0.0328411 0.0214149 0)
(-0.0386016 0.0240468 0)
(-0.0448905 0.0267395 0)
(-0.0517054 0.0294835 0)
(-0.0590367 0.032263 0)
(-0.0668664 0.0350555 0)
(-0.0751672 0.0378315 0)
(-0.083902 0.0405556 0)
(-0.0930246 0.0431875 0)
(-0.10248 0.0456833 0)
(-0.112205 0.0479974 0)
(-0.12213 0.0500836 0)
(-0.132181 0.0518972 0)
(-0.142282 0.0533965 0)
(-0.152355 0.054544 0)
(-0.162323 0.0553074 0)
(-0.172114 0.0556607 0)
(-0.181657 0.0555845 0)
(-0.19089 0.0550661 0)
(-0.199755 0.0540993 0)
(-0.2082 0.0526843 0)
(-0.21618 0.0508268 0)
(-0.223657 0.0485375 0)
(-0.230596 0.0458314 0)
(-0.236969 0.0427269 0)
(-0.242752 0.0392456 0)
(-0.247923 0.0354113 0)
(-0.252465 0.0312495 0)
(-0.256361 0.0267877 0)
(-0.259598 0.0220544 0)
(-0.262163 0.0170797 0)
(-0.264043 0.0118947 0)
(-0.265228 0.00653186 0)
(-0.265706 0.00102531 0)
(-0.265468 -0.00458929 0)
(-0.264506 -0.0102746 0)
(-0.26281 -0.0159908 0)
(-0.260373 -0.0216961 0)
(-0.257189 -0.0273459 0)
(-0.253254 -0.0328933 0)
(-0.248567 -0.0382885 0)
(-0.243129 -0.0434795 0)
(-0.236946 -0.0484119 0)
(-0.230028 -0.0530295 0)
(-0.22239 -0.0572752 0)
(-0.214056 -0.0610916 0)
(-0.205055 -0.0644222 0)
(-0.195427 -0.0672129 0)
(-0.185221 -0.0694134 0)
(-0.174494 -0.0709793 0)
(-0.163315 -0.0718735 0)
(-0.151764 -0.0720687 0)
(-0.139929 -0.0715486 0)
(-0.127909 -0.0703101 0)
(-0.115809 -0.0683641 0)
(-0.103741 -0.0657366 0)
(-0.0918185 -0.0624688 0)
(-0.0801574 -0.0586167 0)
(-0.0688703 -0.05425 0)
(-0.0580646 -0.0494503 0)
(-0.0478393 -0.0443087 0)
(-0.0382825 -0.0389229 0)
(-0.0294692 -0.0333941 0)
(-0.0214595 -0.0278236 0)
(-0.0142977 -0.0223097 0)
(-0.00801162 -0.0169446 0)
(-0.00261283 -0.0118119 0)
(0.00190294 -0.00698466 0)
(0.00555482 -0.00252361 0)
(0.00837578 0.00152293 0)
(0.0104109 0.00511923 0)
(0.0117159 0.00824131 0)
(0.0123559 0.0108748 0)
(0.0124037 0.0130123 0)
(0.0119382 0.0146497 0)
(0.0110432 0.0157825 0)
(0.00980674 0.0164008 0)
(0.00832058 0.0164852 0)
(0.00668046 0.0160034 0)
(0.00498766 0.0149067 0)
(0.00334932 0.0131287 0)
(0.00187707 0.0105849 0)
(0.00071626 0.00717375 0)
(0.000117957 0.00277298 0)
(1.94807e-05 -0.00135211 0)
(7.85815e-06 -0.00286548 0)
(-0.000147433 -0.0034303 0)
(-0.000519762 -0.00322902 0)
(-0.00116325 -0.00240933 0)
(-0.00211924 -0.00109572 0)
(-0.00342122 0.000608486 0)
(-0.005098 0.00261887 0)
(-0.00717554 0.00486723 0)
(-0.00967801 0.00730002 0)
(-0.0126283 0.00987679 0)
(-0.0160484 0.0125687 0)
(-0.019959 0.0153571 0)
(-0.0243794 0.0182309 0)
(-0.0293269 0.021185 0)
(-0.0348162 0.0242166 0)
(-0.0408576 0.0273231 0)
(-0.0474563 0.030499 0)
(-0.0546109 0.0337337 0)
(-0.0623116 0.03701 0)
(-0.0705397 0.0403035 0)
(-0.0792664 0.0435817 0)
(-0.0884527 0.0468054 0)
(-0.0980496 0.0499294 0)
(-0.107999 0.0529043 0)
(-0.118234 0.0556784 0)
(-0.128682 0.0581993 0)
(-0.139266 0.0604166 0)
(-0.149907 0.062283 0)
(-0.160525 0.0637564 0)
(-0.171044 0.0648008 0)
(-0.181388 0.0653874 0)
(-0.19149 0.0654949 0)
(-0.201287 0.0651098 0)
(-0.210724 0.0642257 0)
(-0.219752 0.0628433 0)
(-0.228329 0.060969 0)
(-0.236418 0.0586149 0)
(-0.243989 0.055797 0)
(-0.251015 0.0525351 0)
(-0.257475 0.0488519 0)
(-0.263351 0.044772 0)
(-0.268625 0.0403218 0)
(-0.273284 0.0355291 0)
(-0.277314 0.0304227 0)
(-0.280703 0.0250322 0)
(-0.28344 0.0193883 0)
(-0.285515 0.0135227 0)
(-0.286915 0.00746824 0)
(-0.28763 0.00125921 0)
(-0.287649 -0.00506859 0)
(-0.286962 -0.0114772 0)
(-0.285556 -0.0179264 0)
(-0.283421 -0.0243735 0)
(-0.280546 -0.0307727 0)
(-0.276923 -0.0370754 0)
(-0.272542 -0.0432296 0)
(-0.267398 -0.0491801 0)
(-0.261488 -0.0548684 0)
(-0.254812 -0.0602337 0)
(-0.247375 -0.0652128 0)
(-0.23919 -0.069741 0)
(-0.230275 -0.0737538 0)
(-0.220658 -0.0771879 0)
(-0.210377 -0.0799827 0)
(-0.199479 -0.082083 0)
(-0.188027 -0.0834406 0)
(-0.176091 -0.0840168 0)
(-0.163757 -0.0837847 0)
(-0.151122 -0.0827315 0)
(-0.138292 -0.0808601 0)
(-0.125386 -0.0781905 0)
(-0.112525 -0.0747607 0)
(-0.0998359 -0.0706265 0)
(-0.0874457 -0.0658605 0)
(-0.0754776 -0.0605506 0)
(-0.0640479 -0.0547973 0)
(-0.0532622 -0.0487104 0)
(-0.0432129 -0.0424055 0)
(-0.0339764 -0.0359997 0)
(-0.0256118 -0.0296083 0)
(-0.0181598 -0.0233406 0)
(-0.0116429 -0.0172973 0)
(-0.00606546 -0.0115674 0)
(-0.00141514 -0.00622694 0)
(0.00233583 -0.00133781 0)
(0.00522929 0.003052 0)
(0.00731927 0.00690789 0)
(0.00867015 0.0102064 0)
(0.00935529 0.0129326 0)
(0.00945537 0.0150763 0)
(0.00905713 0.0166277 0)
(0.00825231 0.0175726 0)
(0.00713713 0.0178876 0)
(0.00581229 0.0175353 0)
(0.00438398 0.0164612 0)
(0.00296375 0.0145906 0)
(0.00166646 0.0118275 0)
(0.000635239 0.00805521 0)
(0.000103748 0.00313055 0)
(8.63421e-07 -0.00133455 0)
(-0.000118125 -0.00270148 0)
(-0.000496637 -0.00304277 0)
(-0.00117208 -0.00256268 0)
(-0.0021813 -0.00142264 0)
(-0.00355516 0.000244292 0)
(-0.00531911 0.00232995 0)
(-0.00749665 0.00474725 0)
(-0.0101109 0.0074267 0)
(-0.0131849 0.0103139 0)
(-0.0167415 0.0133677 0)
(-0.0208032 0.0165584 0)
(-0.0253911 0.0198658 0)
(-0.0305247 0.0232771 0)
(-0.0362202 0.026784 0)
(-0.04249 0.0303799 0)
(-0.0493408 0.0340566 0)
(-0.0567722 0.0378016 0)
(-0.0647752 0.0415961 0)
(-0.0733313 0.0454135 0)
(-0.082411 0.0492188 0)
(-0.0919742 0.0529692 0)
(-0.10197 0.056615 0)
(-0.112337 0.0601015 0)
(-0.123008 0.063371 0)
(-0.133906 0.0663654 0)
(-0.144952 0.0690281 0)
(-0.156063 0.0713065 0)
(-0.16716 0.0731537 0)
(-0.178164 0.0745297 0)
(-0.189 0.0754028 0)
(-0.199601 0.0757498 0)
(-0.209905 0.075556 0)
(-0.219859 0.0748146 0)
(-0.229414 0.0735265 0)
(-0.238531 0.0716989 0)
(-0.247177 0.0693446 0)
(-0.255321 0.066481 0)