/*--------------------------------*- C++ -*----------------------------------*\
  =========                 |
  \\      /  F ield         | OpenFOAM: The Open Source CFD Toolbox
   \\    /   O peration     | Website:  https://openfoam.org
    \\  /    A nd           | Version:  9
     \\/     M anipulation  |
\*---------------------------------------------------------------------------*/
FoamFile
{
    format      ascii;
    class       volScalarField;
    location    "2.5";
    object      p;
}
// * * * * * * * * * * * * * * * * * * * * * * * * * * * * * * * * * * * * * //

dimensions      [0 2 -2 0 0 0 0];

internalField   nonuniform List<scalar> 
1240
(
-0.0721591
-0.0720268
-0.0717914
-0.0714536
-0.0710137
-0.0748778
-0.0747533
-0.074527
-0.0741994
-0.0737712
-0.0732427
-0.0522328
-0.049779
-0.0471704
-0.0444127
-0.0415195
-0.0385139
-0.0354303
-0.0323161
-0.0292309
-0.0262446
-0.0234335
-0.0208732
-0.0186304
-0.0167549
-0.0152719
-0.0141789
-0.0134466
-0.0130243
-0.0128484
-0.0128525
-0.0129746
-0.0131626
-0.0133761
-0.0135858
-0.0137713
-0.0139233
-0.0140451
-0.0774776
-0.0773597
-0.0771409
-0.0768218
-0.0764031
-0.0758853
-0.0752685
-0.074553
-0.0737383
-0.072824
-0.071809
-0.0706916
-0.0694695
-0.0681395
-0.0666979
-0.0651396
-0.0634588
-0.0616488
-0.0597021
-0.057611
-0.0553678
-0.0529662
-0.0504023
-0.0476765
-0.0447955
-0.0417747
-0.0386408
-0.0354338
-0.0322081
-0.0290318
-0.0259841
-0.023149
-0.0206072
-0.0184266
-0.0166521
-0.0152994
-0.0143523
-0.0137666
-0.0134784
-0.0134148
-0.0135044
-0.0136849
-0.0139065
-0.0141326
-0.0143373
-0.0145091
-0.0146523
-0.0799668
-0.0798546
-0.079642
-0.0793299
-0.0789189
-0.0784095
-0.0778023
-0.0770975
-0.0762951
-0.075395
-0.0743963
-0.0732981
-0.0720984
-0.0707947
-0.0693837
-0.067861
-0.0662211
-0.0644574
-0.0625623
-0.0605275
-0.0583438
-0.0560028
-0.0534971
-0.0508223
-0.047979
-0.0449751
-0.041829
-0.038572
-0.035251
-0.0319288
-0.0286835
-0.0256037
-0.0227808
-0.0202991
-0.0182239
-0.0165917
-0.015404
-0.0146279
-0.0142028
-0.0140521
-0.0140958
-0.0142604
-0.0144861
-0.0147272
-0.0149516
-0.0151445
-0.0153112
-0.0823521
-0.0822449
-0.0820377
-0.0817313
-0.0813265
-0.0808239
-0.080224
-0.0795275
-0.0787345
-0.0778453
-0.0768594
-0.0757762
-0.0745945
-0.0733124
-0.0719271
-0.0704349
-0.068831
-0.0671093
-0.0652625
-0.0632821
-0.0611585
-0.0588816
-0.0564418
-0.0538308
-0.051044
-0.0480826
-0.0449567
-0.0416883
-0.0383152
-0.0348923
-0.0314929
-0.0282057
-0.025129
-0.0223605
-0.019985
-0.018061
-0.0166113
-0.0156191
-0.0150321
-0.0147732
-0.0147553
-0.0148943
-0.0151187
-0.015373
-0.0156169
-0.0158321
-0.0160244
-0.0846388
-0.0845361
-0.0843337
-0.0840321
-0.0836323
-0.083135
-0.0825408
-0.0818505
-0.0810646
-0.0801834
-0.0792072
-0.0781355
-0.0769678
-0.0757027
-0.0743382
-0.0728714
-0.0712982
-0.0696133
-0.06781
-0.06588
-0.063814
-0.061601
-0.05923
-0.0566901
-0.0539724
-0.0510724
-0.0479924
-0.0447457
-0.0413597
-0.0378798
-0.0343712
-0.0309191
-0.0276236
-0.0245922
-0.0219263
-0.0197067
-0.0179798
-0.0167492
-0.0159758
-0.0155866
-0.01549
-0.0155918
-0.0158084
-0.0160729
-0.0163359
-0.0165743
-0.0167942
-0.0868288
-0.0868309
-0.0867324
-0.0865341
-0.0862367
-0.085841
-0.0853479
-0.0847581
-0.0840724
-0.0832916
-0.0824163
-0.081447
-0.0803838
-0.0792265
-0.0779745
-0.0766264
-0.0751801
-0.0736323
-0.0719786
-0.0702131
-0.0683285
-0.0663156
-0.0641636
-0.0618608
-0.0593945
-0.056753
-0.053927
-0.0509123
-0.0477138
-0.0443487
-0.0408517
-0.0372781
-0.0337053
-0.0302316
-0.0269692
-0.0240325
-0.0215226
-0.0195106
-0.018024
-0.0170418
-0.0165001
-0.0163063
-0.0163578
-0.0165587
-0.0168297
-0.0171108
-0.0173729
-0.0176223
-0.0889246
-0.0889307
-0.0888361
-0.0886417
-0.0883479
-0.0879557
-0.087466
-0.0868795
-0.0861972
-0.0854201
-0.0845489
-0.0835845
-0.0825272
-0.0813775
-0.0801352
-0.0787995
-0.0773692
-0.0758418
-0.0742139
-0.0724807
-0.0706356
-0.0686703
-0.0665746
-0.0643367
-0.0619432
-0.0593804
-0.0566355
-0.0536993
-0.0505689
-0.0472523
-0.0437732
-0.0401753
-0.0365261
-0.0329175
-0.0294619
-0.0262821
-0.0234965
-0.0211999
-0.0194458
-0.0182358
-0.0175204
-0.0172103
-0.0171971
-0.0173732
-0.017646
-0.0179435
-0.0182297
-0.0185104
-0.0902894
-0.0906047
-0.0908179
-0.0909294
-0.0909394
-0.0908487
-0.0906577
-0.0903673
-0.0899781
-0.0894912
-0.0889073
-0.0882276
-0.087453
-0.0865847
-0.0856235
-0.0845703
-0.0834258
-0.0821904
-0.0808639
-0.0794458
-0.0779344
-0.0763274
-0.0746208
-0.0728093
-0.0708857
-0.0688406
-0.0666626
-0.0643385
-0.0618534
-0.0591924
-0.0563422
-0.0532938
-0.050047
-0.0466146
-0.0430286
-0.0393446
-0.035645
-0.0320377
-0.0286493
-0.0256108
-0.0230385
-0.0210125
-0.0195606
-0.0186522
-0.018207
-0.0181138
-0.0182549
-0.0185238
-0.0188354
-0.0191455
-0.0194591
-0.0921909
-0.0925106
-0.092728
-0.0928435
-0.0928575
-0.0927703
-0.0925827
-0.0922953
-0.0919088
-0.0914242
-0.0908425
-0.0901647
-0.089392
-0.0885255
-0.0875665
-0.0865159
-0.0853749
-0.0841442
-0.0828243
-0.0814151
-0.0799161
-0.0783255
-0.0766406
-0.0748572
-0.0729693
-0.0709686
-0.0688447
-0.0665848
-0.064174
-0.0615962
-0.0588351
-0.0558773
-0.0527152
-0.0493523
-0.0458088
-0.0421275
-0.038379
-0.0346631
-0.0311048
-0.0278432
-0.0250122
-0.0227177
-0.0210152
-0.0198982
-0.0192999
-0.0191112
-0.019206
-0.0194645
-0.0197872
-0.0201208
-0.0204685
-0.0940014
-0.0943253
-0.094547
-0.0946665
-0.0946842
-0.0946006
-0.0944161
-0.0941315
-0.0937475
-0.093265
-0.0926851
-0.0920089
-0.0912375
-0.0903723
-0.0894145
-0.0883656
-0.0872268
-0.0859992
-0.0846838
-0.0832812
-0.0817913
-0.0802135
-0.078546
-0.0767856
-0.0749277
-0.0729653
-0.0708892
-0.0686876
-0.0663461
-0.0638481
-0.0611758
-0.0583124
-0.0552447
-0.051968
-0.0484915
-0.0448453
-0.0410867
-0.0373044
-0.0336175
-0.0301678
-0.0271025
-0.0245503
-0.0225953
-0.0212581
-0.0204909
-0.0201913
-0.0202281
-0.0204687
-0.020799
-0.021155
-0.0215379
-0.0957198
-0.0960481
-0.0962738
-0.0963973
-0.0964187
-0.0963384
-0.0961569
-0.0958749
-0.0954932
-0.0950127
-0.0944343
-0.0937594
-0.092989
-0.0921247
-0.0911678
-0.0901198
-0.0889823
-0.0877567
-0.0864444
-0.0850463
-0.0835632
-0.0819952
-0.0803413
-0.0785997
-0.0767667
-0.0748369
-0.0728025
-0.0706528
-0.0683745
-0.0659513
-0.0633649
-0.0605962
-0.0576279
-0.0544485
-0.0510576
-0.0474732
-0.0437389
-0.0399298
-0.0361559
-0.0325566
-0.0292871
-0.0264952
-0.0242924
-0.0227286
-0.0217796
-0.0213547
-0.0213214
-0.0215362
-0.0218698
-0.0222468
-0.0226654
-0.0973451
-0.0976775
-0.0979073
-0.0980345
-0.0980593
-0.0979822
-0.0978036
-0.0975241
-0.0971445
-0.0966658
-0.0960889
-0.095415
-0.0946456
-0.0937819
-0.0928255
-0.0917781
-0.0906414
-0.0894171
-0.0881067
-0.0867119
-0.0852337
-0.083673
-0.0820299
-0.0803032
-0.0784908
-0.0765884
-0.0745898
-0.0724857
-0.0702642
-0.0679099
-0.0654046
-0.0627282
-0.0598606
-0.056785
-0.0534929
-0.0499913
-0.0463101
-0.0425104
-0.0386895
-0.0349804
-0.031541
-0.0285335
-0.0260943
-0.0243032
-0.023163
-0.0226001
-0.022485
-0.0226655
-0.0229976
-0.0233937
-0.0238483
-0.0988756
-0.099212
-0.0994456
-0.0995764
-0.0996046
-0.0995305
-0.0993545
-0.0990773
-0.0986998
-0.0982227
-0.0976471
-0.0969743
-0.0962056
-0.0953425
-0.0943865
-0.0933395
-0.0922032
-0.0909796
-0.0896706
-0.088278
-0.0868035
-0.0852484
-0.0836135
-0.0818989
-0.0801032
-0.0782238
-0.0762556
-0.0741913
-0.0720202
-0.0697283
-0.0672984
-0.06471
-0.0619414
-0.0589721
-0.0557872
-0.0523838
-0.0487793
-0.0450202
-0.0411896
-0.0374101
-0.0338377
-0.0306437
-0.0279855
-0.0259719
-0.0246356
-0.0239242
-0.0237163
-0.0238539
-0.0241793
-0.0245922
-0.0250827
-0.10031
-0.10065
-0.100887
-0.101021
-0.101053
-0.100981
-0.100808
-0.100533
-0.100157
-0.0996815
-0.0991072
-0.0984354
-0.0976674
-0.0968047
-0.0958491
-0.0948024
-0.0936664
-0.0924433
-0.0911352
-0.0897441
-0.0882723
-0.0867215
-0.0850931
-0.0833881
-0.0816061
-0.0797458
-0.0778035
-0.0757734
-0.0736467
-0.0714109
-0.0690498
-0.0665439
-0.0638706
-0.0610071
-0.0579335
-0.0546388
-0.0511292
-0.0474369
-0.0436299
-0.0398179
-0.0361502
-0.0328021
-0.0299474
-0.0277219
-0.0261891
-0.0253217
-0.0250112
-0.0250976
-0.0254107
-0.0258376
-0.0263633
-0.101646
-0.10199
-0.10223
-0.102368
-0.102402
-0.102333
-0.102162
-0.101889
-0.101515
-0.101041
-0.100467
-0.0997963
-0.099029
-0.0981668
-0.0972115
-0.096165
-0.0950293
-0.0938065
-0.092499
-0.0911092
-0.0896394
-0.0880919
-0.0864687
-0.0847714
-0.0830007
-0.0811562
-0.0792358
-0.0772352
-0.0751472
-0.0729612
-0.0706626
-0.0682328
-0.0656498
-0.0628891
-0.0599277
-0.0567481
-0.0533464
-0.049742
-0.0459874
-0.0421776
-0.0384516
-0.0349838
-0.0319593
-0.0295376
-0.0278124
-0.0267849
-0.0263636
-0.0263908
-0.0266862
-0.0271239
-0.0276838
-0.102883
-0.10323
-0.103473
-0.103614
-0.10365
-0.103584
-0.103415
-0.103143
-0.102771
-0.102298
-0.101726
-0.101055
-0.100289
-0.0994268
-0.0984718
-0.0974255
-0.0962899
-0.0950675
-0.0937605
-0.0923716
-0.0909034
-0.0893585
-0.0877395
-0.0860484
-0.084287
-0.0824558
-0.0805539
-0.0785786
-0.0765243
-0.0743823
-0.0721398
-0.0697798
-0.0672809
-0.0646187
-0.0617677
-0.0587057
-0.0554207
-0.0519202
-0.048242
-0.0444654
-0.0407164
-0.0371638
-0.0339991
-0.031401
-0.0294923
-0.028304
-0.027766
-0.0277269
-0.0279988
-0.0284441
-0.0290365
-0.104018
-0.104368
-0.104615
-0.104758
-0.104797
-0.104732
-0.104565
-0.104295
-0.103924
-0.103452
-0.10288
-0.102211
-0.101444
-0.100583
-0.0996281
-0.0985819
-0.0974465
-0.0962242
-0.0949176
-0.0935295
-0.0920626
-0.0905198
-0.0889042
-0.0872184
-0.0854647
-0.0836446
-0.0817584
-0.0798048
-0.0777798
-0.0756765
-0.0734841
-0.0711873
-0.0687663
-0.0661969
-0.0634526
-0.0605081
-0.0573446
-0.0539595
-0.0503769
-0.0466601
-0.0429205
-0.0393173
-0.0360435
-0.0332925
-0.0312131
-0.029867
-0.0292086
-0.0290971
-0.0293403
-0.0297896
-0.0304128
-0.105051
-0.105404
-0.105653
-0.105798
-0.105839
-0.105777
-0.105611
-0.105342
-0.104972
-0.104501
-0.10393
-0.103261
-0.102495
-0.101633
-0.100679
-0.0996323
-0.0984969
-0.0972748
-0.0959685
-0.0945809
-0.0931151
-0.0915741
-0.0899613
-0.0882799
-0.0865326
-0.0847219
-0.0828492
-0.0809141
-0.0789146
-0.0768453
-0.0746974
-0.0724577
-0.0701079
-0.0676251
-0.0649827
-0.0621531
-0.0591128
-0.0558505
-0.0523781
-0.0487435
-0.045042
-0.0414208
-0.0380695
-0.0351912
-0.0329576
-0.0314602
-0.0306803
-0.0304918
-0.0307012
-0.0311509
-0.0318028
-0.10598
-0.106335
-0.106587
-0.106734
-0.106777
-0.106716
-0.106551
-0.106284
-0.105914
-0.105444
-0.104873
-0.104204
-0.103438
-0.102576
-0.101622
-0.100575
-0.0994396
-0.0982174
-0.0969112
-0.095524
-0.0940589
-0.0925194
-0.090909
-0.0892311
-0.0874893
-0.0856866
-0.0838253
-0.0819063
-0.0799288
-0.0778893
-0.0757809
-0.0735924
-0.0713075
-0.0689048
-0.0663583
-0.0636396
-0.0607216
-0.0575862
-0.0542344
-0.0506997
-0.0470613
-0.043452
-0.0400542
-0.0370758
-0.0347072
-0.0330682
-0.0321684
-0.0318996
-0.032071
-0.0325176
-0.0331955
-0.106803
-0.107161
-0.107415
-0.107564
-0.107609
-0.107549
-0.107385
-0.107118
-0.106749
-0.106279
-0.105709
-0.105039
-0.104273
-0.103411
-0.102456
-0.101409
-0.100273
-0.0990503
-0.0977439
-0.0963568
-0.0948922
-0.0933538
-0.0917452
-0.0900703
-0.0883331
-0.0865371
-0.0846855
-0.0827803
-0.080822
-0.0788086
-0.0767352
-0.0745924
-0.0723663
-0.0700372
-0.0675804
-0.0649672
-0.0621686
-0.0591611
-0.0559366
-0.0525155
-0.0489611
-0.0453905
-0.0419757
-0.038925
-0.0364427
-0.0346744
-0.0336586
-0.0333081
-0.0334379
-0.033878
-0.0345791
-0.107521
-0.107881
-0.108137
-0.108288
-0.108333
-0.108275
-0.108112
-0.107845
-0.107476
-0.107006
-0.106435
-0.105766
-0.104998
-0.104136
-0.10318
-0.102132
-0.100995
-0.0997719
-0.098465
-0.0970776
-0.0956131
-0.0940752
-0.0924679
-0.0907954
-0.0890619
-0.0872716
-0.0854283
-0.0835349
-0.0815932
-0.0796027
-0.0775601
-0.0754582
-0.073285
-0.0710232
-0.0686494
-0.0661359
-0.0634523
-0.0605714
-0.0574778
-0.0541801
-0.0507265
-0.047218
-0.0438135
-0.0407177
-0.0381443
-0.0362615
-0.035136
-0.0347038
-0.0347893
-0.0352198
-0.0359412
-0.108132
-0.108495
-0.108752
-0.108904
-0.108951
-0.108893
-0.10873
-0.108464
-0.108095
-0.107624
-0.107053
-0.106382
-0.105614
-0.10475
-0.103792
-0.102743
-0.101605
-0.100381
-0.0990729
-0.0976847
-0.0962198
-0.094682
-0.0930754
-0.0914045
-0.0896739
-0.0878882
-0.0860518
-0.0841685
-0.0822411
-0.0802706
-0.0782551
-0.0761895
-0.074064
-0.0718632
-0.069566
-0.0671456
-0.0645717
-0.0618144
-0.0588524
-0.0556845
-0.0523447
-0.048918
-0.0455486
-0.0424338
-0.0397924
-0.0378114
-0.0365847
-0.0360727
-0.0361121
-0.0365301
-0.0372688
-0.108636
-0.109
-0.109259
-0.109412
-0.10946
-0.109402
-0.10924
-0.108974
-0.108604
-0.108132
-0.10756
-0.106888
-0.106118
-0.105253
-0.104293
-0.103242
-0.102102
-0.100876
-0.0995665
-0.0981768
-0.0967108
-0.0951724
-0.0935658
-0.0918957
-0.0901671
-0.0883849
-0.0865541
-0.0846793
-0.0827642
-0.0808109
-0.0788192
-0.0767858
-0.0747029
-0.0725575
-0.0703304
-0.0679965
-0.065526
-0.0628878
-0.0600561
-0.0570213
-0.053805
-0.0504761
-0.0471635
-0.0440541
-0.0413678
-0.0393062
-0.0379884
-0.0373999
-0.0373924
-0.0377956
-0.0385485
-0.109032
-0.109398
-0.109658
-0.109812
-0.109861
-0.109804
-0.109641
-0.109374
-0.109004
-0.108531
-0.107957
-0.107283
-0.106511
-0.105643
-0.104682
-0.103628
-0.102486
-0.101257
-0.0999447
-0.0985528
-0.0970849
-0.095545
-0.0939375
-0.0922673
-0.0905397
-0.0887599
-0.0869334
-0.0850654
-0.0831606
-0.081222
-0.0792511
-0.077246
-0.0752011
-0.0731055
-0.0709423
-0.0686883
-0.0663148
-0.0637902
-0.0610856
-0.0581848
-0.0550981
-0.0518798
-0.0486425
-0.0455609
-0.0428518
-0.0407278
-0.0393304
-0.0386702
-0.0386161
-0.0390025
-0.0397668
-0.10932
-0.109687
-0.109949
-0.110104
-0.110153
-0.110096
-0.109933
-0.109666
-0.109294
-0.10882
-0.108243
-0.107567
-0.106793
-0.105922
-0.104957
-0.1039
-0.102754
-0.101522
-0.100207
-0.0988117
-0.0973409
-0.0957985
-0.0941891
-0.0925178
-0.09079
-0.0890113
-0.0871877
-0.085325
-0.0834284
-0.0815024
-0.0795493
-0.077569
-0.0755578
-0.0735069
-0.0714016
-0.0692209
-0.0669377
-0.0645205
-0.0619387
-0.0591705
-0.056217
-0.0531187
-0.0499722
-0.0469382
-0.0442275
-0.0420594
-0.0405946
-0.0398687
-0.0397691
-0.0401372
-0.04091
)
;

boundaryField
{
    movingWall
    {
        type            zeroGradient;
    }
    fixedWalls
    {
        type            zeroGradient;
    }
    frontAndBack
    {
        type            empty;
    }
    procBoundary6to1
    {
        type            processor;
        value           nonuniform List<scalar> 
26
(
-0.0693123
-0.0691707
-0.0689244
-0.0685741
-0.0681201
-0.0721875
-0.0748996
-0.0774937
-0.0799778
-0.0823585
-0.0846409
-0.0846409
-0.0867256
-0.088297
-0.0886082
-0.0888172
-0.0888172
-0.0898716
-0.0917689
-0.093575
-0.0952891
-0.09691
-0.0984364
-0.0998666
-0.101199
-0.102432
)
;
    }
    procBoundary6to3
    {
        type            processor;
        value           nonuniform List<scalar> 9(-0.103564 -0.104594 -0.10552 -0.106341 -0.107056 -0.107665 -0.108167 -0.10856 -0.108846);
    }
    procBoundary6to4
    {
        type            processor;
        value           nonuniform List<scalar> 
30
(
-0.0959321
-0.0943196
-0.0926459
-0.0909165
-0.0891376
-0.0873154
-0.0854562
-0.0835661
-0.0816502
-0.0797122
-0.0777535
-0.0757719
-0.0737608
-0.0717078
-0.0695941
-0.0673943
-0.065078
-0.0626134
-0.059975
-0.0571557
-0.0541839
-0.0511407
-0.0481717
-0.0454789
-0.0432844
-0.0417654
-0.0409806
-0.0408374
-0.0411863
-0.041965
)
;
    }
    procBoundary6to5
    {
        type            processor;
        value           nonuniform List<scalar> 
21
(
-0.109499
-0.109869
-0.110132
-0.110288
-0.110337
-0.11028
-0.110117
-0.109848
-0.109475
-0.108998
-0.10842
-0.107741
-0.106963
-0.106088
-0.105119
-0.104059
-0.102908
-0.101672
-0.100352
-0.0989529
-0.0974781
)
;
    }
    procBoundary6to7
    {
        type            processor;
        value           nonuniform List<scalar> 
45
(
-0.070472
-0.070472
-0.0489479
-0.0464561
-0.0438223
-0.0410586
-0.0381854
-0.0352328
-0.0322421
-0.0292656
-0.0263651
-0.0236088
-0.0210663
-0.0188013
-0.0168648
-0.0152883
-0.0140792
-0.0132209
-0.0126751
-0.0123888
-0.0123024
-0.0123569
-0.0124999
-0.0126888
-0.0128912
-0.0130839
-0.0132508
-0.0133844
-0.013487
-0.0726139
-0.0726139
-0.0718847
-0.0710545
-0.0701225
-0.069087
-0.0679462
-0.0666971
-0.0653362
-0.0638593
-0.0622611
-0.0605358
-0.0586768
-0.0566774
-0.0545312
-0.0545312
)
;
    }
}


// ************************************************************************* //
