/*--------------------------------*- C++ -*----------------------------------*\
  =========                 |
  \\      /  F ield         | OpenFOAM: The Open Source CFD Toolbox
   \\    /   O peration     | Website:  https://openfoam.org
    \\  /    A nd           | Version:  9
     \\/     M anipulation  |
\*---------------------------------------------------------------------------*/
FoamFile
{
    format      ascii;
    class       surfaceScalarField;
    location    "2.5";
    object      phi;
}
// * * * * * * * * * * * * * * * * * * * * * * * * * * * * * * * * * * * * * //

dimensions      [0 3 -1 0 0 0 0];

internalField   nonuniform List<scalar> 
2402
(
-2.61959e-06
-2.46544e-07
-2.62514e-06
-3.53448e-07
-2.63118e-06
-4.60646e-07
-2.6378e-06
-5.68205e-07
-6.76205e-07
-2.51325e-06
-2.41415e-07
-2.51866e-06
-3.48037e-07
-2.52441e-06
-4.54896e-07
-2.53058e-06
-5.62041e-07
-2.53725e-06
-6.69532e-07
-7.77443e-07
-2.81641e-06
-2.58016e-06
-2.83632e-06
-2.72045e-06
-2.84945e-06
-2.86017e-06
-2.85262e-06
-2.99643e-06
-2.84221e-06
-3.12532e-06
-2.81428e-06
-3.24176e-06
-2.76484e-06
-3.3396e-06
-2.69017e-06
-3.41172e-06
-2.58728e-06
-3.45038e-06
-2.4544e-06
-3.44785e-06
-2.29144e-06
-3.39709e-06
-2.10048e-06
-3.29281e-06
-1.88588e-06
-3.13244e-06
-1.65428e-06
-2.91705e-06
-1.41411e-06
-2.65194e-06
-1.17479e-06
-2.34667e-06
-9.45649e-07
-2.0143e-06
-7.34916e-07
-1.67012e-06
-5.4883e-07
-1.32985e-06
-3.91217e-07
-1.00803e-06
-2.63473e-07
-7.16793e-07
-1.64897e-07
-4.65298e-07
-9.31991e-08
-2.59892e-07
-4.50193e-08
-1.0469e-07
-1.63619e-08
-2.39576e-09
-2.88e-09
4.49004e-08
3.49991e-08
-2.41127e-06
-2.3616e-07
-2.41667e-06
-3.42641e-07
-2.42225e-06
-4.49317e-07
-2.42807e-06
-5.56217e-07
-2.43422e-06
-6.63382e-07
-2.4408e-06
-7.70863e-07
-2.44794e-06
-8.78729e-07
-2.45579e-06
-9.87075e-07
-2.46453e-06
-1.09602e-06
-2.47436e-06
-1.20574e-06
-2.48552e-06
-1.31643e-06
-2.49823e-06
-1.42835e-06
-2.51275e-06
-1.5418e-06
-2.5293e-06
-1.65717e-06
-2.54807e-06
-1.77487e-06
-2.56918e-06
-1.89534e-06
-2.59261e-06
-2.01905e-06
-2.61817e-06
-2.14641e-06
-2.64542e-06
-2.27773e-06
-2.67357e-06
-2.4131e-06
-2.70142e-06
-2.55231e-06
-2.72726e-06
-2.69461e-06
-2.7488e-06
-2.83862e-06
-2.76317e-06
-2.98206e-06
-2.76689e-06
-3.12159e-06
-2.756e-06
-3.25265e-06
-2.72622e-06
-3.36938e-06
-2.67329e-06
-3.46465e-06
-2.59333e-06
-3.53034e-06
-2.48339e-06
-3.55778e-06
-2.34201e-06
-3.53847e-06
-2.16975e-06
-3.46507e-06
-1.96958e-06
-3.3326e-06
-1.74707e-06
-3.13956e-06
-1.51008e-06
-2.88893e-06
-1.26816e-06
-2.58858e-06
-1.03148e-06
-2.25099e-06
-8.09577e-07
-1.89202e-06
-6.10291e-07
-1.52913e-06
-4.38993e-07
-1.17933e-06
-2.98352e-07
-8.57435e-07
-1.88546e-07
-5.75104e-07
-1.07768e-07
-3.4067e-07
-5.28139e-08
-1.59643e-07
-1.96164e-08
-3.55933e-08
-3.62438e-09
2.89084e-08
3.13747e-08
-2.31309e-06
-2.30685e-07
-2.31858e-06
-3.37154e-07
-2.32411e-06
-4.43786e-07
-2.32973e-06
-5.50596e-07
-2.33551e-06
-6.57603e-07
-2.34154e-06
-7.64839e-07
-2.34792e-06
-8.72349e-07
-2.35479e-06
-9.802e-07
-2.36233e-06
-1.08849e-06
-2.37072e-06
-1.19734e-06
-2.38021e-06
-1.30695e-06
-2.39102e-06
-1.41753e-06
-2.40345e-06
-1.52937e-06
-2.41778e-06
-1.64285e-06
-2.43427e-06
-1.75838e-06
-2.45316e-06
-1.87645e-06
-2.47461e-06
-1.9976e-06
-2.49864e-06
-2.12238e-06
-2.52507e-06
-2.2513e-06
-2.55345e-06
-2.38473e-06
-2.58295e-06
-2.52282e-06
-2.61225e-06
-2.66531e-06
-2.63949e-06
-2.81138e-06
-2.66217e-06
-2.95939e-06
-2.6771e-06
-3.10666e-06
-2.68047e-06
-3.24928e-06
-2.66795e-06
-3.3819e-06
-2.63494e-06
-3.49767e-06
-2.5769e-06
-3.58838e-06
-2.48991e-06
-3.64477e-06
-2.37119e-06
-3.65718e-06
-2.21979e-06
-3.61647e-06
-2.03714e-06
-3.51526e-06
-1.8274e-06
-3.34931e-06
-1.59748e-06
-3.11884e-06
-1.35663e-06
-2.82943e-06
-1.11543e-06
-2.49219e-06
-8.8455e-07
-2.1229e-06
-6.73361e-07
-1.74032e-06
-4.88907e-07
-1.36378e-06
-3.35338e-07
-1.011e-06
-2.1394e-07
-6.96502e-07
-1.23584e-07
-4.31026e-07
-6.13623e-08
-2.21865e-07
-2.32239e-08
-7.37316e-08
-4.46158e-09
1.01461e-08
2.69131e-08
-2.21801e-06
-2.24919e-07
-2.22369e-06
-3.31481e-07
-2.22928e-06
-4.38189e-07
-2.23484e-06
-5.4504e-07
-2.2404e-06
-6.52038e-07
-2.24605e-06
-7.59194e-07
-2.25187e-06
-8.6653e-07
-2.25798e-06
-9.74089e-07
-2.26453e-06
-1.08194e-06
-2.2717e-06
-1.19018e-06
-2.2797e-06
-1.29895e-06
-2.28878e-06
-1.40845e-06
-2.29922e-06
-1.51893e-06
-2.31132e-06
-1.63074e-06
-2.32542e-06
-1.74428e-06
-2.34182e-06
-1.86005e-06
-2.3608e-06
-1.97862e-06
-2.38257e-06
-2.10062e-06
-2.40716e-06
-2.22671e-06
-2.43441e-06
-2.35748e-06
-2.46383e-06
-2.49339e-06
-2.49453e-06
-2.63461e-06
-2.52506e-06
-2.78085e-06
-2.55336e-06
-2.93109e-06
-2.57664e-06
-3.08338e-06
-2.59139e-06
-3.23454e-06
-2.5934e-06
-3.37989e-06
-2.57796e-06
-3.51311e-06
-2.54013e-06
-3.6262e-06
-2.47522e-06
-3.70969e-06
-2.37933e-06
-3.75308e-06
-2.25006e-06
-3.74573e-06
-2.08724e-06
-3.67808e-06
-1.89342e-06
-3.54312e-06
-1.67423e-06
-3.33803e-06
-1.43814e-06
-3.06553e-06
-1.19573e-06
-2.73459e-06
-9.58448e-07
-2.36019e-06
-7.37074e-07
-1.96169e-06
-5.40355e-07
-1.5605e-06
-3.74095e-07
-1.17726e-06
-2.40916e-07
-8.29681e-07
-1.40581e-07
-5.31362e-07
-7.06454e-08
-2.918e-07
-2.71825e-08
-1.17195e-07
-5.39292e-09
-1.16435e-08
2.15202e-08
-2.12529e-06
-2.18808e-07
-2.13122e-06
-3.25551e-07
-2.13698e-06
-4.32428e-07
-2.14259e-06
-5.39427e-07
-2.14809e-06
-6.46536e-07
-2.15354e-06
-7.53748e-07
-2.159e-06
-8.61068e-07
-2.16458e-06
-9.68514e-07
-2.17039e-06
-1.07613e-06
-2.17659e-06
-1.18397e-06
-2.18338e-06
-1.29216e-06
-2.19097e-06
-1.40085e-06
-2.19965e-06
-1.51026e-06
-2.20971e-06
-1.62067e-06
-2.22151e-06
-1.73248e-06
-2.2354e-06
-1.84616e-06
-2.25174e-06
-1.96228e-06
-2.27085e-06
-2.08151e-06
-2.29296e-06
-2.20459e-06
-2.31814e-06
-2.33229e-06
-2.34622e-06
-2.46531e-06
-2.37667e-06
-2.60417e-06
-2.40847e-06
-2.74904e-06
-2.44002e-06
-2.89954e-06
-2.469e-06
-3.0544e-06
-2.4923e-06
-3.21124e-06
-2.506e-06
-3.36618e-06
-2.50549e-06
-3.51362e-06
-2.48565e-06
-3.64604e-06
-2.44126e-06
-3.75408e-06
-2.36753e-06
-3.82681e-06
-2.26078e-06
-3.85248e-06
-2.11927e-06
-3.8196e-06
-1.94386e-06
-3.71853e-06
-1.7386e-06
-3.54329e-06
-1.51081e-06
-3.29332e-06
-1.27061e-06
-2.97479e-06
-1.02982e-06
-2.60098e-06
-8.00357e-07
-2.19115e-06
-5.92629e-07
-1.76823e-06
-4.14208e-07
-1.35568e-06
-2.69261e-07
-9.74628e-07
-1.58667e-07
-6.41956e-07
-8.06318e-08
-3.69835e-07
-3.14864e-08
-1.6634e-07
-6.41939e-09
-3.67105e-08
1.51008e-08
-2.02771e-06
-1.05489e-07
-2.0342e-06
-2.12322e-07
-2.04044e-06
-3.19307e-07
-2.04645e-06
-4.26424e-07
-2.05222e-06
-5.33649e-07
-2.0578e-06
-6.4096e-07
-2.06321e-06
-7.48337e-07
-2.06851e-06
-8.55767e-07
-2.07378e-06
-9.63248e-07
-2.07911e-06
-1.0708e-06
-2.08462e-06
-1.17845e-06
-2.0905e-06
-1.28629e-06
-2.09692e-06
-1.39443e-06
-2.10414e-06
-1.50304e-06
-2.11245e-06
-1.61236e-06
-2.12219e-06
-1.72274e-06
-2.13374e-06
-1.83462e-06
-2.14748e-06
-1.94853e-06
-2.16384e-06
-2.06515e-06
-2.18317e-06
-2.18527e-06
-2.20572e-06
-2.30974e-06
-2.23159e-06
-2.43944e-06
-2.26057e-06
-2.57519e-06
-2.29204e-06
-2.71757e-06
-2.32487e-06
-2.86671e-06
-2.35722e-06
-3.02206e-06
-2.38646e-06
-3.18201e-06
-2.40908e-06
-3.34356e-06
-2.42073e-06
-3.50196e-06
-2.41634e-06
-3.65043e-06
-2.39041e-06
-3.78001e-06
-2.33749e-06
-3.87973e-06
-2.25285e-06
-3.93711e-06
-2.1333e-06
-3.93915e-06
-1.97802e-06
-3.87381e-06
-1.78932e-06
-3.73199e-06
-1.57305e-06
-3.50959e-06
-1.33843e-06
-3.20942e-06
-1.09719e-06
-2.84222e-06
-8.62063e-07
-2.42628e-06
-6.44934e-07
-1.98536e-06
-4.55185e-07
-1.54543e-06
-2.98705e-07
-1.13111e-06
-1.77715e-07
-7.62946e-07
-9.12749e-08
-4.56275e-07
-3.61247e-08
-2.2149e-07
-7.54098e-09
-6.52943e-08
7.5598e-09
-1.93723e-06
-9.83402e-08
-1.94411e-06
-2.05445e-07
-1.9507e-06
-3.12712e-07
-1.95701e-06
-4.20114e-07
-1.96304e-06
-5.27619e-07
-1.96881e-06
-6.35197e-07
-1.97433e-06
-7.42815e-07
-1.97964e-06
-8.5045e-07
-1.98481e-06
-9.58083e-07
-1.9899e-06
-1.06571e-06
-1.995e-06
-1.17334e-06
-2.00027e-06
-1.28103e-06
-2.00585e-06
-1.38885e-06
-2.01196e-06
-1.49692e-06
-2.01887e-06
-1.60545e-06
-2.02689e-06
-1.71473e-06
-2.03638e-06
-1.82512e-06
-2.04777e-06
-1.93714e-06
-2.06149e-06
-2.05143e-06
-2.078e-06
-2.16876e-06
-2.09769e-06
-2.29005e-06
-2.12084e-06
-2.41629e-06
-2.14753e-06
-2.5485e-06
-2.1775e-06
-2.68759e-06
-2.21004e-06
-2.83417e-06
-2.24381e-06
-2.98829e-06
-2.27668e-06
-3.14913e-06
-2.30565e-06
-3.31459e-06
-2.32676e-06
-3.48085e-06
-2.33516e-06
-3.64203e-06
-2.32529e-06
-3.78988e-06
-2.29133e-06
-3.9137e-06
-2.22771e-06
-4.00073e-06
-2.13001e-06
-4.03685e-06
-1.99581e-06
-4.00801e-06
-1.82564e-06
-3.90216e-06
-1.62364e-06
-3.71159e-06
-1.39775e-06
-3.4353e-06
-1.15917e-06
-3.0808e-06
-9.21021e-07
-2.66443e-06
-6.96405e-07
-2.20998e-06
-4.96466e-07
-1.74537e-06
-3.28929e-07
-1.29865e-06
-1.97567e-07
-8.94308e-07
-1.02511e-07
-5.51332e-07
-4.10795e-08
-2.82921e-07
-8.75622e-09
-9.76176e-08
-1.19642e-09
-1.82373e-06
2.30115e-07
-1.83181e-06
1.23385e-07
-1.83965e-06
1.64146e-08
-1.84721e-06
-9.07803e-08
-1.85448e-06
-1.98176e-07
-1.86144e-06
-3.05746e-07
-1.8681e-06
-4.13457e-07
-1.87445e-06
-5.21272e-07
-1.88049e-06
-6.29153e-07
-1.88624e-06
-7.37063e-07
-1.89173e-06
-8.44968e-07
-1.89697e-06
-9.52835e-07
-1.90204e-06
-1.06065e-06
-1.90699e-06
-1.16839e-06
-1.91193e-06
-1.27609e-06
-1.91699e-06
-1.38378e-06
-1.92235e-06
-1.49156e-06
-1.92822e-06
-1.59958e-06
-1.9349e-06
-1.70805e-06
-1.94273e-06
-1.8173e-06
-1.95209e-06
-1.92777e-06
-1.96346e-06
-2.04006e-06
-1.97731e-06
-2.15491e-06
-1.99414e-06
-2.27322e-06
-2.01438e-06
-2.39605e-06
-2.03832e-06
-2.52456e-06
-2.06601e-06
-2.6599e-06
-2.09711e-06
-2.80306e-06
-2.13075e-06
-2.95465e-06
-2.16532e-06
-3.11456e-06
-2.19835e-06
-3.28155e-06
-2.22639e-06
-3.45282e-06
-2.24494e-06
-3.62349e-06
-2.24861e-06
-3.7862e-06
-2.2314e-06
-3.93091e-06
-2.18721e-06
-4.04492e-06
-2.11059e-06
-4.11347e-06
-1.99769e-06
-4.12091e-06
-1.84731e-06
-4.05254e-06
-1.66177e-06
-3.89713e-06
-1.44742e-06
-3.64965e-06
-1.21451e-06
-3.31371e-06
-9.7609e-07
-2.90286e-06
-7.46149e-07
-2.43992e-06
-5.37435e-07
-1.95409e-06
-3.59563e-07
-1.47652e-06
-2.18032e-07
-1.03584e-06
-1.14256e-07
-6.55108e-07
-4.63248e-08
-3.50852e-07
-1.00617e-08
-1.33881e-07
-1.12581e-08
-1.73256e-06
2.38841e-07
-1.74105e-06
1.31872e-07
-1.74927e-06
2.46413e-08
-1.75722e-06
-8.28331e-08
-1.76487e-06
-1.90524e-07
-1.77222e-06
-2.984e-07
-1.77925e-06
-4.06425e-07
-1.78596e-06
-5.14558e-07
-1.79236e-06
-6.22759e-07
-1.79843e-06
-7.30986e-07
-1.8042e-06
-8.39197e-07
-1.80969e-06
-9.47353e-07
-1.81491e-06
-1.05542e-06
-1.81993e-06
-1.16338e-06
-1.82481e-06
-1.27121e-06
-1.82964e-06
-1.37895e-06
-1.83458e-06
-1.48663e-06
-1.83979e-06
-1.59436e-06
-1.84553e-06
-1.70231e-06
-1.85208e-06
-1.81074e-06
-1.85983e-06
-1.92003e-06
-1.86921e-06
-2.03068e-06
-1.88072e-06
-2.1434e-06
-1.8949e-06
-2.25905e-06
-1.91227e-06
-2.37869e-06
-1.93329e-06
-2.50354e-06
-1.95824e-06
-2.63494e-06
-1.98713e-06
-2.77417e-06
-2.01949e-06
-2.92229e-06
-2.05422e-06
-3.07983e-06
-2.08939e-06
-3.24638e-06
-2.12209e-06
-3.42012e-06
-2.14831e-06
-3.59726e-06
-2.16299e-06
-3.77153e-06
-2.16016e-06
-3.93374e-06
-2.13343e-06
-4.07166e-06
-2.07659e-06
-4.17031e-06
-1.98459e-06
-4.21291e-06
-1.85459e-06
-4.18254e-06
-1.68707e-06
-4.06465e-06
-1.48662e-06
-3.8501e-06
-1.26216e-06
-3.53817e-06
-1.02621e-06
-3.1388e-06
-7.93275e-07
-2.67286e-06
-5.77446e-07
-2.16992e-06
-3.90196e-07
-1.66377e-06
-2.38884e-07
-1.18715e-06
-1.26409e-07
-7.67583e-07
-5.1826e-08
-4.25435e-07
-1.14519e-08
-1.74255e-07
-2.27101e-08
-1.64122e-06
2.47912e-07
-1.65006e-06
1.40706e-07
-1.65863e-06
3.32191e-08
-1.66694e-06
-7.45271e-08
-1.67496e-06
-1.82503e-07
-1.68269e-06
-2.90674e-07
-1.69011e-06
-3.99002e-07
-1.69722e-06
-5.07447e-07
-1.70401e-06
-6.15965e-07
-1.71049e-06
-7.24512e-07
-1.71664e-06
-8.33043e-07
-1.72248e-06
-9.41513e-07
-1.72802e-06
-1.04988e-06
-1.73329e-06
-1.15811e-06
-1.73832e-06
-1.26618e-06
-1.7432e-06
-1.37407e-06
-1.74801e-06
-1.48182e-06
-1.7529e-06
-1.58947e-06
-1.75807e-06
-1.69715e-06
-1.76376e-06
-1.80504e-06
-1.77032e-06
-1.91347e-06
-1.77814e-06
-2.02286e-06
-1.7877e-06
-2.13383e-06
-1.79956e-06
-2.24719e-06
-1.81428e-06
-2.36396e-06
-1.83244e-06
-2.48538e-06
-1.85451e-06
-2.61287e-06
-1.88075e-06
-2.74794e-06
-1.91105e-06
-2.89199e-06
-1.94477e-06
-3.04611e-06
-1.98052e-06
-3.21063e-06
-2.01595e-06
-3.38469e-06
-2.04761e-06
-3.56561e-06
-2.07086e-06
-3.74827e-06
-2.08001e-06
-3.92459e-06
-2.06856e-06
-4.08311e-06
-2.02983e-06
-4.20904e-06
-1.95778e-06
-4.28496e-06
-1.84813e-06
-4.29218e-06
-1.69959e-06
-4.21319e-06
-1.51488e-06
-4.03482e-06
-1.3013e-06
-3.75175e-06
-1.07048e-06
-3.36962e-06
-8.3694e-07
-2.90639e-06
-6.15842e-07
-2.39101e-06
-4.20392e-07
-1.85922e-06
-2.59873e-07
-1.34767e-06
-1.38849e-07
-8.88607e-07
-5.75398e-08
-5.06744e-07
-1.2919e-08
-2.18876e-07
-3.5629e-08
-1.54948e-06
2.57269e-07
-1.55861e-06
1.49837e-07
-1.5675e-06
4.21082e-08
-1.57614e-06
-6.58915e-08
-1.58451e-06
-1.74131e-07
-1.59261e-06
-2.82575e-07
-1.60043e-06
-3.91185e-07
-1.60795e-06
-4.99919e-07
-1.61518e-06
-6.08736e-07
-1.62211e-06
-7.17589e-07
-1.62871e-06
-8.26434e-07
-1.63501e-06
-9.35222e-07
-1.64098e-06
-1.04391e-06
-1.64664e-06
-1.15245e-06
-1.65202e-06
-1.2608e-06
-1.65715e-06
-1.36895e-06
-1.6621e-06
-1.47687e-06
-1.66697e-06
-1.5846e-06
-1.67191e-06
-1.6922e-06
-1.67713e-06
-1.79982e-06
-1.68291e-06
-1.90769e-06
-1.6896e-06
-2.01617e-06
-1.69766e-06
-2.12578e-06
-1.7076e-06
-2.23725e-06
-1.72003e-06
-2.35153e-06
-1.73557e-06
-2.46984e-06
-1.75481e-06
-2.59363e-06
-1.77823e-06
-2.72452e-06
-1.80601e-06
-2.86421e-06
-1.83792e-06
-3.0142e-06
-1.87306e-06
-3.1755e-06
-1.90963e-06
-3.34812e-06
-1.94478e-06
-3.53046e-06
-1.97441e-06
-3.71864e-06
-1.9932e-06
-3.9058e-06
-1.99479e-06
-4.08152e-06
-1.97223e-06
-4.2316e-06
-1.91878e-06
-4.33841e-06
-1.82894e-06
-4.38202e-06
-1.69976e-06
-4.34237e-06
-1.53208e-06
-4.2025e-06
-1.33142e-06
-3.9524e-06
-1.10814e-06
-3.5929e-06
-8.76383e-07
-3.13815e-06
-6.51989e-07
-2.61541e-06
-4.49699e-07
-2.06151e-06
-2.80727e-07
-1.51664e-06
-1.51441e-07
-1.01789e-06
-6.34148e-08
-5.9477e-07
-1.44525e-08
-2.67838e-07
-5.00816e-08
-1.45718e-06
2.66858e-07
-1.46656e-06
1.59218e-07
-1.47572e-06
5.12715e-08
-1.48466e-06
-5.69549e-08
-1.49336e-06
-1.65429e-07
-1.50182e-06
-2.74114e-07
-1.51003e-06
-3.82973e-07
-1.51799e-06
-4.91966e-07
-1.52567e-06
-6.01051e-07
-1.53308e-06
-7.10184e-07
-1.54019e-06
-8.1932e-07
-1.547e-06
-9.28412e-07
-1.5535e-06
-1.03741e-06
-1.55968e-06
-1.14627e-06
-1.56554e-06
-1.25494e-06
-1.5711e-06
-1.36338e-06
-1.5764e-06
-1.47157e-06
-1.58151e-06
-1.57949e-06
-1.58653e-06
-1.68718e-06
-1.59162e-06
-1.79473e-06
-1.59701e-06
-1.9023e-06
-1.603e-06
-2.01018e-06
-1.60999e-06
-2.11879e-06
-1.61847e-06
-2.22877e-06
-1.62902e-06
-2.34099e-06
-1.64228e-06
-2.45658e-06
-1.65893e-06
-2.57698e-06
-1.67958e-06
-2.70387e-06
-1.70466e-06
-2.83912e-06
-1.73427e-06
-2.98459e-06
-1.76794e-06
-3.14183e-06
-1.80442e-06
-3.31163e-06
-1.84145e-06
-3.49344e-06
-1.87551e-06
-3.68458e-06
-1.90177e-06
-3.87953e-06
-1.91418e-06
-4.06911e-06
-1.90575e-06
-4.24003e-06
-1.86926e-06
-4.3749e-06
-1.79825e-06
-4.45303e-06
-1.6883e-06
-4.45232e-06
-1.53843e-06
-4.35237e-06
-1.35228e-06
-4.13855e-06
-1.13866e-06
-3.80652e-06
-9.10964e-07
-3.36584e-06
-6.85298e-07
-2.84107e-06
-4.77675e-07
-2.26913e-06
-3.01164e-07
-1.69315e-06
-1.64037e-07
-1.15502e-06
-6.93923e-08
-6.89415e-07
-1.60402e-08
-3.2119e-07
-6.61217e-08
-1.3642e-06
2.76632e-07
-1.37379e-06
1.68811e-07
-1.38319e-06
6.0676e-08
-1.39241e-06
-4.77434e-08
-1.40142e-06
-1.56415e-07
-1.41023e-06
-2.65304e-07
-1.41883e-06
-3.74373e-07
-1.42721e-06
-4.83584e-07
-1.43536e-06
-5.92898e-07
-1.44328e-06
-7.02273e-07
-1.45093e-06
-8.11667e-07
-1.45831e-06
-9.21034e-07
-1.46539e-06
-1.03033e-06
-1.47217e-06
-1.13949e-06
-1.47863e-06
-1.24848e-06
-1.48476e-06
-1.35725e-06
-1.49059e-06
-1.46574e-06
-1.49615e-06
-1.57394e-06
-1.5015e-06
-1.68183e-06
-1.50676e-06
-1.78947e-06
-1.5121e-06
-1.89696e-06
-1.51778e-06
-2.0045e-06
-1.52413e-06
-2.11244e-06
-1.5316e-06
-2.22131e-06
-1.54071e-06
-2.33187e-06
-1.55212e-06
-2.44517e-06
-1.56652e-06
-2.56258e-06
-1.58462e-06
-2.68577e-06
-1.60703e-06
-2.81672e-06
-1.6341e-06
-2.95752e-06
-1.66576e-06
-3.11017e-06
-1.70125e-06
-3.27615e-06
-1.73886e-06
-3.45582e-06
-1.7757e-06
-3.64775e-06
-1.8075e-06
-3.84773e-06
-1.82863e-06
-4.04799e-06
-1.83226e-06
-4.2364e-06
-1.81093e-06
-4.39622e-06
-1.75746e-06
-4.50649e-06
-1.66618e-06
-4.54361e-06
-1.53441e-06
-4.48414e-06
-1.36391e-06
-4.30906e-06
-1.16174e-06
-4.00869e-06
-9.40188e-07
-3.58739e-06
-7.15253e-07
-3.06601e-06
-5.03896e-07
-2.48049e-06
-3.20902e-07
-1.87615e-06
-1.76482e-07
-1.29944e-06
-7.54081e-08
-7.90489e-07
-1.76675e-08
-3.78931e-07
-8.37892e-08
-1.27049e-06
2.86549e-07
-1.28025e-06
1.78579e-07
-1.28987e-06
7.02928e-08
-1.29933e-06
-3.82808e-08
-1.30864e-06
-1.47109e-07
-1.31779e-06
-2.56158e-07
-1.32677e-06
-3.65392e-07
-1.33558e-06
-4.74776e-07
-1.3442e-06
-5.84273e-07
-1.35263e-06
-6.93845e-07
-1.36084e-06
-8.03454e-07
-1.36882e-06
-9.13055e-07
-1.37654e-06
-1.0226e-06
-1.38398e-06
-1.13205e-06
-1.39112e-06
-1.24135e-06
-1.39793e-06
-1.35043e-06
-1.40442e-06
-1.45925e-06
-1.41059e-06
-1.56777e-06
-1.41648e-06
-1.67595e-06
-1.42216e-06
-1.78379e-06
-1.42776e-06
-1.89135e-06
-1.43348e-06
-1.99878e-06
-1.43958e-06
-2.10633e-06
-1.44646e-06
-2.21443e-06
-1.45459e-06
-2.32373e-06
-1.4646e-06
-2.43517e-06
-1.47716e-06
-2.55001e-06
-1.49304e-06
-2.66989e-06
-1.51296e-06
-2.7968e-06
-1.53748e-06
-2.933e-06
-1.56685e-06
-3.0808e-06
-1.60073e-06
-3.24226e-06
-1.63795e-06
-3.4186e-06
-1.67622e-06
-3.60948e-06
-1.71188e-06
-3.81207e-06
-1.73982e-06
-4.02006e-06
-1.75351e-06
-4.22271e-06
-1.74549e-06
-4.40425e-06
-1.70806e-06
-4.54392e-06
-1.63454e-06
-4.61712e-06
-1.52075e-06
-4.59794e-06
-1.36658e-06
-4.46323e-06
-1.17727e-06
-4.198e-06
-9.63716e-07
-3.80094e-06
-7.41432e-07
-3.28829e-06
-5.27983e-07
-2.69394e-06
-3.39668e-07
-2.06446e-06
-1.88618e-07
-1.45049e-06
-8.1394e-08
-8.97713e-07
-1.93183e-08
-4.41006e-07
-1.03108e-07
-1.17602e-06
2.96576e-07
-1.18593e-06
1.88494e-07
-1.19574e-06
8.00967e-08
-1.20543e-06
-2.85877e-08
-1.21501e-06
-1.37527e-07
-1.22448e-06
-2.46689e-07
-1.23383e-06
-3.56039e-07
-1.24306e-06
-4.65546e-07
-1.25216e-06
-5.75176e-07
-1.26111e-06
-6.84895e-07
-1.26989e-06
-7.94668e-07
-1.27849e-06
-9.04456e-07
-1.28688e-06
-1.01422e-06
-1.29502e-06
-1.12391e-06
-1.3029e-06
-1.23347e-06
-1.31047e-06
-1.34286e-06
-1.31772e-06
-1.452e-06
-1.32464e-06
-1.56085e-06
-1.33123e-06
-1.66935e-06
-1.33754e-06
-1.77748e-06
-1.34365e-06
-1.88525e-06
-1.34969e-06
-1.99274e-06
-1.3559e-06
-2.10013e-06
-1.36258e-06
-2.20775e-06
-1.37017e-06
-2.31614e-06
-1.37922e-06
-2.42612e-06
-1.39039e-06
-2.53884e-06
-1.40444e-06
-2.65584e-06
-1.42218e-06
-2.77907e-06
-1.4443e-06
-2.91087e-06
-1.47131e-06
-3.05379e-06
-1.50324e-06
-3.21034e-06
-1.53938e-06
-3.38246e-06
-1.57802e-06
-3.57083e-06
-1.61614e-06
-3.77395e-06
-1.64919e-06
-3.98701e-06
-1.67109e-06
-4.20081e-06
-1.67451e-06
-4.40083e-06
-1.6515e-06
-4.56693e-06
-1.5946e-06
-4.67402e-06
-1.4983e-06
-4.69424e-06
-1.36077e-06
-4.60076e-06
-1.18535e-06
-4.37341e-06
-9.81377e-07
-4.00492e-06
-7.63522e-07
-3.50615e-06
-5.4961e-07
-2.90785e-06
-3.57208e-07
-2.25686e-06
-2.00292e-07
-1.60741e-06
-8.72805e-08
-1.01072e-06
-2.09755e-08
-5.07311e-07
-1.24083e-07
-1.08079e-06
3.06682e-07
-1.09082e-06
1.98531e-07
-1.10079e-06
9.00667e-08
-1.1107e-06
-1.8682e-08
-1.12054e-06
-1.27684e-07
-1.13032e-06
-2.36908e-07
-1.14004e-06
-3.46324e-07
-1.14968e-06
-4.55901e-07
-1.15925e-06
-5.6561e-07
-1.16872e-06
-6.75422e-07
-1.17809e-06
-7.85305e-07
-1.18732e-06
-8.95226e-07
-1.19639e-06
-1.00515e-06
-1.20527e-06
-1.11503e-06
-1.21392e-06
-1.22482e-06
-1.2223e-06
-1.33447e-06
-1.23039e-06
-1.44391e-06
-1.23816e-06
-1.55309e-06
-1.24558e-06
-1.66193e-06
-1.25268e-06
-1.77038e-06
-1.25949e-06
-1.87844e-06
-1.26612e-06
-1.98611e-06
-1.27273e-06
-2.09352e-06
-1.27957e-06
-2.20091e-06
-1.28701e-06
-2.30871e-06
-1.29553e-06
-2.4176e-06
-1.30575e-06
-2.52862e-06
-1.31842e-06
-2.64317e-06
-1.33435e-06
-2.76314e-06
-1.35435e-06
-2.89087e-06
-1.37909e-06
-3.02905e-06
-1.40892e-06
-3.18052e-06
-1.44354e-06
-3.34783e-06
-1.48179e-06
-3.53259e-06
-1.52123e-06
-3.73451e-06
-1.55793e-06
-3.95031e-06
-1.58635e-06
-4.17239e-06
-1.59946e-06
-4.38773e-06
-1.58922e-06
-4.57716e-06
-1.54763e-06
-4.71562e-06
-1.46807e-06
-4.7738e-06
-1.34712e-06
-4.72171e-06
-1.18628e-06
-4.53425e-06
-9.93154e-07
-4.19804e-06
-7.81323e-07
-3.71798e-06
-5.68522e-07
-3.12065e-06
-3.73301e-07
-2.45208e-06
-2.11357e-07
-1.76935e-06
-9.29985e-08
-1.12908e-06
-2.26211e-08
-5.77689e-07
-1.46704e-07
-9.84809e-07
3.16844e-07
-9.94946e-07
2.08668e-07
-1.00506e-06
1.00185e-07
-1.01517e-06
-8.57893e-09
-1.02526e-06
-1.17592e-07
-1.03534e-06
-2.26827e-07
-1.04541e-06
-3.36254e-07
-1.05546e-06
-4.45846e-07
-1.0655e-06
-5.55579e-07
-1.07549e-06
-6.65426e-07
-1.08544e-06
-7.75361e-07
-1.0953e-06
-8.85357e-07
-1.10507e-06
-9.95382e-07
-1.1147e-06
-1.1054e-06
-1.12415e-06
-1.21537e-06
-1.13339e-06
-1.32523e-06
-1.14238e-06
-1.43493e-06
-1.15106e-06
-1.5444e-06
-1.15942e-06
-1.65357e-06
-1.16743e-06
-1.76237e-06
-1.17512e-06
-1.87075e-06
-1.18253e-06
-1.97869e-06
-1.18979e-06
-2.08626e-06
-1.19709e-06
-2.19361e-06
-1.20472e-06
-2.30107e-06
-1.21312e-06
-2.40921e-06
-1.22283e-06
-2.51891e-06
-1.23455e-06
-2.63145e-06
-1.24909e-06
-2.7486e-06
-1.26731e-06
-2.87265e-06
-1.29002e-06
-3.00634e-06
-1.31777e-06
-3.15276e-06
-1.35066e-06
-3.31494e-06
-1.38798e-06
-3.49527e-06
-1.42786e-06
-3.69462e-06
-1.46703e-06
-3.91115e-06
-1.50049e-06
-4.13892e-06
-1.52163e-06
-4.36658e-06
-1.52255e-06
-4.57625e-06
-1.49486e-06
-4.7433e-06
-1.43108e-06
-4.83757e-06
-1.32638e-06
-4.82642e-06
-1.18047e-06
-4.68016e-06
-9.99179e-07
-4.37934e-06
-7.94755e-07
-3.9224e-06
-5.84534e-07
-3.33087e-06
-3.87762e-07
-2.64885e-06
-2.21685e-07
-1.93543e-06
-9.84821e-08
-1.25229e-06
-2.4237e-08
-6.51934e-07
-1.70941e-07
-8.88109e-07
3.27039e-07
-8.98328e-07
2.18888e-07
-9.08579e-07
1.10435e-07
-9.18865e-07
1.70793e-09
-9.29194e-07
-1.07264e-07
-9.39566e-07
-2.16454e-07
-9.49983e-07
-3.25837e-07
-9.60441e-07
-4.35388e-07
-9.70934e-07
-5.45086e-07
-9.8145e-07
-6.5491e-07
-9.91973e-07
-7.64838e-07
-1.00248e-06
-8.74848e-07
-1.01295e-06
-9.84915e-07
-1.02334e-06
-1.09501e-06
-1.03362e-06
-1.20509e-06
-1.04374e-06
-1.31511e-06
-1.05365e-06
-1.42502e-06
-1.0633e-06
-1.53475e-06
-1.07266e-06
-1.64421e-06
-1.08169e-06
-1.75334e-06
-1.09038e-06
-1.86206e-06
-1.09874e-06
-1.97033e-06
-1.10686e-06
-2.07814e-06
-1.11487e-06
-2.1856e-06
-1.12302e-06
-2.29293e-06
-1.13164e-06
-2.40058e-06
-1.14124e-06
-2.50931e-06
-1.15244e-06
-2.62025e-06
-1.16603e-06
-2.73502e-06
-1.18286e-06
-2.85581e-06
-1.20384e-06
-2.98537e-06
-1.22969e-06
-3.12691e-06
-1.2608e-06
-3.28384e-06
-1.29686e-06
-3.45921e-06
-1.33656e-06
-3.65492e-06
-1.37721e-06
-3.87049e-06
-1.41446e-06
-4.10168e-06
-1.44217e-06
-4.33887e-06
-1.45268e-06
-4.56573e-06
-1.43748e-06
-4.75851e-06
-1.3884e-06
-4.88666e-06
-1.29937e-06
-4.91544e-06
-1.16847e-06
-4.81106e-06
-9.99706e-07
-4.54811e-06
-8.03845e-07
-4.11826e-06
-5.97545e-07
-3.53717e-06
-4.00451e-07
-2.84595e-06
-2.31162e-07
-2.10472e-06
-1.03671e-07
-1.37978e-06
-2.58057e-08
-7.29799e-07
-1.96747e-07
-7.90716e-07
3.37249e-07
-8.01001e-07
2.29173e-07
-8.11369e-07
1.20803e-07
-8.21827e-07
1.21666e-08
-8.32382e-07
-9.67091e-08
-8.43038e-07
-2.05799e-07
-8.53794e-07
-3.1508e-07
-8.6465e-07
-4.24532e-07
-8.75599e-07
-5.34136e-07
-8.86633e-07
-6.43876e-07
-8.97735e-07
-7.53736e-07
-9.08885e-07
-8.63698e-07
-9.20057e-07
-9.73743e-07
-9.31218e-07
-1.08385e-06
-9.42328e-07
-1.19398e-06
-9.53341e-07
-1.3041e-06
-9.64208e-07
-1.41415e-06
-9.74874e-07
-1.52408e-06
-9.85288e-07
-1.6338e-06
-9.95402e-07
-1.74323e-06
-1.00519e-06
-1.85228e-06
-1.01463e-06
-1.96088e-06
-1.02378e-06
-2.06899e-06
-1.03272e-06
-2.17665e-06
-1.04163e-06
-2.28401e-06
-1.0508e-06
-2.39141e-06
-1.06065e-06
-2.49947e-06
-1.07174e-06
-2.60916e-06
-1.08479e-06
-2.72197e-06
-1.10066e-06
-2.83994e-06
-1.12027e-06
-2.96576e-06
-1.14448e-06
-3.1027e-06
-1.17389e-06
-3.25443e-06
-1.20856e-06
-3.42455e-06
-1.24765e-06
-3.61583e-06
-1.28905e-06
-3.82909e-06
-1.32903e-06
-4.06171e-06
-1.36201e-06
-4.30589e-06
-1.3807e-06
-4.54704e-06
-1.37658e-06
-4.76262e-06
-1.34103e-06
-4.92221e-06
-1.26696e-06
-4.98952e-06
-1.1509e-06
-4.92711e-06
-9.95091e-07
-4.70391e-06
-8.08721e-07
-4.30463e-06
-6.07526e-07
-3.73837e-06
-4.11276e-07
-3.0422e-06
-2.39699e-07
-2.2763e-06
-1.08512e-07
-1.51096e-06
-2.73109e-08
-8.11e-07
-2.24058e-07
-6.9266e-07
3.47456e-07
-7.02995e-07
2.39507e-07
-7.13467e-07
1.31275e-07
-7.24086e-07
2.27855e-08
-7.34858e-07
-8.5937e-08
-7.45788e-07
-1.94869e-07
-7.56878e-07
-3.03991e-07
-7.68126e-07
-4.13284e-07
-7.79529e-07
-5.22734e-07
-7.91076e-07
-6.32329e-07
-8.02755e-07
-7.42057e-07
-8.14547e-07
-8.51906e-07
-8.26425e-07
-9.61865e-07
-8.38359e-07
-1.07191e-06
-8.5031e-07
-1.18203e-06
-8.62231e-07
-1.29218e-06
-8.74071e-07
-1.40231e-06
-8.85774e-07
-1.51238e-06
-8.97281e-07
-1.62229e-06
-9.08536e-07
-1.73197e-06
-9.19492e-07
-1.84132e-06
-9.30123e-07
-1.95025e-06
-9.40432e-07
-2.05868e-06
-9.50475e-07
-2.16661e-06
-9.60377e-07
-2.27411e-06
-9.70363e-07
-2.38143e-06
-9.80779e-07
-2.48905e-06
-9.92121e-07
-2.59782e-06
-1.00505e-06
-2.70904e-06
-1.02037e-06
-2.82462e-06
-1.03901e-06
-2.94712e-06
-1.0619e-06
-3.07981e-06
-1.08981e-06
-3.22652e-06
-1.12309e-06
-3.39127e-06
-1.16132e-06
-3.57759e-06
-1.20294e-06
-3.78747e-06
-1.24481e-06
-4.01984e-06
-1.28195e-06
-4.26875e-06
-1.30752e-06
-4.52147e-06
-1.31316e-06
-4.75698e-06
-1.28996e-06
-4.94541e-06
-1.22998e-06
-5.0495e-06
-1.12841e-06
-5.02869e-06
-9.85769e-07
-4.84655e-06
-8.09596e-07
-4.48081e-06
-6.14525e-07
-3.93344e-06
-4.20193e-07
-3.23653e-06
-2.47232e-07
-2.44926e-06
-1.12961e-07
-1.64523e-06
-2.87376e-08
-8.95223e-07
-2.52795e-07
-5.93972e-07
3.57641e-07
-6.04342e-07
2.49877e-07
-6.14906e-07
1.41839e-07
-6.25674e-07
3.35535e-08
-6.36653e-07
-7.49573e-08
-6.4785e-07
-1.83672e-07
-6.59267e-07
-2.92574e-07
-6.70902e-07
-4.01648e-07
-6.82754e-07
-5.10882e-07
-6.94814e-07
-6.20269e-07
-7.07068e-07
-7.29802e-07
-7.19501e-07
-8.39474e-07
-7.32087e-07
-9.49278e-07
-7.44797e-07
-1.0592e-06
-7.57592e-07
-1.16923e-06
-7.70429e-07
-1.27934e-06
-7.83256e-07
-1.38949e-06
-7.96014e-07
-1.49962e-06
-8.08643e-07
-1.60966e-06
-8.21079e-07
-1.71954e-06
-8.33266e-07
-1.82914e-06
-8.45158e-07
-1.93836e-06
-8.56736e-07
-2.04711e-06
-8.68022e-07
-2.15533e-06
-8.79096e-07
-2.26304e-06
-8.90127e-07
-2.3704e-06
-9.01395e-07
-2.47778e-06
-9.13322e-07
-2.58589e-06
-9.26496e-07
-2.69587e-06
-9.41669e-07
-2.80944e-06
-9.59739e-07
-2.92905e-06
-9.81671e-07
-3.05788e-06
-1.00835e-06
-3.19984e-06
-1.04036e-06
-3.35925e-06
-1.07765e-06
-3.5403e-06
-1.11912e-06
-3.746e-06
-1.16223e-06
-3.97673e-06
-1.20261e-06
-4.22836e-06
-1.23393e-06
-4.49016e-06
-1.2481e-06
-4.74281e-06
-1.23607e-06
-4.95744e-06
-1.18927e-06
-5.0963e-06
-1.10168e-06
-5.11627e-06
-9.72225e-07
-4.97601e-06
-8.06751e-07
-4.64628e-06
-6.18652e-07
-4.12154e-06
-4.27206e-07
-3.42798e-06
-2.53724e-07
-2.62274e-06
-1.16985e-07
-1.78197e-06
-3.00733e-08
-9.82135e-07
-2.82869e-07
-4.94681e-07
3.67789e-07
-5.05069e-07
2.60266e-07
-5.15712e-07
1.52481e-07
-5.26617e-07
4.44593e-08
-5.37795e-07
-6.37796e-08
-5.49251e-07
-1.72217e-07
-5.60988e-07
-2.80837e-07
-5.73006e-07
-3.89629e-07
-5.85303e-07
-4.98585e-07
-5.97872e-07
-6.077e-07
-6.10701e-07
-7.16973e-07
-6.23775e-07
-8.26401e-07
-6.37069e-07
-9.35984e-07
-6.50557e-07
-1.04572e-06
-6.64202e-07
-1.15559e-06
-6.77962e-07
-1.26558e-06
-6.91784e-07
-1.37566e-06
-7.05613e-07
-1.48579e-06
-7.19384e-07
-1.59589e-06
-7.33032e-07
-1.70589e-06
-7.46492e-07
-1.81568e-06
-7.59707e-07
-1.92514e-06
-7.72639e-07
-2.03417e-06
-7.85281e-07
-2.14268e-06
-7.97677e-07
-2.25064e-06
-8.09945e-07
-2.35813e-06
-8.22307e-07
-2.46542e-06
-8.35113e-07
-2.57308e-06
-8.48876e-07
-2.6821e-06
-8.64281e-07
-2.79404e-06
-8.82179e-07
-2.91115e-06
-9.03536e-07
-3.03652e-06
-9.29311e-07
-3.17406e-06
-9.60257e-07
-3.32831e-06
-9.96621e-07
-3.50394e-06
-1.03774e-06
-3.70488e-06
-1.08162e-06
-3.93285e-06
-1.12449e-06
-4.1855e-06
-1.16057e-06
-4.45408e-06
-1.18214e-06
-4.72124e-06
-1.18017e-06
-4.95942e-06
-1.1456e-06
-5.13086e-06
-1.0714e-06
-5.19047e-06
-9.54976e-07
-5.09243e-06
-8.00519e-07
-4.80074e-06
-6.20073e-07
-4.30198e-06
-4.32362e-07
-3.61569e-06
-2.59164e-07
-2.79594e-06
-1.20562e-07
-1.92058e-06
-3.13076e-08
-1.07139e-06
-3.14176e-07
-3.94812e-07
3.7788e-07
-4.05204e-07
2.70658e-07
-4.15911e-07
1.63188e-07
-4.26942e-07
5.54909e-08
-4.38308e-07
-5.24141e-08
-4.50014e-07
-1.60511e-07
-4.62064e-07
-2.68787e-07
-4.7446e-07
-3.77234e-07
-4.87199e-07
-4.85847e-07
-5.00274e-07
-5.94625e-07
-5.13677e-07
-7.0357e-07
-5.27391e-07
-8.12687e-07
-5.41395e-07
-9.21979e-07
-5.55664e-07
-1.03145e-06
-5.70162e-07
-1.14109e-06
-5.84849e-07
-1.2509e-06
-5.99675e-07
-1.36084e-06
-6.14585e-07
-1.47088e-06
-6.29516e-07
-1.58096e-06
-6.44399e-07
-1.69101e-06
-6.59166e-07
-1.80091e-06
-6.73751e-07
-1.91056e-06
-6.88103e-07
-2.01982e-06
-7.02193e-07
-2.12859e-06
-7.16034e-07
-2.2368e-06
-7.29702e-07
-2.34446e-06
-7.43364e-07
-2.45176e-06
-7.57304e-07
-2.55914e-06
-7.71962e-07
-2.66745e-06
-7.87949e-07
-2.77805e-06
-8.06056e-07
-2.89304e-06
-8.27222e-07
-3.01536e-06
-8.5244e-07
-3.14884e-06
-8.82588e-07
-3.29816e-06
-9.18152e-07
-3.46838e-06
-9.5885e-07
-3.66418e-06
-1.00318e-06
-3.88852e-06
-1.04795e-06
-4.14072e-06
-1.08796e-06
-4.41407e-06
-1.11593e-06
-4.69327e-06
-1.12297e-06
-4.95238e-06
-1.0997e-06
-5.15412e-06
-1.03821e-06
-5.25196e-06
-9.34546e-07
-5.1961e-06
-7.91268e-07
-4.94402e-06
-6.19001e-07
-4.47425e-06
-4.35749e-07
-3.79894e-06
-2.63567e-07
-2.96812e-06
-1.23682e-07
-2.06046e-06
-3.24331e-08
-1.16264e-06
-3.46609e-07
-2.94389e-07
3.87898e-07
-3.04769e-07
2.81038e-07
-3.15525e-07
1.73944e-07
-3.26669e-07
6.66352e-08
-3.38211e-07
-4.0872e-08
-3.50158e-07
-1.48564e-07
-3.62514e-07
-2.56431e-07
-3.75281e-07
-3.64467e-07
-3.88457e-07
-4.72671e-07
-4.02037e-07
-5.81045e-07
-4.16011e-07
-6.89596e-07
-4.30365e-07
-7.98332e-07
-4.45081e-07
-9.07264e-07
-4.60132e-07