/*--------------------------------*- C++ -*----------------------------------*\
  =========                 |
  \\      /  F ield         | OpenFOAM: The Open Source CFD Toolbox
   \\    /   O peration     | Website:  https://openfoam.org
    \\  /    A nd           | Version:  9
     \\/     M anipulation  |
\*---------------------------------------------------------------------------*/
FoamFile
{
    format      ascii;
    class       volVectorField;
    location    "2.5";
    object      U;
}
// * * * * * * * * * * * * * * * * * * * * * * * * * * * * * * * * * * * * * //

dimensions      [0 1 -1 0 0 0 0];

internalField   nonuniform List<vector> 
1240
(
(-0.261693 -0.024903 0)
(-0.262225 -0.035611 0)
(-0.262802 -0.0463515 0)
(-0.263433 -0.0571322 0)
(-0.264127 -0.0679621 0)
(-0.251062 -0.0243944 0)
(-0.251588 -0.0350668 0)
(-0.252144 -0.0457654 0)
(-0.252738 -0.056496 0)
(-0.253377 -0.0672656 0)
(-0.254073 -0.0780829 0)
(-0.280513 -0.259351 0)
(-0.282768 -0.273234 0)
(-0.284489 -0.286935 0)
(-0.285384 -0.300139 0)
(-0.285111 -0.312425 0)
(-0.283288 -0.323266 0)
(-0.27951 -0.332037 0)
(-0.273384 -0.33803 0)
(-0.264563 -0.340503 0)
(-0.252798 -0.338733 0)
(-0.237986 -0.332101 0)
(-0.220219 -0.320181 0)
(-0.199814 -0.302838 0)
(-0.177329 -0.280303 0)
(-0.15353 -0.253212 0)
(-0.12933 -0.222584 0)
(-0.105691 -0.189741 0)
(-0.0835176 -0.156163 0)
(-0.0635486 -0.12333 0)
(-0.0462946 -0.0925708 0)
(-0.0320137 -0.0649677 0)
(-0.020731 -0.0413229 0)
(-0.0122849 -0.0221817 0)
(-0.00638039 -0.00789509 0)
(-0.0026349 0.00130345 0)
(-0.000633256 0.00522538 0)
(-8.27494e-06 0.00366276 0)
(-0.240861 -0.0238785 0)
(-0.241393 -0.03453 0)
(-0.24194 -0.0452028 0)
(-0.242509 -0.0559008 0)
(-0.243105 -0.066629 0)
(-0.243739 -0.0773934 0)
(-0.244422 -0.0882025 0)
(-0.245167 -0.0990669 0)
(-0.245992 -0.11 0)
(-0.246915 -0.121021 0)
(-0.247959 -0.13215 0)
(-0.249147 -0.143415 0)
(-0.250503 -0.154847 0)
(-0.252051 -0.166484 0)
(-0.253814 -0.178365 0)
(-0.255807 -0.190534 0)
(-0.258037 -0.20303 0)
(-0.260494 -0.215889 0)
(-0.26315 -0.229128 0)
(-0.265944 -0.242744 0)
(-0.268779 -0.256692 0)
(-0.27151 -0.270875 0)
(-0.27394 -0.285125 0)
(-0.275811 -0.299182 0)
(-0.276803 -0.312681 0)
(-0.276541 -0.325136 0)
(-0.274608 -0.335939 0)
(-0.270568 -0.344371 0)
(-0.264004 -0.349631 0)
(-0.254563 -0.350888 0)
(-0.242011 -0.34736 0)
(-0.226291 -0.338412 0)
(-0.207574 -0.323667 0)
(-0.186286 -0.303111 0)
(-0.163108 -0.277172 0)
(-0.138928 -0.246738 0)
(-0.11476 -0.213105 0)
(-0.091616 -0.177845 0)
(-0.0703903 -0.142626 0)
(-0.0517569 -0.109025 0)
(-0.0361194 -0.0783829 0)
(-0.0236125 -0.0517308 0)
(-0.0141422 -0.0297919 0)
(-0.00744337 -0.0130389 0)
(-0.00313371 -0.00177914 0)
(-0.000784213 0.00375812 0)
(-2.28708e-05 0.00333976 0)
(-0.231035 -0.023345 0)
(-0.231583 -0.0339894 0)
(-0.232133 -0.0446513 0)
(-0.232689 -0.055333 0)
(-0.233257 -0.0660374 0)
(-0.233845 -0.0767686 0)
(-0.234462 -0.0875323 0)
(-0.235121 -0.0983365 0)
(-0.235838 -0.109192 0)
(-0.236629 -0.120115 0)
(-0.237517 -0.131123 0)
(-0.238526 -0.142241 0)
(-0.239682 -0.1535 0)
(-0.241013 -0.164938 0)
(-0.242548 -0.176596 0)
(-0.244313 -0.188523 0)
(-0.246328 -0.200769 0)
(-0.248604 -0.213385 0)
(-0.251135 -0.226411 0)
(-0.253891 -0.239875 0)
(-0.25681 -0.253773 0)
(-0.259788 -0.268057 0)
(-0.262667 -0.282616 0)
(-0.26523 -0.297255 0)
(-0.267193 -0.31167 0)
(-0.268204 -0.325435 0)
(-0.267851 -0.337984 0)
(-0.265681 -0.348612 0)
(-0.261227 -0.356494 0)
(-0.254055 -0.360723 0)
(-0.243815 -0.360382 0)
(-0.230308 -0.354642 0)
(-0.213546 -0.342881 0)
(-0.193801 -0.324816 0)
(-0.171633 -0.300617 0)
(-0.147862 -0.270973 0)
(-0.123506 -0.237081 0)
(-0.0996569 -0.200545 0)
(-0.0773486 -0.163188 0)
(-0.0574234 -0.12683 0)
(-0.0404491 -0.0930956 0)
(-0.0266931 -0.0632838 0)
(-0.0161513 -0.0383372 0)
(-0.00860553 -0.0188858 0)
(-0.00368497 -0.00533613 0)
(-0.00095342 0.00202676 0)
(-3.99441e-05 0.00293769 0)
(-0.221515 -0.0227854 0)
(-0.222087 -0.0334345 0)
(-0.222649 -0.0440986 0)
(-0.223206 -0.0547785 0)
(-0.223761 -0.0654753 0)
(-0.224319 -0.0761908 0)
(-0.22489 -0.0869286 0)
(-0.225483 -0.0976939 0)
(-0.226112 -0.108495 0)
(-0.226793 -0.119344 0)
(-0.227546 -0.130256 0)
(-0.228394 -0.141252 0)
(-0.229363 -0.152362 0)
(-0.230483 -0.163619 0)
(-0.231786 -0.175067 0)
(-0.233304 -0.186755 0)
(-0.235068 -0.198739 0)
(-0.237102 -0.211081 0)
(-0.239422 -0.223839 0)
(-0.242022 -0.237064 0)
(-0.244872 -0.250787 0)
(-0.247906 -0.265007 0)
(-0.25101 -0.279668 0)
(-0.254009 -0.294638 0)
(-0.256662 -0.309685 0)
(-0.258654 -0.324452 0)
(-0.259596 -0.338434 0)
(-0.259037 -0.350968 0)
(-0.256486 -0.361233 0)
(-0.25145 -0.368285 0)
(-0.243484 -0.371106 0)
(-0.232259 -0.368697 0)
(-0.217632 -0.360206 0)
(-0.19971 -0.345069 0)
(-0.178901 -0.323163 0)
(-0.155917 -0.294915 0)
(-0.131732 -0.261349 0)
(-0.10748 -0.224024 0)
(-0.084306 -0.184865 0)
(-0.0632175 -0.145916 0)
(-0.044958 -0.109097 0)
(-0.0299499 -0.0760102 0)
(-0.0183023 -0.0478632 0)
(-0.00986367 -0.0254833 0)
(-0.0042882 -0.009407 0)
(-0.00114109 5.35559e-06 0)
(-5.96137e-05 0.00244718 0)
(-0.212227 -0.0221935 0)
(-0.212829 -0.0328569 0)
(-0.213413 -0.043534 0)
(-0.213981 -0.0542241 0)
(-0.214536 -0.0649266 0)
(-0.215082 -0.0756417 0)
(-0.215625 -0.0863707 0)
(-0.216174 -0.0971165 0)
(-0.21674 -0.107885 0)
(-0.217337 -0.118683 0)
(-0.217981 -0.129525 0)
(-0.218695 -0.140427 0)
(-0.219501 -0.151414 0)
(-0.220431 -0.162518 0)
(-0.221516 -0.173778 0)
(-0.222792 -0.185243 0)
(-0.224295 -0.196972 0)
(-0.226061 -0.209032 0)
(-0.228119 -0.221492 0)
(-0.230485 -0.234423 0)
(-0.233157 -0.247884 0)
(-0.236102 -0.261912 0)
(-0.239245 -0.276503 0)
(-0.24246 -0.291587 0)
(-0.245551 -0.307005 0)
(-0.248247 -0.322477 0)
(-0.250197 -0.337573 0)
(-0.25097 -0.351692 0)
(-0.250072 -0.364052 0)
(-0.246977 -0.373702 0)
(-0.24117 -0.37956 0)
(-0.232211 -0.380497 0)
(-0.219812 -0.375452 0)
(-0.203915 -0.363587 0)
(-0.184756 -0.344463 0)
(-0.162906 -0.318198 0)
(-0.139252 -0.285568 0)
(-0.114919 -0.248006 0)
(-0.0911348 -0.207464 0)
(-0.0690509 -0.166175 0)
(-0.049592 -0.126348 0)
(-0.0333535 -0.0899196 0)
(-0.0205816 -0.0584045 0)
(-0.0112128 -0.0328732 0)
(-0.00494229 -0.0140291 0)
(-0.00134732 -0.00233156 0)
(-8.20192e-05 0.00185874 0)
(-0.20244 -0.0108947 0)
(-0.203101 -0.021565 0)
(-0.203738 -0.0322501 0)
(-0.20435 -0.0429483 0)
(-0.204938 -0.0536578 0)
(-0.205505 -0.0643767 0)
(-0.206054 -0.0751037 0)
(-0.206588 -0.0858382 0)
(-0.207114 -0.0965811 0)
(-0.207641 -0.107335 0)
(-0.20818 -0.118105 0)
(-0.208745 -0.128901 0)
(-0.209354 -0.139735 0)
(-0.21003 -0.150629 0)
(-0.2108 -0.161608 0)
(-0.211694 -0.172709 0)
(-0.212749 -0.183978 0)
(-0.214004 -0.195473 0)
(-0.2155 -0.207259 0)
(-0.217277 -0.219416 0)
(-0.219368 -0.232026 0)
(-0.22179 -0.245169 0)
(-0.224543 -0.258915 0)
(-0.227586 -0.273302 0)
(-0.230837 -0.288321 0)
(-0.234149 -0.303882 0)
(-0.2373 -0.319785 0)
(-0.239985 -0.335685 0)
(-0.241809 -0.351061 0)
(-0.242295 -0.365194 0)
(-0.240905 -0.377158 0)
(-0.23708 -0.38585 0)
(-0.230295 -0.390046 0)
(-0.220135 -0.388512 0)
(-0.206382 -0.380157 0)
(-0.189096 -0.364222 0)
(-0.16868 -0.34048 0)
(-0.145896 -0.309395 0)
(-0.121816 -0.272188 0)
(-0.0977017 -0.230759 0)
(-0.0748263 -0.187463 0)
(-0.054288 -0.144782 0)
(-0.036868 -0.105 0)
(-0.0229714 -0.0699824 0)
(-0.0126456 -0.0410906 0)
(-0.00564522 -0.0192366 0)
(-0.00157203 -0.00500859 0)
(-0.000107295 0.00116282 0)
(-0.193372 -0.0102016 0)
(-0.194074 -0.0208978 0)
(-0.194747 -0.0316096 0)
(-0.195392 -0.0423346 0)
(-0.196009 -0.0530701 0)
(-0.196598 -0.0638131 0)
(-0.197162 -0.0745612 0)
(-0.197703 -0.0853123 0)
(-0.198225 -0.0960654 0)
(-0.198736 -0.106821 0)
(-0.199243 -0.117581 0)
(-0.199758 -0.128353 0)
(-0.200295 -0.139144 0)
(-0.200874 -0.149972 0)
(-0.201519 -0.160857 0)
(-0.202257 -0.171832 0)
(-0.203123 -0.182936 0)
(-0.204157 -0.194224 0)
(-0.205403 -0.205761 0)
(-0.206904 -0.217627 0)
(-0.208706 -0.229911 0)
(-0.210844 -0.24271 0)
(-0.213338 -0.256115 0)
(-0.216183 -0.270204 0)
(-0.219334 -0.285017 0)
(-0.222691 -0.30053 0)
(-0.226083 -0.316623 0)
(-0.229257 -0.333041 0)
(-0.231863 -0.349353 0)
(-0.233459 -0.364922 0)
(-0.233517 -0.378882 0)
(-0.231457 -0.39014 0)
(-0.226693 -0.397423 0)
(-0.218709 -0.399363 0)
(-0.20714 -0.394647 0)
(-0.191875 -0.382208 0)
(-0.173135 -0.361459 0)
(-0.151526 -0.332499 0)
(-0.128022 -0.296259 0)
(-0.103875 -0.254493 0)
(-0.0804405 -0.209603 0)
(-0.0589755 -0.164299 0)
(-0.0404511 -0.121216 0)
(-0.0254497 -0.0826031 0)
(-0.0141526 -0.0501618 0)
(-0.00639392 -0.0250597 0)
(-0.0018148 -0.008049 0)
(-0.000135551 0.00034994 0)
(-0.181962 0.0225847 0)
(-0.182783 0.0119234 0)
(-0.18358 0.00123936 0)
(-0.18435 -0.00946614 0)
(-0.185091 -0.0201909 0)
(-0.185803 -0.0309325 0)
(-0.186484 -0.0416877 0)
(-0.187135 -0.0524532 0)
(-0.187754 -0.0632254 0)
(-0.188343 -0.0740009 0)
(-0.188904 -0.0847765 0)
(-0.18944 -0.0955497 0)
(-0.189954 -0.106319 0)
(-0.190452 -0.117085 0)
(-0.190944 -0.12785 0)
(-0.191441 -0.138621 0)
(-0.191957 -0.149408 0)
(-0.192513 -0.160228 0)
(-0.193133 -0.171108 0)
(-0.19385 -0.182081 0)
(-0.194699 -0.193197 0)
(-0.195725 -0.204516 0)
(-0.196974 -0.216116 0)
(-0.198498 -0.228089 0)
(-0.200343 -0.240539 0)
(-0.202548 -0.253576 0)
(-0.205133 -0.267306 0)
(-0.208087 -0.28181 0)
(-0.211354 -0.297125 0)
(-0.214812 -0.313205 0)
(-0.218263 -0.329885 0)
(-0.221409 -0.346832 0)
(-0.223853 -0.363507 0)
(-0.225095 -0.379123 0)
(-0.224557 -0.392637 0)
(-0.22162 -0.402765 0)
(-0.215687 -0.408051 0)
(-0.206273 -0.406998 0)
(-0.193103 -0.39826 0)
(-0.176215 -0.380886 0)
(-0.156038 -0.354579 0)
(-0.133412 -0.319909 0)
(-0.109529 -0.278394 0)
(-0.0857892 -0.232389 0)
(-0.0635787 -0.184771 0)
(-0.0440545 -0.138509 0)
(-0.0279898 -0.0962555 0)
(-0.0157216 -0.0601028 0)
(-0.00718409 -0.0315236 0)
(-0.00207488 -0.0114741 0)
(-0.000166855 -0.000589153 0)
(-0.172825 0.023438 0)
(-0.173686 0.0127531 0)
(-0.174522 0.00204303 0)
(-0.175331 -0.00869052 0)
(-0.176112 -0.019445 0)
(-0.176862 -0.0302174 0)
(-0.177581 -0.0410042 0)
(-0.178268 -0.0518016 0)
(-0.178923 -0.0626056 0)
(-0.179547 -0.073412 0)
(-0.180139 -0.0842171 0)
(-0.180701 -0.0950172 0)
(-0.181235 -0.10581 0)
(-0.181746 -0.116592 0)
(-0.182239 -0.127366 0)
(-0.182721 -0.138134 0)
(-0.183206 -0.148902 0)
(-0.183709 -0.159684 0)
(-0.18425 -0.170498 0)
(-0.184856 -0.181374 0)
(-0.185562 -0.192353 0)
(-0.186408 -0.20349 0)
(-0.18744 -0.214858 0)
(-0.188712 -0.226547 0)
(-0.190278 -0.238663 0)
(-0.192189 -0.251328 0)
(-0.194485 -0.264666 0)
(-0.197183 -0.278795 0)
(-0.200264 -0.293801 0)
(-0.203655 -0.309705 0)
(-0.207207 -0.326429 0)
(-0.210681 -0.34374 0)
(-0.213733 -0.361206 0)
(-0.215905 -0.37814 0)
(-0.216639 -0.393575 0)
(-0.215305 -0.406256 0)
(-0.211256 -0.414684 0)
(-0.203906 -0.417225 0)
(-0.192838 -0.412286 0)
(-0.177913 -0.398573 0)
(-0.159369 -0.375374 0)
(-0.137885 -0.342846 0)
(-0.114555 -0.302183 0)
(-0.0907715 -0.255595 0)
(-0.0680194 -0.206044 0)
(-0.0476261 -0.156792 0)
(-0.0305617 -0.11091 0)
(-0.0173376 -0.070918 0)
(-0.0080101 -0.0386469 0)
(-0.00235106 -0.0153026 0)
(-0.000201221 -0.00166326 0)
(-0.163674 0.0243291 0)
(-0.16457 0.0136202 0)
(-0.165441 0.00288399 0)
(-0.166285 -0.00787741 0)
(-0.167102 -0.0186612 0)
(-0.16789 -0.029464 0)
(-0.168647 -0.040282 0)
(-0.169374 -0.0511113 0)
(-0.170069 -0.0619475 0)
(-0.170733 -0.0727863 0)
(-0.171364 -0.0836233 0)
(-0.171963 -0.0944542 0)
(-0.172532 -0.105275 0)
(-0.173071 -0.116083 0)
(-0.173585 -0.126876 0)
(-0.174078 -0.137655 0)
(-0.17456 -0.148423 0)
(-0.175041 -0.159187 0)
(-0.175538 -0.169963 0)
(-0.176075 -0.180772 0)
(-0.176679 -0.191649 0)
(-0.177387 -0.202642 0)
(-0.178244 -0.213816 0)
(-0.179302 -0.225256 0)
(-0.180618 -0.237067 0)
(-0.18225 -0.249373 0)
(-0.184253 -0.262315 0)
(-0.186667 -0.276032 0)
(-0.189503 -0.290652 0)
(-0.192729 -0.306257 0)
(-0.196247 -0.322847 0)
(-0.199874 -0.340288 0)
(-0.203322 -0.358257 0)
(-0.206187 -0.376182 0)
(-0.207947 -0.393196 0)
(-0.207983 -0.408106 0)
(-0.205619 -0.419414 0)
(-0.200198 -0.425396 0)
(-0.19118 -0.42426 0)
(-0.178263 -0.414393 0)
(-0.161496 -0.394674 0)
(-0.141375 -0.364807 0)
(-0.11886 -0.325587 0)
(-0.0952952 -0.278981 0)
(-0.0722204 -0.22794 0)
(-0.0511108 -0.17596 0)
(-0.0331317 -0.126519 0)
(-0.0189835 -0.082599 0)
(-0.00886503 -0.0464413 0)
(-0.00264167 -0.0195501 0)
(-0.000238597 -0.0028805 0)
(-0.154486 0.0252517 0)
(-0.155411 0.0145194 0)
(-0.156312 0.00375812 0)
(-0.157188 -0.00702978 0)
(-0.158039 -0.0178412 0)
(-0.158863 -0.0286726 0)
(-0.159658 -0.0395203 0)
(-0.160426 -0.0503799 0)
(-0.161164 -0.0612473 0)
(-0.161872 -0.0721178 0)
(-0.162548 -0.0829869 0)
(-0.163193 -0.0938499 0)
(-0.163806 -0.104702 0)
(-0.164388 -0.11554 0)
(-0.164939 -0.12636 0)
(-0.165463 -0.13716 0)
(-0.165965 -0.147941 0)
(-0.166453 -0.158707 0)
(-0.166939 -0.169466 0)
(-0.167442 -0.180236 0)
(-0.167984 -0.191043 0)
(-0.168599 -0.201928 0)
(-0.169325 -0.212947 0)
(-0.170212 -0.224178 0)
(-0.171316 -0.23572 0)
(-0.1727 -0.247697 0)
(-0.174427 -0.260253 0)
(-0.176552 -0.273549 0)
(-0.179113 -0.28774 0)
(-0.182112 -0.302959 0)
(-0.185496 -0.319277 0)
(-0.189137 -0.336651 0)
(-0.192804 -0.35487 0)
(-0.196152 -0.373483 0)
(-0.198708 -0.39174 0)
(-0.199878 -0.40854 0)
(-0.198985 -0.422426 0)
(-0.195324 -0.431632 0)
(-0.188257 -0.434214 0)
(-0.177337 -0.428282 0)
(-0.162431 -0.412321 0)
(-0.143845 -0.385566 0)
(-0.122377 -0.348352 0)
(-0.0992807 -0.302306 0)
(-0.076109 -0.250266 0)
(-0.0544533 -0.195885 0)
(-0.0356644 -0.143016 0)
(-0.0206402 -0.0951241 0)
(-0.00974075 -0.05491 0)
(-0.00294461 -0.0242281 0)
(-0.000278861 -0.00424811 0)
(-0.145243 0.0262002 0)
(-0.146192 0.015446 0)
(-0.14712 0.00466152 0)
(-0.148025 -0.00615057 0)
(-0.148907 -0.0169871 0)
(-0.149765 -0.0278444 0)
(-0.150599 -0.0387188 0)
(-0.151407 -0.0496061 0)
(-0.152189 -0.060502 0)
(-0.152944 -0.0714022 0)
(-0.15367 -0.0823019 0)
(-0.154367 -0.0931965 0)
(-0.155032 -0.104081 0)
(-0.155666 -0.114951 0)
(-0.156267 -0.125802 0)
(-0.156838 -0.13663 0)
(-0.15738 -0.147434 0)
(-0.157898 -0.158214 0)
(-0.158401 -0.168975 0)
(-0.158903 -0.179729 0)
(-0.15942 -0.190494 0)
(-0.159981 -0.201304 0)
(-0.16062 -0.212206 0)
(-0.161381 -0.223269 0)
(-0.162318 -0.234583 0)
(-0.163493 -0.246267 0)
(-0.164974 -0.258467 0)
(-0.166827 -0.27135 0)
(-0.169108 -0.285095 0)
(-0.171847 -0.299875 0)
(-0.175032 -0.315819 0)
(-0.178581 -0.332971 0)
(-0.182324 -0.351224 0)
(-0.185975 -0.370252 0)
(-0.189117 -0.389433 0)
(-0.1912 -0.407783 0)
(-0.191559 -0.423921 0)
(-0.189468 -0.436083 0)
(-0.184218 -0.442226 0)
(-0.175235 -0.440229 0)
(-0.162223 -0.428212 0)
(-0.145293 -0.404942 0)
(-0.125063 -0.370248 0)
(-0.102665 -0.325335 0)
(-0.07962 -0.272822 0)
(-0.0576002 -0.216421 0)
(-0.0381232 -0.160316 0)
(-0.022287 -0.108458 0)
(-0.0106281 -0.0640479 0)
(-0.00325731 -0.0293439 0)
(-0.000321819 -0.00577215 0)
(-0.135936 0.0271694 0)
(-0.136904 0.0163956 0)
(-0.137854 0.00559065 0)
(-0.138785 -0.00524257 0)
(-0.139696 -0.0161008 0)
(-0.140587 -0.0269806 0)
(-0.141458 -0.0378781 0)
(-0.142307 -0.0487894 0)
(-0.143134 -0.0597104 0)
(-0.143938 -0.0706368 0)
(-0.144716 -0.0815643 0)
(-0.145468 -0.0924881 0)
(-0.146192 -0.103403 0)
(-0.146885 -0.114305 0)
(-0.147547 -0.125188 0)
(-0.148176 -0.136048 0)
(-0.148774 -0.146882 0)
(-0.149342 -0.157686 0)
(-0.149885 -0.168463 0)
(-0.150412 -0.179218 0)
(-0.150937 -0.189966 0)
(-0.151482 -0.20073 0)
(-0.152074 -0.21155 0)
(-0.152754 -0.222483 0)
(-0.153569 -0.233612 0)
(-0.15458 -0.245045 0)
(-0.155854 -0.256925 0)
(-0.157464 -0.26942 0)
(-0.159478 -0.282724 0)
(-0.161949 -0.297039 0)
(-0.164896 -0.312543 0)
(-0.168283 -0.329353 0)
(-0.171992 -0.347463 0)
(-0.175798 -0.366668 0)
(-0.179345 -0.386482 0)
(-0.182134 -0.406054 0)
(-0.183534 -0.424107 0)
(-0.182814 -0.438925 0)
(-0.17922 -0.448412 0)
(-0.172079 -0.450271 0)
(-0.160944 -0.442296 0)
(-0.145742 -0.422798 0)
(-0.126903 -0.391079 0)
(-0.105404 -0.347849 0)
(-0.0826992 -0.295403 0)
(-0.0605023 -0.237412 0)
(-0.0404724 -0.17832 0)
(-0.0239024 -0.122551 0)
(-0.0115171 -0.0738405 0)
(-0.00357687 -0.0349 0)
(-0.000367202 -0.00745734 0)
(-0.126557 0.0281549 0)
(-0.127541 0.0173644 0)
(-0.12851 0.0065424 0)
(-0.129464 -0.0043083 0)
(-0.130402 -0.0151844 0)
(-0.131325 -0.0260824 0)
(-0.132231 -0.0369988 0)
(-0.133121 -0.0479297 0)
(-0.133993 -0.0588715 0)
(-0.134846 -0.0698201 0)
(-0.135678 -0.0807714 0)
(-0.136488 -0.091721 0)
(-0.137274 -0.102664 0)
(-0.138032 -0.113596 0)
(-0.138761 -0.12451 0)
(-0.139459 -0.135403 0)
(-0.140124 -0.146269 0)
(-0.140757 -0.157104 0)
(-0.141359 -0.167906 0)
(-0.141935 -0.178677 0)
(-0.142495 -0.189426 0)
(-0.143055 -0.200169 0)
(-0.143639 -0.210937 0)
(-0.144278 -0.221777 0)
(-0.145016 -0.232761 0)
(-0.145908 -0.243987 0)
(-0.147019 -0.255588 0)
(-0.148424 -0.267731 0)
(-0.150199 -0.280615 0)
(-0.152412 -0.294461 0)
(-0.155109 -0.309487 0)
(-0.158289 -0.325873 0)
(-0.161886 -0.3437 0)
(-0.16573 -0.362882 0)
(-0.169528 -0.383069 0)
(-0.172841 -0.403554 0)
(-0.175082 -0.42319 0)
(-0.175536 -0.440343 0)
(-0.173424 -0.452916 0)
(-0.168001 -0.458483 0)
(-0.158689 -0.454566 0)
(-0.145244 -0.439044 0)
(-0.127902 -0.410685 0)
(-0.107472 -0.369649 0)
(-0.085305 -0.317812 0)
(-0.0631166 -0.258695 0)
(-0.0426778 -0.196917 0)
(-0.0254652 -0.137344 0)
(-0.0123972 -0.0842643 0)
(-0.00390006 -0.0408936 0)
(-0.000414674 -0.00930686 0)
(-0.117103 0.0291529 0)
(-0.1181 0.0183493 0)
(-0.119086 0.00751406 0)
(-0.120061 -0.00334997 0)
(-0.121024 -0.0142395 0)
(-0.121977 -0.0251513 0)
(-0.122918 -0.0360818 0)
(-0.123847 -0.0470277 0)
(-0.124764 -0.0579853 0)
(-0.125667 -0.0689512 0)
(-0.126554 -0.0799216 0)
(-0.127423 -0.0908924 0)
(-0.128273 -0.101859 0)
(-0.1291 -0.112817 0)
(-0.129902 -0.123761 0)
(-0.130675 -0.134685 0)
(-0.131417 -0.145584 0)
(-0.132125 -0.156452 0)
(-0.1328 -0.167285 0)
(-0.133444 -0.178083 0)
(-0.134062 -0.188847 0)
(-0.134665 -0.199589 0)
(-0.135271 -0.21033 0)
(-0.135907 -0.221109 0)
(-0.13661 -0.231985 0)
(-0.137427 -0.243046 0)
(-0.138422 -0.254413 0)
(-0.139665 -0.266245 0)
(-0.141237 -0.278742 0)
(-0.143216 -0.292135 0)
(-0.145668 -0.306669 0)
(-0.148623 -0.322577 0)
(-0.152055 -0.340018 0)
(-0.15585 -0.359013 0)
(-0.159776 -0.379347 0)
(-0.163457 -0.400464 0)
(-0.166356 -0.421364 0)
(-0.167795 -0.440526 0)
(-0.166988 -0.455894 0)
(-0.163139 -0.464971 0)
(-0.155565 -0.465054 0)
(-0.143865 -0.453632 0)
(-0.12809 -0.428943 0)
(-0.108864 -0.390562 0)
(-0.0874099 -0.339863 0)
(-0.0654084 -0.280105 0)
(-0.0447091 -0.215985 0)
(-0.0269545 -0.152763 0)
(-0.0132579 -0.0952869 0)
(-0.00422342 -0.0473167 0)
(-0.000463831 -0.0113222 0)
(-0.107575 0.0301603 0)
(-0.108582 0.0193476 0)
(-0.109582 0.00850332 0)
(-0.110576 -0.00236954 0)
(-0.111563 -0.0132679 0)
(-0.112544 -0.0241884 0)
(-0.113519 -0.0351281 0)
(-0.114487 -0.0460837 0)
(-0.115448 -0.057052 0)
(-0.1164 -0.06803 0)
(-0.117343 -0.0790142 0)
(-0.118273 -0.0900011 0)
(-0.119189 -0.100987 0)
(-0.120087 -0.111967 0)
(-0.120964 -0.122936 0)
(-0.121817 -0.133889 0)
(-0.122641 -0.144819 0)
(-0.123434 -0.15572 0)
(-0.124194 -0.166587 0)
(-0.124919 -0.177416 0)
(-0.125613 -0.188205 0)
(-0.126282 -0.198961 0)
(-0.126939 -0.209697 0)
(-0.127604 -0.220441 0)
(-0.128308 -0.231244 0)
(-0.129094 -0.242179 0)
(-0.130015 -0.253355 0)
(-0.131142 -0.264921 0)
(-0.132553 -0.27707 0)
(-0.134332 -0.290037 0)
(-0.136558 -0.304086 0)
(-0.139287 -0.319489 0)
(-0.142527 -0.336471 0)
(-0.146214 -0.355152 0)
(-0.150172 -0.375444 0)
(-0.154089 -0.396943 0)
(-0.157489 -0.418807 0)
(-0.159735 -0.439655 0)
(-0.160058 -0.457513 0)
(-0.15763 -0.46986 0)
(-0.151686 -0.473824 0)
(-0.141689 -0.466551 0)
(-0.127512 -0.445769 0)
(-0.109592 -0.410446 0)
(-0.0890004 -0.361386 0)
(-0.0673519 -0.30148 0)
(-0.0465401 -0.235399 0)
(-0.0283513 -0.168729 0)
(-0.0140888 -0.106868 0)
(-0.0045434 -0.0541561 0)
(-0.00051422 -0.0135031 0)
(-0.0979736 0.0311744 0)
(-0.0989884 0.0203569 0)
(-0.100001 0.00950823 0)
(-0.101012 -0.00136864 0)
(-0.102021 -0.0122707 0)
(-0.10303 -0.023195 0)
(-0.104037 -0.0341385 0)
(-0.105044 -0.0450984 0)
(-0.106048 -0.0560719 0)
(-0.10705 -0.0670563 0)
(-0.108047 -0.0780487 0)
(-0.109038 -0.0890461 0)
(-0.110021 -0.100045 0)
(-0.110991 -0.111041 0)
(-0.111946 -0.122031 0)
(-0.112882 -0.133008 0)
(-0.113794 -0.143966 0)
(-0.114678 -0.154899 0)
(-0.11553 -0.1658 0)
(-0.116349 -0.176663 0)
(-0.117133 -0.187484 0)
(-0.117886 -0.198263 0)
(-0.118616 -0.209009 0)
(-0.119339 -0.219742 0)
(-0.120077 -0.230499 0)
(-0.120867 -0.241343 0)
(-0.121758 -0.252369 0)
(-0.122812 -0.263713 0)
(-0.124106 -0.275558 0)
(-0.125725 -0.288135 0)
(-0.127756 -0.301721 0)
(-0.130272 -0.316613 0)
(-0.133313 -0.333092 0)
(-0.136853 -0.351364 0)
(-0.140774 -0.371458 0)
(-0.144822 -0.393121 0)
(-0.148586 -0.415677 0)
(-0.151481 -0.437902 0)
(-0.152766 -0.457937 0)
(-0.151604 -0.473287 0)
(-0.147169 -0.480963 0)
(-0.138808 -0.477821 0)
(-0.126227 -0.461111 0)
(-0.109682 -0.429188 0)
(-0.0900769 -0.382231 0)
(-0.0689311 -0.322667 0)
(-0.0481504 -0.255031 0)
(-0.0296388 -0.185154 0)
(-0.0148799 -0.11896 0)
(-0.00485643 -0.0613936 0)
(-0.000565342 -0.0158475 0)
(-0.0883008 0.0321928 0)
(-0.0893213 0.0213752 0)
(-0.0903445 0.0105271 0)
(-0.0913711 -0.000348717 0)
(-0.0924016 -0.0112493 0)
(-0.0934365 -0.022172 0)
(-0.0944759 -0.0331138 0)
(-0.0955197 -0.0440725 0)
(-0.0965673 -0.0550455 0)
(-0.097618 -0.0660305 0)
(-0.0986703 -0.0770252 0)
(-0.0997225 -0.0880271 0)
(-0.100772 -0.0990334 0)
(-0.101816 -0.110041 0)
(-0.10285 -0.121045 0)
(-0.103871 -0.13204 0)
(-0.104873 -0.143022 0)
(-0.105853 -0.153983 0)
(-0.106804 -0.164916 0)
(-0.107724 -0.175813 0)
(-0.10861 -0.186668 0)
(-0.109461 -0.197478 0)
(-0.110283 -0.208245 0)
(-0.111085 -0.218982 0)
(-0.111886 -0.229717 0)
(-0.112715 -0.2405 0)
(-0.113613 -0.251413 0)
(-0.114637 -0.262578 0)
(-0.115858 -0.274163 0)
(-0.117359 -0.286393 0)
(-0.119231 -0.299546 0)
(-0.12156 -0.313938 0)
(-0.124408 -0.329894 0)
(-0.127785 -0.347689 0)
(-0.131621 -0.367465 0)
(-0.135721 -0.389109 0)
(-0.139736 -0.412112 0)
(-0.14314 -0.435423 0)
(-0.145233 -0.457326 0)
(-0.145184 -0.475394 0)
(-0.142128 -0.486576 0)
(-0.135315 -0.48749 0)
(-0.124307 -0.474949 0)
(-0.109175 -0.446706 0)
(-0.0906522 -0.402272 0)
(-0.0701402 -0.343526 0)
(-0.0495255 -0.274756 0)
(-0.0308029 -0.201946 0)
(-0.0156224 -0.13151 0)
(-0.00515909 -0.0690064 0)
(-0.000616672 -0.0183515 0)
(-0.0785595 0.0332136 0)
(-0.079584 0.0224009 0)
(-0.0806163 0.0115585 0)
(-0.0816573 0.000688963 0)
(-0.0827078 -0.0102048 0)
(-0.0837681 -0.0211202 0)
(-0.0848386 -0.0320549 0)
(-0.0859192 -0.0430065 0)
(-0.0870095 -0.0539731 0)
(-0.0881089 -0.0649528 0)
(-0.089216 -0.0759438 0)
(-0.0903291 -0.086944 0)
(-0.0914458 -0.0979513 0)
(-0.0925632 -0.108963 0)
(-0.0936777 -0.119975 0)
(-0.094785 -0.130984 0)
(-0.0958802 -0.141984 0)
(-0.096958 -0.152968 0)
(-0.0980131 -0.163929 0)
(-0.0990404 -0.174858 0)
(-0.100036 -0.185747 0)
(-0.100997 -0.19659 0)
(-0.101925 -0.207386 0)
(-0.102826 -0.218139 0)
(-0.103714 -0.22887 0)
(-0.10461 -0.239618 0)
(-0.10555 -0.25045 0)
(-0.106581 -0.261473 0)
(-0.10777 -0.272842 0)
(-0.109196 -0.284769 0)
(-0.11095 -0.297527 0)
(-0.113125 -0.311443 0)
(-0.115798 -0.326872 0)
(-0.119012 -0.344152 0)
(-0.122735 -0.363517 0)
(-0.126829 -0.38499 0)
(-0.131005 -0.408227 0)
(-0.134799 -0.432358 0)
(-0.137561 -0.455831 0)
(-0.13848 -0.476324 0)
(-0.136671 -0.490777 0)
(-0.131309 -0.495624 0)
(-0.121824 -0.487289 0)
(-0.108119 -0.462942 0)
(-0.0907499 -0.421404 0)
(-0.0709823 -0.363929 0)
(-0.0506574 -0.294452 0)
(-0.0318331 -0.219013 0)
(-0.0163085 -0.14446 0)
(-0.00544818 -0.0769678 0)
(-0.000667676 -0.0210096 0)
(-0.0687529 0.034235 0)
(-0.0697795 0.0234324 0)
(-0.0708196 0.0126009 0)
(-0.0718738 0.00174323 0)
(-0.0729431 -0.00913811 0)
(-0.074028 -0.0200407 0)
(-0.0751288 -0.0309623 0)
(-0.0762457 -0.041901 0)
(-0.0773783 -0.0528553 0)
(-0.078526 -0.0638236 0)
(-0.0796876 -0.0748046 0)
(-0.0808616 -0.0857968 0)
(-0.0820457 -0.0967987 0)
(-0.083237 -0.107808 0)
(-0.0844322 -0.118822 0)
(-0.0856268 -0.129837 0)
(-0.0868161 -0.140849 0)
(-0.0879946 -0.15185 0)
(-0.0891564 -0.162833 0)
(-0.0902956 -0.17379 0)
(-0.0914071 -0.184711 0)
(-0.0924867 -0.195588 0)
(-0.093533 -0.206416 0)
(-0.0945486 -0.217194 0)
(-0.0955419 -0.227935 0)
(-0.0965298 -0.238667 0)
(-0.0975402 -0.249445 0)
(-0.098615 -0.260361 0)
(-0.0998116 -0.271553 0)
(-0.101204 -0.28322 0)
(-0.102881 -0.295625 0)
(-0.104938 -0.309097 0)
(-0.107466 -0.324013 0)
(-0.110527 -0.340756 0)
(-0.114126 -0.359647 0)
(-0.118174 -0.380828 0)
(-0.122443 -0.404116 0)
(-0.126529 -0.428825 0)
(-0.129836 -0.453586 0)
(-0.131589 -0.476214 0)
(-0.130897 -0.493684 0)
(-0.12688 -0.502303 0)
(-0.118857 -0.498159 0)
(-0.106571 -0.477867 0)
(-0.0904019 -0.439547 0)
(-0.0714693 -0.383766 0)
(-0.0515443 -0.314007 0)
(-0.0327223 -0.236263 0)
(-0.0169323 -0.157749 0)
(-0.00572082 -0.0852476 0)
(-0.000717823 -0.0238144 0)
(-0.0588838 0.0352552 0)
(-0.0599111 0.0244681 0)
(-0.0609574 0.0136532 0)
(-0.0620237 0.00281298 0)
(-0.0631108 -0.00805016 0)
(-0.0642193 -0.018934 0)
(-0.0653498 -0.0298367 0)
(-0.0665024 -0.0407566 0)
(-0.0676768 -0.0516924 0)
(-0.0688725 -0.0626431 0)
(-0.0700885 -0.0736077 0)
(-0.0713232 -0.0845855 0)
(-0.0725747 -0.0955753 0)
(-0.0738402 -0.106576 0)
(-0.0751164 -0.117585 0)
(-0.0763991 -0.1286 0)
(-0.0776835 -0.139616 0)
(-0.0789641 -0.150627 0)
(-0.0802349 -0.161627 0)
(-0.0814895 -0.172606 0)
(-0.0827218 -0.183555 0)
(-0.0839264 -0.194464 0)
(-0.0851 -0.205324 0)
(-0.086242 -0.216131 0)
(-0.0873572 -0.22689 0)
(-0.0884573 -0.237621 0)
(-0.0895643 -0.248367 0)
(-0.0907126 -0.259205 0)
(-0.0919524 -0.270257 0)
(-0.0933509 -0.281705 0)
(-0.0949919 -0.2938 0)
(-0.0969709 -0.306865 0)
(-0.0993852 -0.321291 0)
(-0.102314 -0.337496 0)
(-0.105793 -0.35587 0)
(-0.109774 -0.376667 0)
(-0.114084 -0.399853 0)
(-0.118382 -0.424927 0)
(-0.12213 -0.450715 0)
(-0.124596 -0.475193 0)
(-0.124897 -0.495415 0)
(-0.122118 -0.507617 0)
(-0.115482 -0.507602 0)
(-0.104589 -0.491469 0)
(-0.0896471 -0.456639 0)
(-0.0716198 -0.402944 0)
(-0.0521905 -0.333319 0)
(-0.0334673 -0.253606 0)
(-0.017489 -0.171315 0)
(-0.0059746 -0.0938132 0)
(-0.00076661 -0.0267576 0)
(-0.0489551 0.0362724 0)
(-0.0499815 0.0255065 0)
(-0.0510326 0.014714 0)
(-0.0521097 0.00389709 0)
(-0.0532135 -0.00694191 0)
(-0.0543449 -0.0178011 0)
(-0.0555044 -0.0286787 0)
(-0.0566921 -0.0395736 0)
(-0.0579078 -0.0504847 0)
(-0.0591512 -0.0614114 0)
(-0.0604214 -0.0723533 0)
(-0.0617169 -0.0833101 0)
(-0.0630358 -0.0942812 0)
(-0.0643756 -0.105266 0)
(-0.0657331 -0.116263 0)
(-0.0671043 -0.12727 0)
(-0.0684846 -0.138283 0)
(-0.0698685 -0.149298 0)
(-0.07125 -0.160307 0)
(-0.0726224 -0.171303 0)
(-0.0739792 -0.182274 0)
(-0.075314 -0.19321 0)
(-0.0766219 -0.2041 0)
(-0.0779001 -0.214937 0)
(-0.0791502 -0.22572 0)
(-0.0803796 -0.236461 0)
(-0.0816047 -0.247191 0)
(-0.0828533 -0.257975 0)
(-0.0841682 -0.268918 0)
(-0.0856091 -0.280185 0)
(-0.0872536 -0.292011 0)
(-0.0891945 -0.304711 0)
(-0.0915317 -0.318677 0)
(-0.0943569 -0.334355 0)
(-0.097728 -0.35219 0)
(-0.101634 -0.372533 0)
(-0.105952 -0.395494 0)
(-0.1104 -0.420748 0)
(-0.114501 -0.447322 0)
(-0.117571 -0.473379 0)
(-0.118751 -0.496087 0)
(-0.117102 -0.51166 0)
(-0.111774 -0.515674 0)
(-0.102235 -0.503757 0)
(-0.0885283 -0.472641 0)
(-0.0714586 -0.421386 0)
(-0.0526056 -0.352297 0)
(-0.0340685 -0.27096 0)
(-0.0179761 -0.185097 0)
(-0.00620761 -0.10263 0)
(-0.000813569 -0.0298294 0)
(-0.0389696 0.0372849 0)
(-0.0399933 0.0265461 0)
(-0.0410478 0.0157819 0)
(-0.0421343 0.00499439 0)
(-0.0432538 -0.00581437 0)
(-0.0444071 -0.0166426 0)
(-0.0455948 -0.0274891 0)
(-0.046817 -0.0383526 0)
(-0.0480737 -0.0492327 0)
(-0.0493645 -0.060129 0)
(-0.0506886 -0.0710416 0)
(-0.0520447 -0.0819706 0)
(-0.0534311 -0.0929161 0)
(-0.0548454 -0.103878 0)
(-0.0562845 -0.114856 0)
(-0.0577447 -0.125847 0)
(-0.0592216 -0.136851 0)
(-0.0607097 -0.147861 0)
(-0.0622032 -0.158872 0)
(-0.0636954 -0.169877 0)
(-0.0651794 -0.180863 0)
(-0.0666484 -0.191821 0)
(-0.0680961 -0.202737 0)
(-0.0695184 -0.213602 0)
(-0.0709139 -0.224411 0)
(-0.0722867 -0.235167 0)
(-0.0736481 -0.245895 0)
(-0.07502 -0.256644 0)
(-0.0764381 -0.267505 0)
(-0.0779545 -0.278624 0)
(-0.0796396 -0.29022 0)
(-0.0815813 -0.302595 0)
(-0.0838793 -0.316136 0)
(-0.0866325 -0.331307 0)
(-0.0899165 -0.348598 0)
(-0.0937512 -0.368442 0)
(-0.0980577 -0.391077 0)
(-0.10261 -0.416353 0)
(-0.106992 -0.443498 0)
(-0.110573 -0.470877 0)
(-0.112527 -0.495807 0)
(-0.111906 -0.514527 0)
(-0.107802 -0.52244 0)
(-0.0995679 -0.514752 0)
(-0.087091 -0.48753 0)
(-0.0710147 -0.439033 0)
(-0.0528035 -0.370861 0)
(-0.0345297 -0.288246 0)
(-0.0183927 -0.199036 0)
(-0.00641847 -0.111664 0)
(-0.00085828 -0.0330193 0)
(-0.0289295 0.0382909 0)
(-0.0299488 0.0275853 0)
(-0.0310051 0.0168555 0)
(-0.0320998 0.00610365 0)
(-0.0332337 -0.00466856 0)
(-0.0344079 -0.0154596 0)
(-0.0356228 -0.0262684 0)
(-0.0368789 -0.0370942 0)
(-0.038176 -0.0479367 0)
(-0.0395138 -0.058796 0)
(-0.0408917 -0.0696726 0)
(-0.0423084 -0.080567 0)
(-0.0437623 -0.09148 0)
(-0.0452512 -0.102412 0)
(-0.0467722 -0.113363 0)
(-0.0483219 -0.124332 0)
(-0.0498958 -0.135318 0)
(-0.051489 -0.146316 0)
(-0.0530957 -0.157321 0)
(-0.0547093 -0.168326 0)
(-0.0563228 -0.17932 0)
(-0.057929 -0.190292 0)
(-0.0595212 -0.201229 0)
(-0.0610936 -0.212119 0)
(-0.0626432 -0.222951 0)
(-0.0641709 -0.233727 0)
(-0.065684 -0.244459 0)
(-0.067199 -0.255187 0)
(-0.0687449 -0.265987 0)
(-0.0703663 -0.276988 0)
(-0.0721262 -0.28839 0)
(-0.0741061 -0.300478 0)
(-0.0764028 -0.313633 0)
(-0.0791186 -0.328325 0)
(-0.0823419 -0.345077 0)
(-0.0861177 -0.364394 0)
(-0.0904056 -0.386628 0)
(-0.0950314 -0.411793 0)
(-0.0996375 -0.439319 0)
(-0.103651 -0.467783 0)
(-0.106283 -0.494677 0)
(-0.106595 -0.516311 0)
(-0.103631 -0.527969 0)
(-0.0966464 -0.524488 0)
(-0.0853816 -0.501295 0)
(-0.0703201 -0.455839 0)
(-0.0528025 -0.388947 0)
(-0.0348579 -0.305396 0)
(-0.0187396 -0.213074 0)
(-0.00660644 -0.12088 0)
(-0.000900387 -0.036316 0)
(-0.018837 0.0392886 0)
(-0.01985 0.0286224 0)
(-0.0209065 0.0179334 0)
(-0.0220077 0.00722353 0)
(-0.0231547 -0.00350567 0)
(-0.0243486 -0.014253 0)
(-0.0255899 -0.0250175 0)
(-0.0268789 -0.0357989 0)
(-0.0282158 -0.0465972 0)