/*--------------------------------*- C++ -*----------------------------------*\
  =========                 |
  \\      /  F ield         | OpenFOAM: The Open Source CFD Toolbox
   \\    /   O peration     | Website:  https://openfoam.org
    \\  /    A nd           | Version:  9
     \\/     M anipulation  |
\*---------------------------------------------------------------------------*/
FoamFile
{
    format      ascii;
    class       volVectorField;
    location    "0.25";
    object      U;
}
// * * * * * * * * * * * * * * * * * * * * * * * * * * * * * * * * * * * * * //

dimensions      [0 1 -1 0 0 0 0];

internalField   nonuniform List<vector> 
1260
(
(-0.0445923 0.0307748 0)
(-0.0459626 0.030323 0)
(-0.0473882 0.0298444 0)
(-0.0488736 0.0293333 0)
(-0.050423 0.0287832 0)
(-0.0520432 0.0281856 0)
(-0.053738 0.0275309 0)
(-0.0555123 0.0268093 0)
(-0.0573716 0.0260102 0)
(-0.0593204 0.0251211 0)
(-0.0613627 0.0241275 0)
(-0.0635017 0.0230126 0)
(-0.0657398 0.0217574 0)
(-0.0680779 0.0203406 0)
(-0.0705149 0.0187381 0)
(-0.0730474 0.0169232 0)
(-0.075669 0.0148662 0)
(-0.0783694 0.012535 0)
(-0.0811338 0.00989486 0)
(-0.0839417 0.00690936 0)
(-0.0867663 0.00354135 0)
(-0.0895741 -0.000245407 0)
(-0.0923246 -0.00448415 0)
(-0.0949697 -0.00920346 0)
(-0.0974461 -0.0144224 0)
(-0.0997031 -0.0201405 0)
(-0.0450111 0.0321319 0)
(-0.046406 0.0317355 0)
(-0.0478608 0.0313172 0)
(-0.0493812 0.0308715 0)
(-0.050973 0.0303921 0)
(-0.0526422 0.0298709 0)
(-0.0543953 0.0292985 0)
(-0.0562389 0.028665 0)
(-0.0581799 0.0279596 0)
(-0.0602245 0.0271695 0)
(-0.0623789 0.0262795 0)
(-0.0646485 0.0252721 0)
(-0.0670384 0.0241273 0)
(-0.069552 0.022822 0)
(-0.0721914 0.0213304 0)
(-0.0749566 0.0196228 0)
(-0.0778446 0.0176665 0)
(-0.0808489 0.0154249 0)
(-0.0839586 0.0128583 0)
(-0.0871573 0.00992444 0)
(-0.0904224 0.0065794 0)
(-0.0937246 0.00277954 0)
(-0.097029 -0.0015159 0)
(-0.100293 -0.00634179 0)
(-0.103455 -0.0117241 0)
(-0.106472 -0.017668 0)
(-0.0453781 0.0335087 0)
(-0.0467917 0.0331721 0)
(-0.0482698 0.0328194 0)
(-0.0498192 0.0324454 0)
(-0.0514466 0.0320439 0)
(-0.0531592 0.0316075 0)
(-0.0549648 0.0311273 0)
(-0.0568717 0.0305936 0)
(-0.0588884 0.0299955 0)
(-0.0610232 0.0293197 0)
(-0.0632845 0.0285511 0)
(-0.0656804 0.0276716 0)
(-0.0682186 0.0266603 0)
(-0.0709062 0.0254932 0)
(-0.0737488 0.0241423 0)
(-0.0767505 0.0225759 0)
(-0.0799129 0.0207582 0)
(-0.0832345 0.0186487 0)
(-0.0867099 0.0162031 0)
(-0.0903291 0.0133735 0)
(-0.0940763 0.0101098 0)
(-0.0979302 0.00636161 0)
(-0.101864 0.00208137 0)
(-0.105846 -0.00277217 0)
(-0.109826 -0.00823036 0)
(-0.113773 -0.014304 0)
(-0.0456863 0.0348993 0)
(-0.047112 0.0346267 0)
(-0.0486067 0.0343445 0)
(-0.0501778 0.0340481 0)
(-0.0518334 0.0337318 0)
(-0.0535817 0.0333886 0)
(-0.0554319 0.0330105 0)
(-0.057394 0.0325881 0)
(-0.059478 0.0321106 0)
(-0.0616946 0.031565 0)
(-0.0640546 0.0309361 0)
(-0.066569 0.0302056 0)
(-0.0692488 0.0293524 0)
(-0.0721048 0.0283516 0)
(-0.075147 0.027174 0)
(-0.0783844 0.0257862 0)
(-0.0818244 0.0241499 0)
(-0.0854718 0.0222214 0)
(-0.0893289 0.0199526 0)
(-0.0933942 0.0172909 0)
(-0.0976622 0.0141813 0)
(-0.102123 0.0105682 0)
(-0.106765 0.00639897 0)
(-0.111573 0.00162665 0)
(-0.11651 -0.00378379 0)
(-0.12157 -0.00984841 0)
(-0.0459319 0.0362969 0)
(-0.0473625 0.0360921 0)
(-0.048866 0.0358851 0)
(-0.0504508 0.0356719 0)
(-0.0521259 0.0354474 0)
(-0.0539008 0.0352057 0)
(-0.055786 0.0349392 0)
(-0.0577931 0.0346392 0)
(-0.0599339 0.0342956 0)
(-0.0622215 0.0338958 0)
(-0.0646691 0.0334249 0)
(-0.0672911 0.0328652 0)
(-0.0701019 0.0321954 0)
(-0.0731165 0.0313906 0)
(-0.0763501 0.0304211 0)
(-0.0798173 0.0292525 0)
(-0.0835323 0.0278448 0)
(-0.0875082 0.0261526 0)
(-0.0917566 0.0241249 0)
(-0.0962875 0.0217065 0)
(-0.101109 0.0188392 0)
(-0.106228 0.0154647 0)
(-0.111652 0.0115279 0)
(-0.117388 0.00697964 0)
(-0.123423 0.0017813 0)
(-0.129779 -0.00408913 0)
(-0.0461115 0.0376942 0)
(-0.0475392 0.0375605 0)
(-0.0490431 0.0374327 0)
(-0.0506324 0.0373078 0)
(-0.0523172 0.0371814 0)
(-0.0541082 0.0370484 0)
(-0.0560171 0.0369024 0)
(-0.058057 0.0367356 0)
(-0.060242 0.0365385 0)
(-0.0625869 0.0362996 0)
(-0.0651082 0.036005 0)
(-0.0678231 0.0356376 0)
(-0.0707502 0.0351771 0)
(-0.073909 0.0345989 0)
(-0.0773201 0.0338738 0)
(-0.0810048 0.0329675 0)
(-0.0849853 0.0318397 0)
(-0.0892841 0.0304446 0)
(-0.0939245 0.0287308 0)
(-0.0989306 0.0266424 0)
(-0.104328 0.0241213 0)
(-0.110143 0.0211098 0)
(-0.116411 0.0175538 0)
(-0.123166 0.013405 0)
(-0.130422 0.00862265 0)
(-0.138236 0.0031751 0)
(-0.0462222 0.0390834 0)
(-0.0476385 0.0390233 0)
(-0.0491336 0.0389783 0)
(-0.0507175 0.0389458 0)
(-0.0524011 0.0389228 0)
(-0.0541962 0.0389052 0)
(-0.0561159 0.0388876 0)
(-0.0581748 0.0388636 0)
(-0.0603886 0.0388249 0)
(-0.0627748 0.0387614 0)
(-0.0653523 0.0386603 0)
(-0.0681418 0.0385064 0)
(-0.0711659 0.0382804 0)
(-0.0744489 0.0379595 0)
(-0.0780175 0.0375159 0)
(-0.0819001 0.0369165 0)
(-0.0861277 0.0361227 0)
(-0.0907337 0.0350903 0)
(-0.095755 0.0337698 0)
(-0.101232 0.0321083 0)
(-0.107211 0.0300511 0)
(-0.113743 0.0275456 0)
(-0.120893 0.0245428 0)
(-0.128727 0.0209975 0)
(-0.137289 0.0168666 0)
(-0.146671 0.0121028 0)
(-0.0462621 0.040456 0)
(-0.047658 0.0404716 0)
(-0.0491344 0.0405117 0)
(-0.0507019 0.040575 0)
(-0.0523723 0.0406597 0)
(-0.0541583 0.0407628 0)
(-0.0560743 0.0408805 0)
(-0.0581362 0.0410078 0)
(-0.0603615 0.041138 0)
(-0.06277 0.0412627 0)
(-0.065383 0.0413713 0)
(-0.0682248 0.0414504 0)
(-0.0713218 0.0414833 0)
(-0.0747034 0.0414494 0)
(-0.0784022 0.0413237 0)
(-0.0824546 0.0410763 0)
(-0.0869008 0.0406718 0)
(-0.0917862 0.0400702 0)
(-0.0971622 0.0392272 0)
(-0.103088 0.0380963 0)
(-0.109632 0.0366312 0)
(-0.116873 0.0347882 0)
(-0.124906 0.032527 0)
(-0.133831 0.0298071 0)
(-0.143721 0.0265791 0)
(-0.154694 0.0227691 0)
(-0.0462302 0.0418032 0)
(-0.047596 0.0418953 0)
(-0.049043 0.0420221 0)
(-0.0505825 0.0421835 0)
(-0.0522267 0.0423789 0)
(-0.0539892 0.0426068 0)
(-0.0558855 0.0428651 0)
(-0.0579328 0.0431504 0)
(-0.0601501 0.0434582 0)
(-0.0625591 0.0437823 0)
(-0.0651838 0.0441145 0)
(-0.0680514 0.0444443 0)
(-0.0711922 0.0447581 0)
(-0.0746406 0.0450389 0)
(-0.0784352 0.0452658 0)
(-0.0826199 0.0454135 0)
(-0.0872448 0.0454526 0)
(-0.0923673 0.0453499 0)
(-0.0980545 0.0450696 0)
(-0.104384 0.0445758 0)
(-0.111448 0.0438346 0)
(-0.119353 0.0428154 0)
(-0.128222 0.0414888 0)
(-0.138186 0.0398171 0)
(-0.149337 0.0377368 0)
(-0.161807 0.0351303 0)
(-0.0461261 0.0431156 0)
(-0.0474518 0.0432842 0)
(-0.0488584 0.0434981 0)
(-0.0503575 0.0437585 0)
(-0.0519616 0.0440661 0)
(-0.0536853 0.0444214 0)
(-0.0555447 0.0448237 0)
(-0.0575579 0.0452719 0)
(-0.0597456 0.0457638 0)
(-0.062131 0.0462958 0)
(-0.0647403 0.046863 0)
(-0.0676034 0.047458 0)
(-0.0707542 0.0480716 0)
(-0.0742314 0.0486913 0)
(-0.0780795 0.0493018 0)
(-0.0823496 0.0498844 0)
(-0.0871011 0.0504176 0)
(-0.0924032 0.050878 0)
(-0.0983377 0.051242 0)
(-0.105001 0.0514879 0)
(-0.112506 0.0515978 0)
(-0.120983 0.0515569 0)
(-0.130582 0.051346 0)
(-0.141451 0.0509253 0)
(-0.153696 0.0502041 0)
(-0.167439 0.0490001 0)
(-0.0459507 0.0443836 0)
(-0.047226 0.0446274 0)
(-0.0485807 0.0449276 0)
(-0.0500263 0.0452865 0)
(-0.051576 0.0457065 0)
(-0.0532445 0.0461896 0)
(-0.0550486 0.0467374 0)
(-0.0570073 0.047351 0)
(-0.059142 0.0480308 0)
(-0.0614774 0.0487765 0)
(-0.0640414 0.0495864 0)
(-0.0668662 0.0504575 0)
(-0.0699885 0.0513854 0)
(-0.073451 0.0523634 0)
(-0.077303 0.053383 0)
(-0.0816019 0.054434 0)
(-0.0864155 0.0555049 0)
(-0.0918234 0.0565849 0)
(-0.0979203 0.0576654 0)
(-0.104818 0.058742 0)
(-0.112648 0.0598153 0)
(-0.121558 0.0608862 0)
(-0.131714 0.0619427 0)
(-0.143274 0.062933 0)
(-0.156336 0.0637233 0)
(-0.170998 0.0640427 0)
(-0.0457057 0.0455971 0)
(-0.0469202 0.0459141 0)
(-0.0482112 0.0462983 0)
(-0.0495903 0.0467536 0)
(-0.0510706 0.0472842 0)
(-0.0526671 0.0478938 0)
(-0.0543968 0.0485862 0)
(-0.0562792 0.0493651 0)
(-0.0583363 0.0502336 0)
(-0.0605936 0.0511949 0)
(-0.0630802 0.0522514 0)
(-0.0658297 0.0534047 0)
(-0.0688813 0.054656 0)
(-0.0722802 0.0560052 0)
(-0.0760797 0.0574522 0)
(-0.0803422 0.0589963 0)
(-0.0851418 0.0606384 0)
(-0.0905663 0.0623821 0)
(-0.0967201 0.0642359 0)
(-0.103727 0.0662147 0)
(-0.111728 0.0683376 0)
(-0.120884 0.0706193 0)
(-0.131363 0.073048 0)
(-0.143317 0.0755479 0)
(-0.156829 0.0779233 0)
(-0.171948 0.0797933 0)
(-0.0453942 0.0467465 0)
(-0.0465374 0.0471329 0)
(-0.0477529 0.0475975 0)
(-0.0490521 0.0481457 0)
(-0.0504479 0.0487832 0)
(-0.0519553 0.0495158 0)
(-0.0535912 0.0503494 0)
(-0.055375 0.0512904 0)
(-0.0573289 0.0523451 0)
(-0.0594787 0.0535202 0)
(-0.0618541 0.0548224 0)
(-0.0644893 0.0562585 0)
(-0.0674247 0.0578358 0)
(-0.0707073 0.0595617 0)
(-0.0743924 0.061445 0)
(-0.0785458 0.0634961 0)
(-0.0832453 0.0657292 0)
(-0.0885837 0.0681637 0)
(-0.0946709 0.0708264 0)
(-0.101636 0.0737512 0)
(-0.109624 0.0769745 0)
(-0.118796 0.0805194 0)
(-0.129312 0.0843656 0)
(-0.141307 0.0883994 0)
(-0.154832 0.0923465 0)
(-0.169883 0.0956999 0)
(-0.0450202 0.0478216 0)
(-0.0460819 0.0482728 0)
(-0.0472102 0.0488129 0)
(-0.0484163 0.0494486 0)
(-0.0497127 0.0501874 0)
(-0.0511138 0.0510371 0)
(-0.0526363 0.0520059 0)
(-0.0542991 0.0531029 0)
(-0.056124 0.0543375 0)
(-0.0581365 0.0557202 0)
(-0.060366 0.0572621 0)
(-0.0628466 0.0589756 0)
(-0.0656187 0.0608742 0)
(-0.0687294 0.0629734 0)
(-0.0722348 0.0652914 0)
(-0.0762011 0.0678502 0)
(-0.0807072 0.0706777 0)
(-0.0858468 0.0738097 0)
(-0.0917302 0.0772905 0)
(-0.0984848 0.0811718 0)
(-0.106253 0.085503 0)
(-0.115183 0.0903095 0)
(-0.125418 0.0955526 0)
(-0.137062 0.101068 0)
(-0.150136 0.10649 0)
(-0.164576 0.111179 0)
(-0.0445892 0.048813 0)
(-0.0455592 0.049323 0)
(-0.0465891 0.049932 0)
(-0.0476893 0.0506482 0)
(-0.0488717 0.0514809 0)
(-0.0501499 0.0524395 0)
(-0.0515398 0.0535348 0)
(-0.0530595 0.0547784 0)
(-0.0547299 0.0561829 0)
(-0.0565754 0.0577625 0)
(-0.0586244 0.0595329 0)
(-0.06091 0.0615119 0)
(-0.0634711 0.0637194 0)
(-0.0663538 0.0661789 0)
(-0.0696123 0.0689181 0)
(-0.0733113 0.0719706 0)
(-0.0775271 0.0753778 0)
(-0.0823502 0.0791906 0)
(-0.0878856 0.0834696 0)
(-0.0942526 0.0882805 0)
(-0.10158 0.0936809 0)
(-0.11 0.0996913 0)
(-0.119625 0.106245 0)
(-0.130528 0.113119 0)
(-0.142694 0.119851 0)
(-0.156015 0.12567 0)
(-0.0441074 0.0497112 0)
(-0.0449761 0.0502729 0)
(-0.045897 0.050943 0)
(-0.0468792 0.0517312 0)
(-0.0479336 0.0526482 0)
(-0.049073 0.0537055 0)
(-0.050312 0.0549159 0)
(-0.0516675 0.0562934 0)
(-0.0531588 0.057854 0)
(-0.0548088 0.0596154 0)
(-0.0566438 0.0615976 0)
(-0.058695 0.0638235 0)
(-0.0609988 0.0663195 0)
(-0.0635982 0.0691165 0)
(-0.066544 0.0722514 0)
(-0.0698963 0.0757684 0)
(-0.0737259 0.0797213 0)
(-0.0781154 0.0841742 0)
(-0.0831593 0.0892009 0)
(-0.0889626 0.094877 0)
(-0.0956349 0.101263 0)
(-0.103281 0.108366 0)
(-0.111983 0.116087 0)
(-0.121779 0.12414 0)
(-0.132627 0.131967 0)
(-0.144384 0.138683 0)
(-0.156824 0.143102 0)
(-0.169578 0.14387 0)
(-0.182209 0.139682 0)
(-0.0435814 0.0505078 0)
(-0.0443405 0.0511129 0)
(-0.0451425 0.051835 0)
(-0.0459955 0.0526851 0)
(-0.0469092 0.0536751 0)
(-0.0478951 0.0548184 0)
(-0.0489663 0.0561298 0)
(-0.0501377 0.0576258 0)
(-0.0514271 0.059325 0)
(-0.0528548 0.0612485 0)
(-0.0544446 0.0634205 0)
(-0.0562245 0.0658685 0)
(-0.0582273 0.0686247 0)
(-0.0604915 0.0717268 0)
(-0.0630624 0.0752198 0)
(-0.0659932 0.0791572 0)
(-0.0693459 0.0836032 0)
(-0.0731915 0.0886324 0)
(-0.0776096 0.0943277 0)
(-0.0826856 0.10077 0)
(-0.0885045 0.108016 0)
(-0.095141 0.116057 0)
(-0.102645 0.124756 0)
(-0.111022 0.133767 0)
(-0.120211 0.14245 0)
(-0.130071 0.149829 0)
(-0.140383 0.154624 0)
(-0.15087 0.155415 0)
(-0.16117 0.150874 0)
(-0.0430185 0.0511954 0)
(-0.0436608 0.0518345 0)
(-0.0443355 0.0525982 0)
(-0.0450494 0.0534983 0)
(-0.0458111 0.0545483 0)
(-0.0466303 0.0557631 0)
(-0.0475182 0.0571591 0)
(-0.048488 0.0587551 0)
(-0.0495548 0.0605721 0)
(-0.0507361 0.0626342 0)
(-0.0520524 0.064969 0)
(-0.0535278 0.0676082 0)
(-0.0551903 0.0705891 0)
(-0.0570725 0.0739551 0)
(-0.0592128 0.0777577 0)
(-0.0616551 0.0820579 0)
(-0.0644502 0.0869275 0)
(-0.0676545 0.0924485 0)
(-0.0713293 0.0987086 0)
(-0.0755368 0.105789 0)
(-0.0803345 0.113738 0)
(-0.085766 0.122528 0)
(-0.0918497 0.131985 0)
(-0.0985659 0.141712 0)
(-0.105845 0.151006 0)
(-0.113562 0.158823 0)
(-0.121543 0.16383 0)
(-0.129594 0.164569 0)
(-0.137463 0.159712 0)
(-0.0424283 0.0517677 0)
(-0.0429472 0.0524302 0)
(-0.043487 0.0532238 0)
(-0.0440534 0.054161 0)
(-0.0446531 0.0552565 0)
(-0.0452942 0.0565262 0)
(-0.0459859 0.0579884 0)
(-0.0467387 0.0596633 0)
(-0.0475651 0.0615743 0)
(-0.0484793 0.0637478 0)
(-0.0494979 0.0662142 0)
(-0.0506403 0.0690088 0)
(-0.0519289 0.0721726 0)
(-0.0533896 0.0757535 0)
(-0.055052 0.0798078 0)
(-0.0569498 0.0844018 0)
(-0.0591204 0.089612 0)
(-0.0616038 0.0955238 0)
(-0.0644407 0.102226 0)
(-0.0676686 0.109795 0)
(-0.0713168 0.118268 0)
(-0.0753987 0.127596 0)
(-0.0799051 0.137576 0)
(-0.0847979 0.147771 0)
(-0.090008 0.157435 0)
(-0.0954378 0.165491 0)
(-0.100974 0.170582 0)
(-0.106518 0.171249 0)
(-0.111942 0.16618 0)
(-0.04182 0.0522189 0)
(-0.04221 0.0528937 0)
(-0.0426089 0.0537046 0)
(-0.0430207 0.0546648 0)
(-0.0434504 0.0557898 0)
(-0.0439041 0.0570966 0)
(-0.0443887 0.0586046 0)
(-0.0449122 0.0603354 0)
(-0.0454838 0.0623141 0)
(-0.0461141 0.0645688 0)
(-0.0468155 0.0671323 0)
(-0.0476022 0.0700421 0)
(-0.0484902 0.073342 0)
(-0.0494981 0.0770829 0)
(-0.0506461 0.0813241 0)
(-0.0519564 0.0861344 0)
(-0.0534524 0.091592 0)
(-0.0551565 0.0977824 0)
(-0.0570884 0.104791 0)
(-0.0592611 0.112686 0)
(-0.0616765 0.121493 0)
(-0.0643208 0.131142 0)
(-0.0671614 0.141406 0)
(-0.0701483 0.151824 0)
(-0.0732198 0.161634 0)
(-0.0763132 0.169753 0)
(-0.0793817 0.174837 0)
(-0.0824235 0.175448 0)
(-0.0854383 0.170313 0)
(-0.0412027 0.0525444 0)
(-0.0414596 0.0532198 0)
(-0.0417128 0.0540347 0)
(-0.0419647 0.055003 0)
(-0.0422183 0.0561407 0)
(-0.0424776 0.0574655 0)
(-0.0427472 0.0589976 0)
(-0.0430321 0.0607597 0)
(-0.0433382 0.0627778 0)
(-0.0436723 0.0650815 0)
(-0.0440422 0.0677048 0)
(-0.0444567 0.0706867 0)
(-0.0449253 0.0740726 0)
(-0.0454586 0.0779145 0)
(-0.0460673 0.0822729 0)
(-0.046762 0.0872168 0)
(-0.0475515 0.0928232 0)
(-0.0484414 0.0991743 0)
(-0.0494309 0.106349 0)
(-0.0505101 0.114405 0)
(-0.0516562 0.123353 0)
(-0.0528319 0.133107 0)
(-0.0539863 0.143425 0)
(-0.0550623 0.153837 0)
(-0.0560097 0.163587 0)
(-0.0568022 0.171616 0)
(-0.0574574 0.176621 0)
(-0.0580643 0.177215 0)
(-0.0587411 0.172169 0)
(-0.0405844 0.0527408 0)
(-0.0407054 0.0534047 0)
(-0.0408098 0.0542099 0)
(-0.0408981 0.0551708 0)
(-0.0409717 0.0563036 0)
(-0.0410321 0.0576265 0)
(-0.0410815 0.0591602 0)
(-0.0411218 0.0609278 0)
(-0.0411558 0.062956 0)
(-0.0411861 0.065275 0)
(-0.041216 0.0679193 0)
(-0.0412486 0.0709286 0)
(-0.0412871 0.0743482 0)
(-0.0413341 0.0782303 0)
(-0.0413909 0.0826344 0)
(-0.0414569 0.0876275 0)
(-0.0415273 0.0932829 0)
(-0.0415916 0.0996764 0)
(-0.041631 0.106878 0)
(-0.041615 0.114933 0)
(-0.0415002 0.123839 0)
(-0.0412302 0.133496 0)
(-0.0407405 0.143655 0)
(-0.0399707 0.153852 0)
(-0.0388829 0.163358 0)
(-0.0374844 0.171162 0)
(-0.035849 0.176028 0)
(-0.034143 0.176642 0)
(-0.0325876 0.171827 0)
(-0.0399714 0.052806 0)
(-0.0399548 0.053446 0)
(-0.0399088 0.0542277 0)
(-0.0398319 0.0551654 0)
(-0.0397235 0.0562755 0)
(-0.039583 0.0575763 0)
(-0.0394099 0.0590885 0)
(-0.0392034 0.0608355 0)
(-0.0389626 0.0628439 0)
(-0.0386864 0.0651439 0)
(-0.0383735 0.06777 0)
(-0.0380215 0.0707613 0)
(-0.0376275 0.0741624 0)
(-0.0371865 0.0780238 0)
(-0.0366912 0.0824027 0)
(-0.0361304 0.087362 0)
(-0.0354873 0.0929693 0)
(-0.0347375 0.0992921 0)
(-0.0338464 0.106389 0)
(-0.0327672 0.114294 0)
(-0.03144 0.12299 0)
(-0.0297943 0.132369 0)
(-0.0277565 0.142181 0)
(-0.0252653 0.151981 0)
(-0.0222942 0.161081 0)
(-0.0188778 0.16854 0)
(-0.0151346 0.173211 0)
(-0.01129 0.173865 0)
(-0.00764748 0.169394 0)
(-0.0393662 0.0527391 0)
(-0.0392118 0.053343 0)
(-0.0390151 0.0540872 0)
(-0.038773 0.054986 0)
(-0.0384828 0.0560556 0)
(-0.0381419 0.057314 0)
(-0.0377471 0.0587818 0)
(-0.0372948 0.0604821 0)
(-0.0367808 0.062441 0)
(-0.0362003 0.0646882 0)
(-0.0355475 0.0672572 0)
(-0.0348152 0.0701861 0)
(-0.0339944 0.0735175 0)
(-0.0330736 0.0772995 0)
(-0.0320374 0.0815851 0)
(-0.0308658 0.0864321 0)
(-0.0295318 0.0919007 0)
(-0.0279993 0.0980487 0)
(-0.0262218 0.104923 0)
(-0.0241399 0.112545 0)
(-0.0216821 0.120885 0)
(-0.0187688 0.12983 0)
(-0.0153213 0.139137 0)
(-0.0112797 0.148388 0)
(-0.00662667 0.156948 0)
(-0.00141627 0.163959 0)
(0.0042022 0.168374 0)
(0.00996298 0.169068 0)
(0.0155029 0.165008 0)
(-0.0387654 0.0525401 0)
(-0.0384738 0.0530959 0)
(-0.0381276 0.0537892 0)
(-0.0377218 0.0546337 0)
(-0.037252 0.0556453 0)
(-0.0367134 0.0568417 0)
(-0.0361005 0.0582427 0)
(-0.0354069 0.0598708 0)
(-0.0346253 0.0617513 0)
(-0.0337474 0.0639129 0)
(-0.0327633 0.0663877 0)
(-0.0316614 0.0692116 0)
(-0.0304274 0.0724249 0)
(-0.029044 0.0760721 0)
(-0.0274891 0.0802014 0)
(-0.0257353 0.0848643 0)
(-0.0237474 0.0901126 0)
(-0.0214811 0.095994 0)
(-0.0188809 0.102544 0)
(-0.0158793 0.10977 0)
(-0.012398 0.117635 0)
(-0.00835302 0.126022 0)
(-0.0036644 0.134698 0)
(0.00172406 0.14328 0)
(0.00782357 0.151194 0)
(0.0145679 0.157668 0)
(0.0217879 0.161769 0)
(0.0291967 0.16248 0)
(0.0363966 0.158854 0)
(-0.0381562 0.0522099 0)
(-0.0377287 0.0527061 0)
(-0.0372349 0.0533355 0)
(-0.0366683 0.0541111 0)
(-0.0360226 0.0550482 0)
(-0.0352912 0.0561636 0)
(-0.0344662 0.0574765 0)
(-0.0335388 0.0590084 0)
(-0.0324989 0.0607833 0)
(-0.0313349 0.0628284 0)
(-0.0300335 0.0651739 0)
(-0.028579 0.0678535 0)
(-0.0269526 0.070904 0)
(-0.025132 0.074366 0)
(-0.0230901 0.0782823 0)
(-0.0207936 0.0826976 0)
(-0.0182016 0.0876552 0)
(-0.0152638 0.0931924 0)
(-0.0119197 0.0993332 0)
(-0.00809778 0.106075 0)
(-0.00371731 0.113371 0)
(0.00130493 0.121105 0)
(0.00704833 0.129062 0)
(0.0135648 0.13689 0)
(0.0208563 0.14408 0)
(0.0288511 0.149951 0)
(0.0373744 0.153682 0)
(0.0461324 0.154374 0)
(0.0547146 0.151171 0)
(-0.037511 0.0517495 0)
(-0.0369488 0.0521756 0)
(-0.0363096 0.0527289 0)
(-0.0355856 0.0534221 0)
(-0.0347689 0.0542692 0)
(-0.033851 0.0552864 0)
(-0.0328221 0.0564915 0)
(-0.0316711 0.057905 0)
(-0.0303854 0.0595493 0)
(-0.0289508 0.0614497 0)
(-0.0273507 0.0636342 0)
(-0.025566 0.0661337 0)
(-0.0235745 0.0689817 0)
(-0.0213499 0.072214 0)
(-0.018861 0.0758683 0)
(-0.0160706 0.079982 0)
(-0.0129339 0.0845902 0)
(-0.00939786 0.0897207 0)
(-0.00539973 0.095387 0)
(-0.000868145 0.101577 0)
(0.0042775 0.108239 0)
(0.0101171 0.11526 0)
(0.0167219 0.122439 0)
(0.0241388 0.129461 0)
(0.0323645 0.13588 0)
(0.0413237 0.141105 0)
(0.0508437 0.144425 0)
(0.0606367 0.145056 0)
(0.0702967 0.142239 0)
(-0.0367794 0.0511594 0)
(-0.0360829 0.0515058 0)
(-0.0353001 0.0519725 0)
(-0.0344219 0.0525709 0)
(-0.0334392 0.0533144 0)
(-0.0323418 0.0542179 0)
(-0.0311183 0.0552979 0)
(-0.0297558 0.0565732 0)
(-0.0282395 0.0580648 0)
(-0.0265528 0.0597957 0)
(-0.0246766 0.0617915 0)
(-0.0225893 0.0640801 0)
(-0.0202655 0.0666912 0)
(-0.0176763 0.0696564 0)
(-0.0147877 0.0730077 0)
(-0.0115599 0.076776 0)
(-0.00794644 0.0809887 0)
(-0.00389329 0.0856649 0)
(0.000661277 0.0908094 0)
(0.00578761 0.0964033 0)
(0.0115607 0.102392 0)
(0.0180532 0.108664 0)
(0.0253289 0.115037 0)
(0.0334261 0.121234 0)
(0.0423368 0.126866 0)
(0.0519846 0.131427 0)
(0.062203 0.134309 0)
(0.0727188 0.134842 0)
(0.083144 0.132363 0)
(-0.0358775 0.0504386 0)
(-0.0350447 0.0506973 0)
(-0.0341181 0.0510681 0)
(-0.0330876 0.0515617 0)
(-0.0319428 0.05219 0)
(-0.0306725 0.0529666 0)
(-0.0292639 0.0539068 0)
(-0.0277026 0.0550276 0)
(-0.0259721 0.0563479 0)
(-0.024054 0.0578887 0)
(-0.0219273 0.0596729 0)
(-0.0195683 0.0617251 0)
(-0.0169498 0.0640717 0)
(-0.0140407 0.0667397 0)
(-0.0108055 0.0697559 0)
(-0.00720317 0.0731453 0)
(-0.00318704 0.0769285 0)
(0.00129607 0.0811174 0)
(0.00630583 0.0857101 0)
(0.0119076 0.0906828 0)
(0.0181691 0.0959779 0)
(0.025155 0.101492 0)
(0.0329189 0.10706 0)
(0.0414899 0.112438 0)
(0.0508541 0.117293 0)
(0.0609354 0.121196 0)
(0.0715759 0.123635 0)
(0.0825213 0.124043 0)
(0.0934101 0.121852 0)
(-0.0346714 0.049583 0)
(-0.0336966 0.0497475 0)
(-0.0326223 0.0500154 0)
(-0.0314379 0.050396 0)
(-0.0301322 0.0509002 0)
(-0.0286932 0.05154 0)
(-0.0271072 0.0523291 0)
(-0.0253587 0.0532827 0)
(-0.02343 0.0544177 0)
(-0.0213016 0.0557527 0)
(-0.0189512 0.0573079 0)
(-0.0163536 0.0591049 0)
(-0.0134805 0.0611663 0)
(-0.0102998 0.0635151 0)
(-0.00677519 0.0661735 0)
(-0.00286577 0.0691612 0)
(0.00147439 0.072493 0)
(0.00629648 0.0761755 0)
(0.0116563 0.0802014 0)
(0.017613 0.0845436 0)
(0.0242264 0.0891456 0)
(0.0315518 0.0939115 0)
(0.039632 0.0986942 0)
(0.0484862 0.103283 0)
(0.0580947 0.107393 0)
(0.0683814 0.110666 0)
(0.079198 0.112674 0)
(0.0903108 0.112944 0)
(0.101389 0.111 0)
(-0.0329553 0.0485832 0)
(-0.0318262 0.0486492 0)
(-0.0305944 0.0488094 0)
(-0.029249 0.0490719 0)
(-0.0277783 0.049446 0)
(-0.0261701 0.0499425 0)
(-0.0244102 0.0505732 0)
(-0.0224824 0.0513515 0)
(-0.0203687 0.0522922 0)
(-0.0180487 0.0534114 0)
(-0.0154997 0.0547266 0)
(-0.012696 0.0562565 0)
(-0.00960863 0.0580202 0)
(-0.00620543 0.0600369 0)
(-0.00245026 0.0623245 0)
(0.00169696 0.0648984 0)
(0.00628045 0.0677691 0)
(0.0113483 0.0709385 0)
(0.0169518 0.0743962 0)
(0.0231437 0.078114 0)
(0.0299756 0.0820382 0)
(0.037493 0.086082 0)
(0.0457284 0.0901158 0)
(0.0546917 0.0939589 0)
(0.0643571 0.0973722 0)
(0.0746492 0.100057 0)
(0.0854292 0.101662 0)
(0.0964838 0.101797 0)
(0.107514 0.100067 0)
(-0.0304202 0.0474219 0)
(-0.0291152 0.0473875 0)
(-0.027707 0.047438 0)
(-0.0261847 0.0475801 0)
(-0.0245367 0.0478219 0)
(-0.0227509 0.0481725 0)
(-0.020813 0.0486421 0)
(-0.018707 0.0492421 0)
(-0.0164149 0.0499852 0)
(-0.0139165 0.050885 0)
(-0.0111889 0.0519566 0)
(-0.00820678 0.0532154 0)
(-0.00494164 0.0546775 0)
(-0.00136195 0.0563586 0)
(0.00256756 0.0582731 0)
(0.00688536 0.0604326 0)
(0.011633 0.0628438 0)
(0.0168551 0.0655061 0)
(0.0225982 0.0684073 0)
(0.0289086 0.0715196 0)
(0.0358303 0.074794 0)
(0.0433997 0.0781533 0)
(0.0516401 0.0814856 0)
(0.0605532 0.0846382 0)
(0.0701085 0.0874121 0)
(0.0802318 0.0895619 0)
(0.0907937 0.0908008 0)
(0.101601 0.0908125 0)
(0.112387 0.0892739 0)
(-0.0266105 0.0460708 0)
(-0.0250952 0.0459367 0)
(-0.0234792 0.0458785 0)
(-0.0217519 0.0459015 0)
(-0.0199024 0.0460126 0)
(-0.0179189 0.0462192 0)
(-0.0157878 0.0465298 0)
(-0.0134938 0.0469541 0)
(-0.0110193 0.0475024 0)
(-0.00834511 0.0481863 0)
(-0.00544916 0.049018 0)
(-0.00230701 0.0500104 0)
(0.00110853 0.0511765 0)
(0.00482768 0.0525288 0)
(0.00888368 0.0540787 0)
(0.0133126 0.0558346 0)
(0.018153 0.0578005 0)
(0.0234457 0.059974 0)
(0.0292322 0.0623426 0)
(0.035553 0.0648805 0)
(0.0424449 0.0675438 0)
(0.0499369 0.070266 0)
(0.0580448 0.0729522 0)
(0.0667641 0.0754754 0)
(0.0760613 0.0776724 0)
(0.0858649 0.0793441 0)
(0.0960557 0.0802596 0)
(0.10646 0.0801652 0)
(0.116842 0.0788004 0)
(-0.0208637 0.0444869 0)
(-0.0190877 0.0442567 0)
(-0.0172165 0.044094 0)
(-0.0152406 0.044003 0)
(-0.0131497 0.0439889 0)
(-0.0109332 0.044058 0)
(-0.00857853 0.0442171 0)
(-0.00607134 0.0444739 0)
(-0.0033956 0.0448369 0)
(-0.000533278 0.0453153 0)
(0.00253605 0.045919 0)
(0.00583511 0.0466583 0)
(0.00938905 0.0475434 0)
(0.0132258 0.0485841 0)
(0.017376 0.0497889 0)
(0.0218725 0.0511638 0)
(0.0267505 0.0527109 0)
(0.0320463 0.0544265 0)
(0.0377967 0.0562988 0)
(0.0440367 0.0583045 0)
(0.0507969 0.0604058 0)
(0.0581003 0.0625466 0)
(0.0659572 0.0646484 0)
(0.0743593 0.0666074 0)
(0.0832728 0.0682919 0)
(0.0926305 0.0695431 0)
(0.102325 0.0701776 0)
(0.112202 0.0699948 0)
(0.122056 0.0687876 0)
(-0.0122271 0.0426091 0)
(-0.0101208 0.0422897 0)
(-0.0079285 0.0420303 0)
(-0.00564188 0.041834 0)
(-0.00325182 0.0417049 0)
(-0.000748911 0.0416477 0)
(0.00187801 0.0416677 0)
(0.00464165 0.041771 0)
(0.00755628 0.0419642 0)
(0.0106381 0.0422545 0)
(0.0139053 0.0426496 0)
(0.0173782 0.0431574 0)
(0.0210794 0.0437857 0)
(0.0250338 0.0445418 0)
(0.0292686 0.0454318 0)
(0.033813 0.0464596 0)
(0.0386982 0.0476258 0)
(0.0439558 0.0489263 0)
(0.0496176 0.05035 0)
(0.0557135 0.0518769 0)
(0.0622689 0.0534751 0)
(0.0693022 0.0550983 0)
(0.0768198 0.0566831 0)
(0.0848121 0.0581463 0)
(0.093247 0.0593838 0)
(0.102064 0.0602709 0)
(0.111169 0.0606644 0)
(0.120429 0.0604083 0)
(0.129668 0.0593402 0)
(0.000658643 0.0403562 0)
(0.00318387 0.0399581 0)
(0.00578199 0.0396138 0)
(0.00845983 0.0393252 0)
(0.0112253 0.0390952 0)
(0.0140864 0.0389275 0)
(0.0170525 0.0388259 0)
(0.0201346 0.038795 0)
(0.023345 0.0388398 0)
(0.0266976 0.0389657 0)
(0.0302081 0.0391783 0)
(0.0338941 0.0394835 0)
(0.0377749 0.0398871 0)
(0.0418722 0.0403941 0)
(0.0462092 0.0410085 0)
(0.0508111 0.0417328 0)
(0.0557044 0.0425663 0)
(0.060916 0.0435045 0)
(0.0664728 0.0445377 0)
(0.0723995 0.0456486 0)
(0.0787172 0.0468111 0)
(0.0854403 0.0479878 0)
(0.0925731 0.0491284 0)
(0.100106 0.0501674 0)
(0.108011 0.0510242 0)
(0.116235 0.0516026 0)
(0.1247 0.051793 0)
(0.133294 0.0514758 0)
(0.14187 0.0505261 0)
(0.0197151 0.037628 0)
(0.0227628 0.0371661 0)
(0.0258657 0.0367529 0)
(0.0290289 0.0363893 0)
(0.0322593 0.0360774 0)
(0.0355635 0.0358195 0)
(0.0389493 0.0356185 0)
(0.0424257 0.0354776 0)
(0.0460031 0.0354002 0)
(0.0496932 0.0353904 0)
(0.053509 0.0354521 0)
(0.0574653 0.0355895 0)
(0.0615783 0.0358063 0)
(0.0658659 0.0361061 0)
(0.0703475 0.0364911 0)
(0.0750441 0.0369623 0)
(0.0799773 0.0375183 0)
(0.0851696 0.0381546 0)
(0.0906426 0.0388623 0)
(0.0964165 0.0396271 0)
(0.102508 0.0404277 0)
(0.108929 0.0412342 0)
(0.115681 0.0420073 0)
(0.122757 0.0426966 0)
(0.130132 0.0432403 0)
(0.137764 0.0435656 0)
(0.145588 0.0435899 0)
(0.153513 0.0432234 0)
(0.161425 0.0423714 0)
(0.0476257 0.0343128 0)
(0.0513013 0.0338073 0)
(0.0550087 0.0333463 0)
(0.0587517 0.0329301 0)
(0.0625364 0.0325597 0)
(0.0663681 0.0322367 0)
(0.0702535 0.0319628 0)
(0.0742001 0.0317402 0)
(0.0782165 0.0315713 0)
(0.0823123 0.0314587 0)
(0.0864984 0.031405 0)
(0.0907869 0.031413 0)
(0.095191 0.031485 0)
(0.0997255 0.0316231 0)
(0.104406 0.0318283 0)
(0.10925 0.0321005 0)
(0.114274 0.0324378 0)
(0.119496 0.0328356 0)
(0.124934 0.0332862 0)
(0.130603 0.0337775 0)
(0.136516 0.0342922 0)
(0.142682 0.0348069 0)
(0.149102 0.0352908 0)
(0.155769 0.0357056 0)
(0.162664 0.0360045 0)
(0.169753 0.0361331 0)
(0.176985 0.0360299 0)
(0.184288 0.0356286 0)
(0.191574 0.0348585 0)
(0.0880597 0.0303058 0)
(0.0924433 0.0297833 0)
(0.0968289 0.0293016 0)
(0.101219 0.0288605 0)
(0.105621 0.0284603 0)
(0.110038 0.0281017 0)
(0.114476 0.0277858 0)
(0.118942 0.0275138 0)
(0.123444 0.0272873 0)
(0.127989 0.0271077 0)
(0.132587 0.0269766 0)
(0.137248 0.0268957 0)
(0.141983 0.0268663 0)
(0.146803 0.0268893 0)
(0.151723 0.0269649 0)
(0.156754 0.0270923 0)
(0.161912 0.0272691 0)
(0.167209 0.027491 0)
(0.172661 0.0277512 0)
(0.178277 0.0280396 0)
(0.184069 0.0283423 0)
(0.190042 0.0286407 0)
(0.196197 0.0289111 0)
(0.202527 0.0291244 0)
(0.209018 0.0292454 0)
(0.215641 0.0292338 0)
(0.222358 0.029044 0)
(0.229113 0.0286276 0)
(0.235841 0.0279328 0)
(0.145854 0.0255451 0)
(0.150953 0.0250392 0)
(0.156019 0.0245705 0)
(0.161053 0.024138 0)
(0.166061 0.0237416 0)
(0.171051 0.0233816 0)
(0.176026 0.0230582 0)
(0.180993 0.0227722 0)
(0.185959 0.0225242 0)
(0.190932 0.0223151 0)
(0.19592 0.0221456 0)
(0.200932 0.0220166 0)
(0.205977 0.0219286 0)
(0.211065 0.0218818 0)
(0.216209 0.0218757 0)
(0.221417 0.0219092 0)
(0.226702 0.0219798 0)
(0.232076 0.0220835 0)
(0.237547 0.0222144 0)
(0.243126 0.0223642 0)
(0.248819 0.0225217 0)
(0.254632 0.0226724 0)
(0.260562 0.0227981 0)
(0.266605 0.0228767 0)
(0.272748 0.022882 0)
(0.278968 0.0227841 0)
(0.285236 0.0225497 0)
(0.291505 0.0221434 0)
(0.297731 0.0215279 0)
(0.226995 0.0200735 0)
(0.232674 0.0196241 0)
(0.238279 0.0192068 0)
(0.243815 0.0188209 0)
(0.249288 0.0184657 0)
(0.254705 0.018141 0)
(0.260072 0.0178468 0)
(0.265395 0.0175833 0)
(0.270683 0.0173505 0)
(0.275942 0.017149 0)
(0.281181 0.0169788 0)
(0.286409 0.0168403 0)
(0.291633 0.0167335 0)
(0.296864 0.0166581 0)
(0.302111 0.0166134 0)
(0.307384 0.016598 0)
(0.312692 0.0166097 0)
(0.318045 0.0166448 0)
(0.32345 0.0166986 0)
(0.328916 0.0167643 0)
(0.334447 0.0168331 0)
(0.340046 0.016894 0)
(0.345712 0.0169331 0)
(0.351439 0.016934 0)
(0.357217 0.0168774 0)
(0.363025 0.0167417 0)
(0.368841 0.0165025 0)
(0.374623 0.0161345 0)
(0.380343 0.0156115 0)
(0.338096 0.0141167 0)
(0.343987 0.0137648 0)
(0.34977 0.0134383 0)
(0.35545 0.0131366 0)
(0.361035 0.0128589 0)
(0.366533 0.0126048 0)
(0.371951 0.012374 0)
(0.377297 0.0121664 0)
(0.382579 0.011982 0)
(0.387806 0.0118207 0)
(0.392985 0.0116825 0)
(0.398125 0.0115673 0)
(0.403235 0.0114749 0)
(0.408324 0.0114049 0)
(0.413401 0.0113564 0)
(0.418475 0.0113281 0)
(0.423553 0.0113182 0)
(0.428645 0.0113236 0)
(0.433757 0.0113407 0)
(0.438895 0.0113644 0)
(0.444063 0.0113881 0)
(0.449262 0.0114037 0)
(0.454491 0.0114012 0)
(0.459744 0.0113689 0)
(0.46501 0.0112933 0)
(0.470271 0.0111592 0)
(0.475509 0.0109499 0)
(0.480684 0.0106477 0)
(0.485776 0.0102348 0)
(0.484922 0.00815017 0)
(0.490354 0.00792814 0)
(0.495661 0.00772281 0)
(0.500849 0.00753385 0)
(0.505928 0.00736064 0)
(0.510907 0.00720272 0)
(0.515793 0.00705984 0)
(0.520595 0.0069318 0)
(0.525322 0.00681847 0)
(0.529981 0.00671969 0)
(0.534582 0.00663535 0)
(0.539132 0.00656525 0)
(0.54364 0.00650914 0)
(0.548115 0.00646655 0)
(0.552564 0.00643682 0)
(0.556996 0.00641894 0)
(0.561418 0.00641148 0)
(0.565837 0.00641244 0)
(0.570258 0.00641919 0)
(0.574687 0.0064283 0)
(0.579126 0.0064354 0)
(0.583574 0.00643518 0)
(0.588029 0.00642121 0)
(0.592485 0.00638599 0)
(0.596931 0.00632097 0)
(0.601349 0.00621656 0)
(0.605723 0.00606259 0)
(0.610015 0.00584792 0)
(0.614207 0.00556165 0)
(0.669473 0.0030622 0)
(0.673482 0.0029744 0)
(0.677387 0.00289381 0)
(0.681192 0.00282042 0)
(0.684906 0.00275398 0)
(0.688536 0.00269423 0)
(0.69209 0.00264103 0)
(0.695576 0.00259426 0)
(0.699 0.00255386 0)
(0.70237 0.00251973 0)