/*--------------------------------*- C++ -*----------------------------------*\
  =========                 |
  \\      /  F ield         | OpenFOAM: The Open Source CFD Toolbox
   \\    /   O peration     | Website:  https://openfoam.org
    \\  /    A nd           | Version:  9
     \\/     M anipulation  |
\*---------------------------------------------------------------------------*/
FoamFile
{
    format      ascii;
    class       volScalarField;
    location    "0.25";
    object      p;
}
// * * * * * * * * * * * * * * * * * * * * * * * * * * * * * * * * * * * * * //

dimensions      [0 2 -2 0 0 0 0];

internalField   nonuniform List<scalar> 
1250
(
5.76943e-10
-2.72172e-06
-7.34831e-06
-1.24975e-05
-1.71513e-05
-2.06264e-05
-2.24817e-05
-2.24554e-05
-2.0404e-05
-1.62607e-05
-1.00076e-05
-1.65624e-06
8.76531e-06
2.12218e-05
3.56763e-05
5.20945e-05
7.04456e-05
9.07041e-05
0.000112849
0.000136864
0.000162737
0.000190457
0.000220017
0.000251411
0.000284634
0.000319681
0.000356549
0.000395238
0.000435754
2.72039e-06
-1.34605e-08
-3.47382e-06
-7.07634e-06
-1.01757e-05
-1.22414e-05
-1.2904e-05
-1.19173e-05
-9.12319e-06
-4.42745e-06
2.21886e-06
1.08344e-05
2.14186e-05
3.39596e-05
4.844e-05
6.48405e-05
8.31421e-05
0.000103328
0.000125383
0.000149294
0.000175052
0.000202649
0.000232076
0.000263328
0.0002964
0.000331285
0.000367977
0.000406479
0.000446802
7.36578e-06
3.43336e-06
-4.16221e-08
-3.13139e-06
-5.55525e-06
-6.91104e-06
-6.90529e-06
-5.3342e-06
-2.0554e-06
3.02492e-06
9.96339e-06
1.87901e-05
2.95172e-05
4.21451e-05
5.66675e-05
7.30747e-05
9.13554e-05
0.000111499
0.000133494
0.000157333
0.000183008
0.000210511
0.000239836
0.000270979
0.000303933
0.000338693
0.000375248
0.000413608
0.000453791
1.25658e-05
7.02294e-06
3.00294e-06
-9.57648e-08
-2.3005e-06
-3.31541e-06
-2.92213e-06
-9.70381e-07
2.65202e-06
8.0245e-06
1.51991e-05
2.42071e-05
3.50651e-05
4.77799e-05
6.23517e-05
7.87768e-05
9.70498e-05
0.000117164
0.000139114
0.000162894
0.000188497
0.000215919
0.000245155
0.000276201
0.000309051
0.000343698
0.000380133
0.000418369
0.000458435
1.72801e-05
1.00853e-05
5.34764e-06
2.01555e-06
-1.90607e-07
-1.05847e-06
-4.36531e-07
1.77259e-06
5.64739e-06
1.12477e-05
1.86154e-05
2.7778e-05
3.87521e-05
5.15472e-05
6.6167e-05
8.26123e-05
0.000100882
0.000120973
0.000142882
0.000166608
0.000192145
0.000219492
0.000248644
0.000279598
0.00031235
0.000346893
0.000383217
0.00042134
0.000461301
2.07817e-05
1.20454e-05
6.54264e-06
2.85375e-06
5.02229e-07
-3.60217e-07
3.63274e-07
2.72312e-06
6.76533e-06
1.25287e-05
2.00422e-05
2.93263e-05
4.03948e-05
5.32569e-05
6.79179e-05
8.43809e-05
0.000102647
0.000122717
0.000144591
0.000168267
0.000193744
0.000221022
0.000250097
0.000280968
0.000313631
0.000348079
0.000384303
0.000422328
0.000462198
2.25649e-05
1.24732e-05
6.23224e-06
2.13392e-06
-4.4606e-07
-1.39743e-06
-6.65545e-07
1.76088e-06
5.89895e-06
1.17674e-05
1.93815e-05
2.87533e-05
3.98921e-05
5.28048e-05
6.74968e-05
8.3972e-05
0.000102233
0.000122283
0.000144123
0.000167754
0.000193177
0.000220392
0.000249398
0.000280194
0.000312778
0.000347144
0.000383282
0.000421223
0.00046102
2.22914e-05
1.10515e-05
4.14177e-06
-3.68334e-07
-3.21191e-06
-4.30564e-06
-3.62619e-06
-1.19345e-06
2.98552e-06
8.91153e-06
1.65872e-05
2.60157e-05
3.72011e-05
5.01474e-05
6.48586e-05
8.13387e-05
9.95913e-05
0.00011962
0.000141428
0.000165017
0.000190391
0.000217549
0.000246494
0.000277225
0.000309741
0.000344037
0.000380104
0.000417976
0.000457718
1.97356e-05
7.54699e-06
5.46851e-08
-4.84134e-06
-7.95339e-06
-9.21473e-06
-8.62448e-06
-6.22647e-06
-2.04721e-06
3.89913e-06
1.16038e-05
2.10622e-05
3.22727e-05
4.52361e-05
5.99547e-05
7.64317e-05
9.4671e-05
0.000114677
0.000136453
0.000160004
0.000185333
0.000212442
0.000241334
0.000272009
0.000304469
0.000338708
0.000374717
0.000412539
0.000452243
1.47494e-05
1.7905e-06
-6.1962e-06
-1.14388e-05
-1.48068e-05
-1.62429e-05
-1.57616e-05
-1.34248e-05
-9.27401e-06
-3.33557e-06
4.37239e-06
1.38381e-05
2.50551e-05
3.80209e-05
5.27357e-05
6.9202e-05
8.74235e-05
0.000107405
0.00012915
0.000152665
0.000177954
0.00020502
0.000233867
0.000264497
0.000296912
0.000331108
0.000367077
0.000404865
0.000444551
7.23811e-06
-6.33823e-06
-1.4737e-05
-2.02826e-05
-2.38849e-05
-2.54915e-05
-2.51274e-05
-2.28674e-05
-1.87645e-05
-1.28544e-05
-5.16297e-06
4.29222e-06
1.55004e-05
2.8456e-05
4.31575e-05
5.96063e-05
7.78058e-05
9.77606e-05
0.000119476
0.000142958
0.000168211
0.000195241
0.000224052
0.000254648
0.00028703
0.000321197
0.000357142
0.000394915
0.000434602
-2.85564e-06
-1.6923e-05
-2.56615e-05
-3.14671e-05
-3.52789e-05
-3.70457e-05
-3.67994e-05
-3.46242e-05
-3.05813e-05
-2.47138e-05
-1.70534e-05
-7.62245e-06
3.56468e-06
1.65e-05
3.11803e-05
4.7606e-05
6.57801e-05
8.57075e-05
0.000107394
0.000130845
0.000156068
0.000183069
0.000211852
0.000242423
0.000274786
0.000308939
0.000344875
0.000382652
0.00042236
-1.55639e-05
-3.0021e-05
-3.90381e-05
-4.50651e-05
-4.90614e-05
-5.09754e-05
-5.08433e-05
-4.87556e-05
-4.47798e-05
-3.89641e-05
-3.1345e-05
-2.19485e-05
-1.07916e-05
2.1155e-06
1.67683e-05
3.31665e-05
5.13128e-05
7.1212e-05
9.28704e-05
0.000116295
0.000141492
0.00016847
0.000197234
0.000227791
0.000260146
0.000294299
0.000330244
0.000368043
0.000407792
-3.09021e-05
-4.56701e-05
-5.49165e-05
-6.11318e-05
-6.52897e-05
-6.73375e-05
-6.73137e-05
-6.53132e-05
-6.14079e-05
-5.56499e-05
-4.8079e-05
-3.8724e-05
-2.76042e-05
-1.47312e-05
-1.10615e-07
1.62567e-05
3.43733e-05
5.42442e-05
7.58761e-05
9.92764e-05
0.000124453
0.000151414
0.000180168
0.000210721
0.00024308
0.000277246
0.000313216
0.000351055
0.000390865
-4.88754e-05
-6.38951e-05
-7.33323e-05
-7.97087e-05
-8.40089e-05
-8.6178e-05
-8.62559e-05
-8.43405e-05
-8.05068e-05
-7.48097e-05
-6.72915e-05
-5.79831e-05
-4.69052e-05
-3.40707e-05
-1.94859e-05
-3.15194e-06
1.49337e-05
3.47763e-05
5.6383e-05
7.97621e-05
0.000104922
0.000131873
0.000160623
0.000191181
0.000223556
0.000257749
0.000293759
0.000331655
0.000371545
-6.94831e-05
-8.4712e-05
-9.4311e-05
-0.000100827
-0.000105254
-0.000107534
-0.000107707
-0.000105874
-0.000102112
-9.64774e-05
-8.90148e-05
-7.97563e-05
-6.87239e-05
-5.59312e-05
-4.13848e-05
-2.50861e-05
-7.03245e-06
1.27819e-05
3.43646e-05
5.77248e-05
8.28724e-05
0.000109818
0.000138571
0.000169142
0.000201543
0.000235775
0.00027184
0.000309809
0.000349797
-9.27223e-05
-0.000108131
-0.000117871
-0.000124512
-0.000129053
-0.000131434
-0.000131698
-0.000129945
-0.000126253
-0.000120682
-0.000113277
-0.000104071
-9.30871e-05
-8.03387e-05
-6.58331e-05
-4.95714e-05
-3.15508e-05
-1.17649e-05
9.79449e-06
3.31376e-05
5.82754e-05
8.52194e-05
0.000113981
0.000144574
0.000177008
0.000211289
0.000247421
0.000285481
0.000325583
-0.00011859
-0.00013416
-0.000144028
-0.000150782
-0.000155427
-0.000157905
-0.000158254
-0.000156579
-0.000152958
-0.000147451
-0.000140105
-0.000130953
-0.00012002
-0.000107318
-9.28554e-05
-7.66327e-05
-5.86465e-05
-3.889e-05
-1.73538e-05
5.97298e-06
3.11028e-05
5.80485e-05
8.68234e-05
0.000117441
0.000149916
0.000184255
0.000220464
0.000258628
0.000298866
-0.000147083
-0.000162805
-0.000172792
-0.000179652
-0.000184397
-0.000186966
-0.000187399
-0.000185799
-0.000182249
-0.000176807
-0.000169521
-0.000160426
-0.000149546
-0.000136893
-0.000122476
-0.000106295
-8.8345e-05
-6.86194e-05
-4.71077e-05
-2.37975e-05
1.3248e-06
2.82735e-05
5.70635e-05
8.77106e-05
0.00012023
0.000154629
0.000190919
0.000229205
0.000269607
-0.000178203
-0.000194072
-0.000204173
-0.000211135
-0.000215977
-0.000218635
-0.00021915
-0.000217627
-0.000214147
-0.000208772
-0.000201549
-0.000192513
-0.000181688
-0.000169088
-0.000154719
-0.000138582
-0.000120672
-0.00010098
-7.94952e-05
-5.62034e-05
-3.10898e-05
-4.1385e-06
2.46672e-05
5.53445e-05
8.79087e-05
0.000122366
0.000158742
0.000197188
0.000237766
-0.00021195
-0.000227967
-0.000238183
-0.000245246
-0.000250183
-0.00025293
-0.000253527
-0.00025208
-0.000248673
-0.000243366
-0.000236208
-0.000227234
-0.000216468
-0.000203925
-0.000189609
-0.000173521
-0.000155655
-0.000136001
-0.000114546
-9.1276e-05
-6.61739e-05
-3.92222e-05
-1.04023e-05
2.03048e-05
5.29134e-05
8.74312e-05
0.000123922
0.000162524
-0.00024833
-0.000264498
-0.000274829
-0.000281994
-0.000287028
-0.000289864
-0.000290545
-0.000289177
-0.000285844
-0.000280609
-0.000273519
-0.000264612
-0.00025391
-0.000241428
-0.00022717
-0.000211137
-0.00019332
-0.000173709
-0.000152291
-0.000129048
-0.000103962
-7.70143e-05
-4.81835e-05
-1.74485e-05
1.52065e-05
4.97925e-05
8.63915e-05
0.000125145
-0.000287348
-0.000303673
-0.000314124
-0.000321393
-0.000326525
-0.000329454
-0.000330221
-0.000328935
-0.00032568
-0.00032052
-0.000313504
-0.000304668
-0.000294036
-0.000281621
-0.000267428
-0.000251456
-0.000233696
-0.000214137
-0.000192762
-0.000169553
-0.000144491
-0.000117554
-8.87188e-05
-5.79613e-05
-2.52634e-05
9.38982e-06
4.60905e-05
8.4983e-05
-0.000329014
-0.000345503
-0.000356077
-0.000363455
-0.000368689
-0.000371713
-0.00037257
-0.000371369
-0.000368197
-0.000363118
-0.000356181
-0.000347423
-0.000336868
-0.000324528
-0.000310409
-0.000294507
-0.000276813
-0.000257314
-0.000235992
-0.000212829
-0.0001878
-0.000160884
-0.000132053
-0.000101282
-6.85503e-05
-3.38385e-05
2.95101e-06
4.19646e-05
-0.000373337
-0.000389998
-0.000400701
-0.000408191
-0.000413532
-0.000416656
-0.000417608
-0.000416498
-0.000413415
-0.000408422
-0.000401572
-0.000392899
-0.000382429
-0.000370174
-0.000356138
-0.000340317
-0.0003227
-0.000303273
-0.000282018
-0.000258911
-0.000233929
-0.000207046
-0.000178233
-0.000147462
-0.000114708
-7.99508e-05
-4.30869e-05
-3.96764e-06
-0.000420328
-0.00043717
-0.000448008
-0.000455616
-0.000461068
-0.000464298
-0.00046535
-0.000464338
-0.000461349
-0.000456452
-0.000449695
-0.000441118
-0.000430743
-0.000418584
-0.000404643
-0.000388915
-0.000371389
-0.000352049
-0.000330873
-0.000307839
-0.00028292
-0.000256086
-0.000227308
-0.000196552
-0.000163794
-0.000129007
-9.20852e-05
-5.28768e-05
-0.000470001
-0.000487031
-0.00049801
-0.000505742
-0.000511312
-0.000514653
-0.000515813
-0.000514905
-0.000512019
-0.000507225
-0.000500573
-0.000492101
-0.000481833
-0.000469782
-0.00045595
-0.00044033
-0.000422911
-0.000403674
-0.000382596
-0.000359653
-0.000334815
-0.00030805
-0.000279326
-0.000248607
-0.000215864
-0.000181068
-0.000144109
-0.000104832
-0.000522367
-0.000539594
-0.000550722
-0.000558583
-0.000564277
-0.000567738
-0.000569011
-0.000568216
-0.000565443
-0.000560761
-0.000554225
-0.00054587
-0.000535723
-0.000523795
-0.000510087
-0.000494592
-0.000477298
-0.000458183
-0.000437224
-0.000414393
-0.000389658
-0.000362985
-0.000334339
-0.00030368
-0.000270977
-0.000236198
-0.000199228
-0.000159906
-0.00057744
-0.000594873
-0.000606156
-0.000614154
-0.000619979
-0.000623566
-0.000624962
-0.000624288
-0.000621637
-0.00061708
-0.000610671
-0.000602448
-0.000592436
-0.000580647
-0.000567081
-0.000551731
-0.000534582
-0.000515612
-0.000494795
-0.0004721
-0.000447493
-0.000420939
-0.000392398
-0.000361829
-0.000329196
-0.000294462
-0.00025751
-0.000218175
-0.000635234
-0.000652881
-0.000664325
-0.000672467
-0.000678431
-0.000682152
-0.00068368
-0.000683137
-0.00068062
-0.000676199
-0.000669931
-0.000661855
-0.000651996
-0.000640364
-0.000626961
-0.000611777
-0.000594796
-0.000575995
-0.000555346
-0.000532815
-0.000508367
-0.000481962
-0.000453558
-0.000423111
-0.00039058
-0.000355927
-0.000319028
-0.000279714
-0.000695762
-0.000713631
-0.000725244
-0.000733537
-0.000739648
-0.000743512
-0.000745181
-0.000744781
-0.000742408
-0.000738138
-0.000732027
-0.000724114
-0.000714426
-0.000702972
-0.000689753
-0.00067476
-0.000657973
-0.000639369
-0.000618916
-0.000596581
-0.000572323
-0.000546102
-0.000517871
-0.000487582
-0.000455193
-0.00042066
-0.000383855
-0.000344604
-0.000759038
-0.000777136
-0.000788926
-0.000797377
-0.000803642
-0.000807659
-0.00080948
-0.000809233
-0.00080702
-0.000802915
-0.000796976
-0.000789246
-0.000779748
-0.000768495
-0.000755485
-0.000740707
-0.000724143
-0.000705766
-0.000685543
-0.000663437
-0.000639407
-0.000613407
-0.000585389
-0.000555302
-0.000523097
-0.000488729
-0.000452065
-0.000412925
-0.000825073
-0.00084341
-0.000855383
-0.000863999
-0.000870429
-0.000874607
-0.000876591
-0.000876511
-0.00087447
-0.000870547
-0.000864799
-0.00085727
-0.000847986
-0.000836956
-0.000824182
-0.000809649
-0.000793339
-0.000775222
-0.000755264
-0.000733426
-0.000709663
-0.000683927
-0.000656167
-0.000626327
-0.000594356
-0.000560204
-0.000523732
-0.000484758
-0.000893882
-0.000912463
-0.000924627
-0.000933417
-0.00094002
-0.000944371
-0.000946529
-0.000946629
-0.000944776
-0.00094105
-0.000935513
-0.000928207
-0.000919159
-0.00090838
-0.000895869
-0.000881613
-0.00086559
-0.000847769
-0.000828116
-0.000806587
-0.000783135
-0.00075771
-0.000730256
-0.000700715
-0.000669032
-0.000635152
-0.000598931
-0.000560182
-0.000965474
-0.000984309
-0.00099667
-0.00100564
-0.00101243
-0.00101696
-0.00101931
-0.0010196
-0.00101795
-0.00101444
-0.00100914
-0.00100208
-0.000993289
-0.000982789
-0.000970572
-0.000956625
-0.000940925
-0.00092344
-0.000904133
-0.000882957
-0.000859865
-0.000834801
-0.000807708
-0.000778522
-0.000747186
-0.000713639
-0.000677735
-0.000639279
-0.00103986
-0.00105896
-0.00107152
-0.00108069
-0.00108766
-0.00109239
-0.00109494
-0.00109544
-0.00109401
-0.00109074
-0.00108568
-0.00107889
-0.00107039
-0.0010602
-0.00104831
-0.00103471
-0.00101937
-0.00100227
-0.000983349
-0.000962575
-0.000939893
-0.000915246
-0.000888571
-0.000859803
-0.000828878
-0.000795733
-0.000760216
-0.000722129
-0.00111705
-0.00113641
-0.00114919
-0.00115856
-0.00116573
-0.00117067
-0.00117343
-0.00117416
-0.00117297
-0.00116995
-0.00116517
-0.00115867
-0.00115049
-0.00114064
-0.00112911
-0.00111589
-0.00110096
-0.00108427
-0.00106579
-0.00104547
-0.00102326
-0.000999086
-0.000972893
-0.000944608
-0.000914166
-0.000881497
-0.000846445
-0.000808808
-0.00119705
-0.00121669
-0.00122969
-0.00123926
-0.00124666
-0.00125181
-0.00125479
-0.00125576
-0.00125483
-0.00125209
-0.00124761
-0.00124143
-0.0012336
-0.00122412
-0.00121299
-0.00120019
-0.0011857
-0.00116949
-0.0011515
-0.00113169
-0.00111
-0.00108636
-0.00106072
-0.00103299
-0.0010031
-0.000970991
-0.000936489
-0.000899391
-0.00127987
-0.0012998
-0.00131303
-0.00132282
-0.00133043
-0.00133582
-0.00133904
-0.00134027
-0.00133961
-0.00133717
-0.00133301
-0.00132719
-0.00131973
-0.00131066
-0.00129996
-0.00128763
-0.00127363
-0.00125794
-0.00124049
-0.00122125
-0.00120014
-0.00117711
-0.00115209
-0.00112499
-0.00109574
-0.00106427
-0.00103041
-0.00099395
-0.00136552
-0.00138574
-0.00139921
-0.00140922
-0.00141707
-0.0014227
-0.00142618
-0.00142768
-0.00142732
-0.0014252
-0.00142139
-0.00141594
-0.0014089
-0.00140026
-0.00139004
-0.00137822
-0.00136476
-0.00134964
-0.00133279
-0.00131417
-0.00129372
-0.00127137
-0.00124704
-0.00122065
-0.00119213
-0.00116139
-0.00112827
-0.00109255
-0.00145399
-0.00147451
-0.00148823
-0.00149848
-0.00150658
-0.00151246
-0.00151622
-0.00151801
-0.00151796
-0.00151618
-0.00151275
-0.00150771
-0.00150111
-0.00149295
-0.00148325
-0.00147198
-0.00145911
-0.00144461
-0.00142842
-0.00141049
-0.00139076
-0.00136916
-0.0013456
-0.00132001
-0.00129231
-0.0012624
-0.00123013
-0.00119526
-0.0015453
-0.00156613
-0.0015801
-0.0015906
-0.00159895
-0.00160511
-0.00160916
-0.00161125
-0.00161154
-0.00161013
-0.0016071
-0.0016025
-0.00159637
-0.00158873
-0.00157958
-0.00156891
-0.00155668
-0.00154286
-0.00152739
-0.00151022
-0.00149128
-0.0014705
-0.00144781
-0.0014231
-0.00139631
-0.00136734
-0.00133601
-0.00130212
-0.00163945
-0.0016606
-0.00167483
-0.00168559
-0.00169421
-0.00170065
-0.001705
-0.00170743
-0.00170807
-0.00170705
-0.00170444
-0.00170031
-0.00169469
-0.00168761
-0.00167906
-0.00166903
-0.00165749
-0.00164441
-0.00162972
-0.00161338
-0.0015953
-0.00157543
-0.00155368
-0.00152995
-0.00150417
-0.00147624
-0.00144598
-0.00141319
-0.00177242
-0.00178345
-0.00179235
-0.00179909
-0.00180376
-0.00180653
-0.00180756
-0.00180695
-0.00180479
-0.00180116
-0.00179608
-0.00178959
-0.00178169
-0.00177235
-0.00176156
-0.00174926
-0.00173542
-0.00171997
-0.00170284
-0.00168396
-0.00166323
-0.00164058
-0.00161591
-0.00158913
-0.00156006
-0.00152852
)
;

boundaryField
{
    movingWall
    {
        type            zeroGradient;
    }
    fixedWalls
    {
        type            zeroGradient;
    }
    frontAndBack
    {
        type            empty;
    }
    procBoundary0to1
    {
        type            processor;
        value           nonuniform List<scalar> 
45
(
0.00047807
0.000488916
0.000495763
0.000500291
0.000503055
0.000503866
0.00050262
0.000499269
0.000493766
0.000486067
0.000476132
0.000463926
0.000449416
0.000432567
0.000413346
0.000391716
0.000367639
0.000341075
0.000311982
0.000280293
0.000203262
0.000203262
0.000166042
0.000126021
8.31427e-05
3.73451e-05
-1.14425e-05
-6.32948e-05
-0.00011829
-0.000176509
-0.000238035
-0.000302954
-0.000371351
-0.000443316
-0.000518936
-0.000598299
-0.000681492
-0.0007686
-0.000859706
-0.00095489
-0.00105423
-0.00115779
-0.00126564
-0.00137784
-0.00149446
)
;
    }
    procBoundary0to3
    {
        type            processor;
        value           nonuniform List<scalar> 
29
(
-0.00173643
-0.00175791
-0.00175791
-0.00187287
-0.00188417
-0.00189338
-0.00190043
-0.00190543
-0.00190857
-0.00190999
-0.00190981
-0.00190814
-0.00190503
-0.00190053
-0.00189467
-0.00188745
-0.00187886
-0.00186886
-0.00185742
-0.00184449
-0.00183
-0.00181389
-0.00179608
-0.00177648
-0.001755
-0.00173154
-0.00170601
-0.00167826
-0.00164812
)
;
    }
}


// ************************************************************************* //
