/*--------------------------------*- C++ -*----------------------------------*\
  =========                 |
  \\      /  F ield         | OpenFOAM: The Open Source CFD Toolbox
   \\    /   O peration     | Website:  https://openfoam.org
    \\  /    A nd           | Version:  9
     \\/     M anipulation  |
\*---------------------------------------------------------------------------*/
FoamFile
{
    format      ascii;
    class       surfaceScalarField;
    location    "2.75";
    object      phi;
}
// * * * * * * * * * * * * * * * * * * * * * * * * * * * * * * * * * * * * * //

dimensions      [0 3 -1 0 0 0 0];

internalField   nonuniform List<scalar> 
2427
(
1.44488e-06
2.77948e-06
1.46628e-06
2.68365e-06
1.4854e-06
2.58376e-06
1.50247e-06
2.48096e-06
1.51776e-06
2.37625e-06
1.53149e-06
2.27048e-06
1.54388e-06
2.16436e-06
1.55509e-06
2.05845e-06
1.56527e-06
1.95319e-06
1.57453e-06
1.84889e-06
1.58294e-06
1.74577e-06
1.59054e-06
1.64397e-06
1.59735e-06
1.54355e-06
1.60336e-06
1.44453e-06
1.60854e-06
1.34687e-06
1.61284e-06
1.25054e-06
1.6162e-06
1.15545e-06
1.06153e-06
1.00015e-08
1.05752e-07
3.84572e-08
3.46937e-07
8.35214e-08
6.12315e-07
1.42799e-07
8.94245e-07
2.13337e-07
1.18356e-06
2.91835e-07
1.47058e-06
3.74966e-07
1.74621e-06
4.59736e-07
2.00294e-06
5.43754e-07
2.23542e-06
6.25362e-07
2.44062e-06
7.03616e-07
2.6176e-06
7.7816e-07
2.76697e-06
8.49031e-07
2.89027e-06
9.16466e-07
2.98949e-06
9.80748e-07
3.06659e-06
1.0421e-06
3.12335e-06
1.10065e-06
3.16126e-06
1.15641e-06
3.18154e-06
1.2093e-06
3.18528e-06
1.25921e-06
3.17347e-06
1.306e-06
3.14715e-06
1.34958e-06
3.10741e-06
1.38988e-06
3.05544e-06
1.4269e-06
2.99253e-06
1.4607e-06
2.92002e-06
1.4914e-06
2.83929e-06
1.51918e-06
2.75171e-06
1.54423e-06
2.6586e-06
1.56679e-06
2.5612e-06
1.5871e-06
2.46065e-06
1.60542e-06
2.35794e-06
1.62196e-06
2.25394e-06
1.63693e-06
2.14938e-06
1.65052e-06
2.04486e-06
1.66289e-06
1.94082e-06
1.67414e-06
1.83763e-06
1.68438e-06
1.73553e-06
1.69365e-06
1.6347e-06
1.70198e-06
1.53522e-06
1.70938e-06
1.43713e-06
1.71583e-06
1.34042e-06
1.72129e-06
1.24508e-06
1.72573e-06
1.15102e-06
1.05818e-06
9.41488e-09
9.63375e-08
3.64939e-08
3.19858e-07
7.97938e-08
5.69015e-07
1.37337e-07
8.36702e-07
2.06565e-07
1.11433e-06
2.84495e-07
1.39265e-06
3.67995e-07
1.66271e-06
4.54124e-07
1.91681e-06
5.40413e-07
2.14913e-06
6.25038e-07
2.356e-06
7.0685e-07
2.53579e-06
7.85294e-07
2.68852e-06
8.60247e-07
2.81532e-06
9.31842e-07
2.91789e-06
1.00031e-06
2.99812e-06
1.06585e-06
3.0578e-06
1.12861e-06
3.0985e-06
1.18862e-06
3.12154e-06
1.24581e-06
3.12809e-06
1.30008e-06
3.11921e-06
1.35129e-06
3.09594e-06
1.39931e-06
3.05939e-06
1.44406e-06
3.01069e-06
1.48551e-06
2.95108e-06
1.52368e-06
2.88185e-06
1.55865e-06
2.80432e-06
1.59055e-06
2.7198e-06
1.61957e-06
2.62958e-06
1.6459e-06
2.53486e-06
1.66979e-06
2.43676e-06
1.69145e-06
2.33628e-06
1.71111e-06
2.23428e-06
1.72898e-06
2.13151e-06
1.74524e-06
2.02859e-06
1.76006e-06
1.926e-06
1.77357e-06
1.82413e-06
1.78586e-06
1.72324e-06
1.79701e-06
1.62355e-06
1.80705e-06
1.52517e-06
1.81602e-06
1.42816e-06
1.8239e-06
1.33255e-06
1.83067e-06
1.23831e-06
1.83629e-06
1.1454e-06
1.05375e-06
8.79886e-09
8.75387e-08
3.43762e-08
2.94281e-07
7.56623e-08
5.27729e-07
1.31082e-07
7.81283e-07
1.98477e-07
1.04694e-06
2.7521e-07
1.31592e-06
3.58391e-07
1.57953e-06
4.4519e-07
1.83001e-06
5.33116e-07
2.0612e-06
6.2022e-07
2.26889e-06
7.05173e-07
2.45084e-06
7.87223e-07
2.60647e-06
8.66078e-07
2.73646e-06
9.41744e-07
2.84223e-06
1.01437e-06
2.92549e-06
1.08415e-06
2.98803e-06
1.15118e-06
3.03146e-06
1.21553e-06
3.05719e-06
1.27714e-06
3.06648e-06
1.33591e-06
3.06044e-06
1.39169e-06
3.04016e-06
1.44435e-06
3.00672e-06
1.49378e-06
2.96126e-06
1.5399e-06
2.90496e-06
1.5827e-06
2.83905e-06
1.62222e-06
2.7648e-06
1.65856e-06
2.68346e-06
1.69187e-06
2.59627e-06
1.72232e-06
2.50442e-06
1.75011e-06
2.40897e-06
1.77546e-06
2.31093e-06
1.79858e-06
2.21117e-06
1.81967e-06
2.11043e-06
1.83891e-06
2.00934e-06
1.85649e-06
1.90843e-06
1.87252e-06
1.80809e-06
1.88713e-06
1.70863e-06
1.9004e-06
1.61028e-06
1.91238e-06
1.51319e-06
1.92311e-06
1.41743e-06
1.9326e-06
1.32306e-06
1.94083e-06
1.23007e-06
1.94779e-06
1.13844e-06
1.04811e-06
8.15742e-09
7.93812e-08
3.21178e-08
2.70321e-07
7.11541e-08
4.88693e-07
1.24075e-07
7.28361e-07
1.89124e-07
9.8189e-07
2.64027e-07
1.24101e-06
3.46182e-07
1.49737e-06
4.32923e-07
1.74327e-06
5.21796e-07
1.97233e-06
6.10776e-07
2.17991e-06
6.9838e-07
2.36323e-06
7.83676e-07
2.52118e-06
8.66195e-07
2.65395e-06
9.45801e-07
2.76262e-06
1.02255e-06
2.84875e-06
1.09656e-06
2.91402e-06
1.16793e-06
2.96008e-06
1.23671e-06
2.98841e-06
1.30286e-06
3.00033e-06
1.36627e-06
2.99703e-06
1.42679e-06
2.97964e-06
1.48427e-06
2.94924e-06
1.53858e-06
2.90696e-06
1.58961e-06
2.85393e-06
1.63731e-06
2.79135e-06
1.68167e-06
2.72043e-06
1.72276e-06
2.64237e-06
1.76069e-06
2.55835e-06
1.79558e-06
2.46952e-06
1.82763e-06
2.37693e-06
1.85701e-06
2.28155e-06
1.88393e-06
2.18424e-06
1.90859e-06
2.08577e-06
1.93115e-06
1.98678e-06
1.9518e-06
1.88778e-06
1.97067e-06
1.78922e-06
1.98788e-06
1.69142e-06
2.00354e-06
1.59463e-06
2.0177e-06
1.49902e-06
2.03042e-06
1.40472e-06
2.04171e-06
1.31177e-06
2.05159e-06
1.2202e-06
2.06004e-06
1.12999e-06
1.04112e-06
7.49294e-09
7.18883e-08
2.97264e-08
2.48087e-07
6.62857e-08
4.52134e-07
1.16344e-07
6.78303e-07
1.7854e-07
9.19695e-07
2.50983e-07
1.16857e-06
3.31391e-07
1.41696e-06
4.17316e-07
1.65734e-06
5.06396e-07
1.88325e-06
5.96583e-07
2.08973e-06
6.86282e-07
2.27354e-06
7.74394e-07
2.43306e-06
8.60279e-07
2.56806e-06
9.43644e-07
2.67925e-06
1.02443e-06
2.76797e-06
1.10267e-06
2.83578e-06
1.17843e-06
2.88432e-06
1.25173e-06
2.91511e-06
1.32252e-06
2.92953e-06
1.39071e-06
2.92885e-06
1.45613e-06
2.91421e-06
1.51862e-06
2.88675e-06
1.57802e-06
2.84756e-06
1.63419e-06
2.79777e-06
1.68703e-06
2.73851e-06
1.73652e-06
2.67094e-06
1.78266e-06
2.59623e-06
1.82551e-06
2.5155e-06
1.86519e-06
2.42984e-06
1.90184e-06
2.34028e-06
1.93561e-06
2.24777e-06
1.9667e-06
2.15316e-06
1.99526e-06
2.05721e-06
2.02149e-06
1.96055e-06
2.04555e-06
1.86373e-06
2.06758e-06
1.76719e-06
2.0877e-06
1.67129e-06
2.10603e-06
1.5763e-06
2.12265e-06
1.48241e-06
2.13761e-06
1.38976e-06
2.15094e-06
1.29843e-06
2.16268e-06
1.20846e-06
2.17281e-06
1.11986e-06
1.03259e-06
6.80545e-09
6.50829e-08
2.72017e-08
2.27691e-07
6.10575e-08
4.18278e-07
1.07892e-07
6.31468e-07
1.66734e-07
8.60853e-07
2.36086e-07
1.09922e-06
3.14019e-07
1.33903e-06
3.98346e-07
1.57302e-06
4.86855e-07
1.79474e-06
5.77527e-07
1.99905e-06
6.68696e-07
2.18237e-06
7.59129e-07
2.34263e-06
8.48017e-07
2.47917e-06
9.34909e-07
2.59236e-06
1.0196e-06
2.68327e-06
1.10204e-06
2.75334e-06
1.18222e-06
2.80414e-06
1.26012e-06
2.83721e-06
1.33568e-06
2.85397e-06
1.40878e-06
2.85575e-06
1.47927e-06
2.84373e-06
1.54694e-06
2.81907e-06
1.61163e-06
2.78287e-06
1.67315e-06
2.73624e-06
1.73139e-06
2.68027e-06
1.78627e-06
2.61607e-06
1.83774e-06
2.54475e-06
1.88584e-06
2.4674e-06
1.93063e-06
2.38505e-06
1.97221e-06
2.2987e-06
2.01073e-06
2.20926e-06
2.04633e-06
2.11757e-06
2.07917e-06
2.02437e-06
2.10941e-06
1.9303e-06
2.13723e-06
1.83591e-06
2.16275e-06
1.74167e-06
2.18612e-06
1.64793e-06
2.20743e-06
1.55498e-06
2.22679e-06
1.46305e-06
2.24425e-06
1.37229e-06
2.25988e-06
1.2828e-06
2.2737e-06
1.19464e-06
2.28573e-06
1.10783e-06
1.02236e-06
6.09164e-09
5.89912e-08
2.45312e-08
2.09251e-07
5.54465e-08
3.87363e-07
9.86894e-08
5.88225e-07
1.53673e-07
8.0587e-07
2.19304e-07
1.03359e-06
2.94027e-07
1.26431e-06
3.75962e-07
1.49108e-06
4.63094e-07
1.70761e-06
5.53486e-07
1.90866e-06
6.45449e-07
2.0904e-06
7.37645e-07
2.25044e-06
8.29115e-07
2.3877e-06
9.19245e-07
2.50223e-06
1.00768e-06
2.59483e-06
1.09426e-06
2.66677e-06
1.17886e-06
2.71953e-06
1.26144e-06
2.75464e-06
1.34187e-06
2.77354e-06
1.42003e-06
2.77759e-06
1.49573e-06
2.76803e-06
1.56877e-06
2.74603e-06
1.63893e-06
2.71271e-06
1.70603e-06
2.66914e-06
1.7699e-06
2.6164e-06
1.83041e-06
2.55556e-06
1.88749e-06
2.48767e-06
1.94113e-06
2.41376e-06
1.99134e-06
2.33484e-06
2.03819e-06
2.25184e-06
2.08178e-06
2.16566e-06
2.12224e-06
2.07711e-06
2.15971e-06
1.9869e-06
2.19433e-06
1.89568e-06
2.22625e-06
1.80399e-06
2.25562e-06
1.7123e-06
2.28255e-06
1.62099e-06
2.30717e-06
1.53036e-06
2.32957e-06
1.44065e-06
2.34984e-06
1.35203e-06
2.36803e-06
1.26461e-06
2.38419e-06
1.17848e-06
2.39834e-06
1.09367e-06
1.01019e-06
5.34329e-09
5.36479e-08
2.1685e-08
1.9291e-07
4.93968e-08
3.59651e-07
8.86573e-08
5.48964e-07
1.39265e-07
7.55263e-07
2.00538e-07
9.72315e-07
2.71319e-07
1.19353e-06
3.50061e-07
1.41234e-06
4.34996e-07
1.62267e-06
5.24317e-07
1.81934e-06
6.16357e-07
1.99836e-06
7.0971e-07
2.15708e-06
8.03287e-07
2.29412e-06
8.96317e-07
2.4092e-06
9.88293e-07
2.50286e-06
1.0789e-06
2.57617e-06
1.16793e-06
2.6305e-06
1.25522e-06
2.66734e-06
1.34064e-06
2.68813e-06
1.42398e-06
2.69424e-06
1.50506e-06
2.68696e-06
1.58363e-06
2.66746e-06
1.65947e-06
2.63687e-06
1.73234e-06
2.59627e-06
1.80206e-06
2.54669e-06
1.86844e-06
2.48917e-06
1.93139e-06
2.42472e-06
1.99083e-06
2.35432e-06
2.04675e-06
2.27892e-06
2.09918e-06
2.19942e-06
2.14817e-06
2.11667e-06
2.19383e-06
2.03145e-06
2.23626e-06
1.94447e-06
2.2756e-06
1.85634e-06
2.31198e-06
1.76762e-06
2.34552e-06
1.67876e-06
2.37636e-06
1.59015e-06
2.40462e-06
1.50211e-06
2.43038e-06
1.41488e-06
2.45374e-06
1.32866e-06
2.47478e-06
1.24358e-06
2.49354e-06
1.15972e-06
2.51007e-06
1.07715e-06
9.95877e-07
4.54516e-09
4.91028e-08
1.8609e-08
1.78846e-07
4.28065e-08
3.35454e-07
7.76515e-08
5.14119e-07
1.23337e-07
7.09577e-07
1.79605e-07
9.16047e-07
2.45708e-07
1.12742e-06
3.20465e-07
1.33758e-06
4.02383e-07
1.54075e-06
4.89834e-07
1.73189e-06
5.81215e-07
1.90698e-06
6.75086e-07
2.06321e-06
7.70257e-07
2.19895e-06
8.65807e-07
2.31365e-06
9.61068e-07
2.4076e-06
1.05557e-06
2.48166e-06
1.14899e-06
2.53709e-06
1.24105e-06
2.57528e-06
1.33153e-06
2.59765e-06
1.4202e-06
2.60557e-06
1.5068e-06
2.60035e-06
1.59109e-06
2.58318e-06
1.67278e-06
2.55518e-06
1.75162e-06
2.51742e-06
1.82738e-06
2.47093e-06
1.89986e-06
2.41669e-06
1.96891e-06
2.35568e-06
2.03441e-06
2.28882e-06
2.0963e-06
2.21702e-06
2.15458e-06
2.14114e-06
2.20928e-06
2.06198e-06
2.26044e-06
1.98029e-06
2.30816e-06
1.89675e-06
2.35254e-06
1.81196e-06
2.3937e-06
1.72645e-06
2.43176e-06
1.6407e-06
2.46684e-06
1.55507e-06
2.49904e-06
1.4699e-06
2.52848e-06
1.38544e-06
2.55525e-06
1.30189e-06
2.57942e-06
1.21941e-06
2.60106e-06
1.13808e-06
2.62021e-06
1.05799e-06
9.79168e-07
3.67173e-09
4.5431e-08
1.52147e-08
1.67303e-07
3.55103e-08
3.15158e-07
6.54374e-08
4.84192e-07
1.05607e-07
6.69408e-07
1.56199e-07
8.65455e-07
2.16891e-07
1.06673e-06
2.86883e-07
1.26759e-06
3.64989e-07
1.46265e-06
4.49787e-07
1.64709e-06
5.39777e-07
1.81699e-06
6.33521e-07
1.96947e-06
7.2975e-07
2.10273e-06
8.27411e-07
2.21599e-06
9.25678e-07
2.30933e-06
1.02392e-06
2.38342e-06
1.12166e-06
2.43935e-06
1.2185e-06
2.47843e-06
1.31414e-06
2.50201e-06
1.40825e-06
2.51146e-06
1.50053e-06
2.50807e-06
1.59068e-06
2.49303e-06
1.6784e-06
2.46746e-06
1.7634e-06
2.43243e-06
1.8454e-06
2.38893e-06
1.92417e-06
2.33792e-06
1.99952e-06
2.28033e-06
2.0713e-06
2.21704e-06
2.13941e-06
2.14891e-06
2.2038e-06
2.07675e-06
2.26445e-06
2.00133e-06
2.3214e-06
1.92334e-06
2.37469e-06
1.84345e-06
2.42442e-06
1.76223e-06
2.47067e-06
1.6802e-06
2.51356e-06
1.59781e-06
2.55318e-06
1.51545e-06
2.58965e-06
1.43343e-06
2.62307e-06
1.35202e-06
2.65354e-06
1.27143e-06
2.68113e-06
1.19182e-06
2.70592e-06
1.1133e-06
2.72796e-06
1.03595e-06
9.59824e-07
2.68317e-09
4.27479e-08
1.13663e-08
1.5862e-07
2.72572e-08
2.99267e-07
5.1661e-08
4.59788e-07
8.56482e-08
6.3542e-07
1.29859e-07
8.21244e-07
1.84409e-07
1.01218e-06
2.48885e-07
1.20312e-06
3.22423e-07
1.38911e-06
4.03829e-07
1.56569e-06
4.91732e-07
1.72909e-06
5.84726e-07
1.87647e-06
6.81485e-07
2.00597e-06
7.80842e-07
2.11664e-06
8.81816e-07
2.20836e-06
9.83611e-07
2.28163e-06
1.08559e-06
2.33738e-06
1.18722e-06
2.37679e-06
1.28807e-06
2.40117e-06
1.38773e-06
2.4118e-06
1.48583e-06
2.40997e-06
1.58201e-06
2.39684e-06
1.67593e-06
2.37355e-06
1.76725e-06
2.34111e-06
1.85566e-06
2.30051e-06
1.94091e-06
2.25268e-06
2.02275e-06
2.19849e-06
2.101e-06
2.13879e-06
2.17552e-06
2.07439e-06
2.24623e-06
2.00605e-06
2.31307e-06
1.93449e-06
2.37604e-06
1.86037e-06
2.43517e-06
1.78432e-06
2.4905e-06
1.7069e-06
2.54212e-06
1.62858e-06
2.59011e-06
1.54982e-06
2.63457e-06
1.47099e-06
2.67559e-06
1.39241e-06
2.71328e-06
1.31434e-06
2.74772e-06
1.23699e-06
2.77901e-06
1.16053e-06
2.80721e-06
1.08509e-06
2.83239e-06
1.01076e-06
9.376e-07
1.5226e-09
4.12253e-08
6.86146e-09
1.53281e-07
1.7681e-08
2.88448e-07
3.58126e-08
4.41657e-07
6.28519e-08
6.08381e-07
9.99307e-08
7.84165e-07
1.47609e-07
9.64504e-07
2.05862e-07
1.14486e-06
2.74143e-07
1.32083e-06
3.51494e-07
1.48833e-06
4.36686e-07
1.6439e-06
5.28362e-07
1.7848e-06
6.25163e-07
1.90917e-06
7.2582e-07
2.01598e-06
8.29207e-07
2.10497e-06
9.34364e-07
2.17647e-06
1.04048e-06
2.23126e-06
1.14689e-06
2.27039e-06
1.253e-06
2.29506e-06
1.3583e-06
2.30649e-06
1.46235e-06
2.30592e-06
1.5647e-06
2.29449e-06
1.66496e-06
2.27328e-06
1.76276e-06
2.24331e-06
1.85775e-06
2.20552e-06
1.94962e-06
2.16081e-06
2.0381e-06
2.11e-06
2.12298e-06
2.05391e-06
2.20409e-06
1.99328e-06
2.28129e-06
1.92885e-06
2.3545e-06
1.86127e-06
2.4237e-06
1.79118e-06
2.48886e-06
1.71916e-06
2.55003e-06
1.64573e-06
2.60725e-06
1.57137e-06
2.66058e-06
1.49649e-06
2.71012e-06
1.42145e-06
2.75595e-06
1.34658e-06
2.79816e-06
1.27213e-06
2.83684e-06
1.19831e-06
2.87207e-06
1.1253e-06
2.90394e-06
1.05323e-06
2.93251e-06
9.82191e-07
9.12264e-07
6.53903e-11
4.11599e-08
1.39425e-09
1.51952e-07
6.25971e-09
2.83582e-07
1.71843e-08
4.30732e-07
3.63836e-08
5.89182e-07
6.55227e-08
7.55026e-07
1.0561e-07
9.24416e-07
1.56993e-07
1.09348e-06
2.19423e-07
1.2584e-06
2.92165e-07
1.41559e-06
3.74132e-07
1.56193e-06
4.64022e-07
1.69491e-06
5.60454e-07
1.81273e-06
6.6207e-07
1.91436e-06
7.6761e-07
1.99943e-06
8.75949e-07
2.06813e-06
9.86112e-07
2.1211e-06
1.09726e-06
2.15924e-06
1.20866e-06
2.18365e-06
1.31969e-06
2.19547e-06
1.42978e-06
2.19583e-06
1.53843e-06
2.18584e-06
1.64517e-06
2.16654e-06
1.74958e-06
2.13891e-06
1.85126e-06
2.10384e-06
1.94989e-06
2.06218e-06
2.04514e-06
2.01474e-06
2.13678e-06
1.96227e-06
2.22459e-06
1.90547e-06
2.30842e-06
1.84502e-06
2.38815e-06
1.78154e-06
2.46372e-06
1.71562e-06
2.53508e-06
1.64779e-06
2.60225e-06
1.57856e-06
2.66525e-06
1.50837e-06
2.72413e-06
1.43761e-06
2.77895e-06
1.36663e-06
2.8298e-06
1.29574e-06
2.87674e-06
1.22518e-06
2.91988e-06
1.15518e-06
2.95928e-06
1.08589e-06
2.99504e-06
1.01747e-06
3.02721e-06
9.50017e-07
8.83601e-07
-1.75797e-09
4.29179e-08
-5.40309e-09
1.55597e-07
-7.69836e-09
2.85877e-07
-5.18142e-09
4.28215e-07
5.12972e-09
5.78871e-07
2.54676e-08
7.34688e-07
5.72673e-08
8.92616e-07
1.01217e-07
1.04953e-06
1.57329e-07
1.20229e-06
2.25061e-07
1.34786e-06
3.03443e-07
1.48355e-06
3.91221e-07
1.60713e-06
4.86993e-07
1.71696e-06
5.89319e-07
1.81204e-06
6.96811e-07
1.89194e-06
8.08191e-07
1.95675e-06
9.22311e-07
2.00698e-06
1.03817e-06
2.04339e-06
1.15488e-06
2.06694e-06
1.27169e-06
2.07866e-06
1.38791e-06
2.0796e-06
1.50295e-06
2.0708e-06
1.61627e-06
2.05322e-06
1.7274e-06
2.02778e-06
1.83589e-06
1.99535e-06
1.94136e-06
1.95671e-06
2.04348e-06
1.91262e-06
2.14196e-06
1.86379e-06
2.23656e-06
1.81087e-06
2.32711e-06
1.75448e-06
2.41344e-06
1.6952e-06
2.49548e-06
1.63358e-06
2.57315e-06
1.57012e-06
2.64644e-06
1.50527e-06
2.71535e-06
1.43946e-06
2.77991e-06
1.37305e-06
2.84017e-06
1.30637e-06
2.89619e-06
1.23971e-06
2.94805e-06
1.17332e-06
2.99582e-06
1.10741e-06
3.03957e-06
1.04214e-06
3.0794e-06
9.77648e-07
3.11537e-06
9.14051e-07
8.51425e-07
-4.19237e-09
4.71102e-08
-1.41368e-08
1.65541e-07
-2.51488e-08
2.96889e-07
-3.25011e-08
4.35568e-07
-3.23053e-08
5.78675e-07
-2.17067e-08
7.2409e-07
1.14893e-09
8.69761e-07
3.72204e-08
1.01346e-06
8.67135e-08
1.15279e-06
1.49229e-07
1.28534e-06
2.23863e-07
1.40891e-06
3.09389e-07
1.5216e-06
4.04373e-07
1.62198e-06
5.07292e-07
1.70912e-06
6.16636e-07
1.78259e-06
7.30976e-07
1.84241e-06
8.49005e-07
1.88895e-06
9.69552e-07
1.92284e-06
1.09159e-06
1.9449e-06
1.2142e-06
1.95604e-06
1.33661e-06
1.9572e-06
1.45811e-06
1.9493e-06
1.57809e-06
1.93324e-06
1.69599e-06
1.90988e-06
1.81135e-06
1.87999e-06
1.92373e-06
1.84433e-06
2.03276e-06
1.80359e-06
2.13813e-06
1.75842e-06
2.23956e-06
1.70943e-06
2.33686e-06
1.65718e-06
2.42984e-06
1.60222e-06
2.51839e-06
1.54503e-06
2.60242e-06
1.48609e-06
2.68189e-06
1.4258e-06
2.75678e-06
1.36457e-06
2.82711e-06
1.30272e-06
2.8929e-06
1.24058e-06
2.9542e-06
1.17841e-06
3.01109e-06
1.11644e-06
3.06362e-06
1.05488e-06
3.11187e-06
9.93889e-07
3.15591e-06
9.33608e-07
3.19581e-06
8.74143e-07
8.15581e-07
-7.4999e-09
5.46101e-08
-2.55802e-08
1.83622e-07
-4.73675e-08
3.18677e-07
-6.64153e-08
4.54615e-07
-7.77286e-08
5.89988e-07
-7.78164e-08
7.24178e-07
-6.44792e-08
8.56423e-07
-3.65629e-08
9.85543e-07
6.24578e-09
1.10998e-06
6.35574e-08
1.22803e-06
1.34522e-07
1.33795e-06
2.17886e-07
1.43824e-06
3.1216e-07
1.5277e-06
4.15725e-07
1.60555e-06
5.2695e-07
1.67137e-06
6.44265e-07
1.7251e-06
7.66208e-07
1.767e-06
8.91453e-07
1.7976e-06
1.01882e-06
1.81754e-06
1.14727e-06
1.8276e-06
1.27588e-06
1.82858e-06
1.40387e-06
1.82131e-06
1.53052e-06
1.80659e-06
1.65524e-06
1.78516e-06
1.77748e-06
1.75775e-06
1.89677e-06
1.72504e-06
2.01271e-06
1.68765e-06
2.12496e-06
1.64618e-06
2.23322e-06
1.60117e-06
2.33725e-06
1.55315e-06
2.43686e-06
1.50261e-06
2.5319e-06
1.44998e-06
2.62229e-06
1.39571e-06
2.70794e-06
1.34015e-06
2.78882e-06
1.28368e-06
2.86493e-06
1.22661e-06
2.93629e-06
1.16922e-06
3.00293e-06
1.11177e-06
3.06491e-06
1.05447e-06
3.12227e-06
9.97513e-07
3.1751e-06
9.41063e-07
3.22346e-06
8.8525e-07
3.26742e-06
8.30182e-07
7.75945e-07
-1.20782e-08
6.66883e-08
-4.07939e-08
2.12337e-07
-7.59935e-08
3.53876e-07
-1.08923e-07
4.87545e-07
-1.33295e-07
6.1436e-07
-1.45005e-07
7.35887e-07
-1.41616e-07
8.53035e-07
-1.21926e-07
9.65853e-07
-8.56504e-08
1.07371e-06
-3.31901e-08
1.17557e-06
3.44872e-08
1.27027e-06
1.16032e-07
1.35669e-06
2.09925e-07
1.43381e-06
3.1439e-07
1.50109e-06
4.27685e-07
1.55807e-06
5.48106e-07
1.60467e-06
6.74047e-07
1.64106e-06
8.04037e-07
1.66761e-06
9.36757e-07
1.68482e-06
1.07104e-06
1.69332e-06
1.20585e-06
1.69377e-06
1.34031e-06
1.68686e-06
1.47362e-06
1.67327e-06
1.60512e-06
1.65367e-06
1.7342e-06
1.62867e-06
1.86036e-06
1.59888e-06
1.98315e-06
1.56485e-06
2.10221e-06
1.52712e-06
2.21722e-06
1.48617e-06
2.32791e-06
1.44246e-06
2.43408e-06
1.39644e-06
2.53555e-06
1.34851e-06
2.63222e-06
1.29904e-06
2.72399e-06
1.24838e-06
2.81082e-06
1.19685e-06
2.89268e-06
1.14474e-06
2.96959e-06
1.09231e-06
3.04156e-06
1.0398e-06
3.10863e-06
9.87392e-07
3.17087e-06
9.35279e-07
3.22832e-06
8.83608e-07
3.28107e-06
8.32506e-07
3.32917e-06
7.82079e-07
7.3241e-07
-1.85023e-08
8.51906e-08
-6.12185e-08
2.55054e-07
-1.13139e-07
4.05797e-07
-1.6249e-07
5.36896e-07
-2.01544e-07
6.53414e-07
-2.25695e-07
7.60038e-07
-2.32456e-07
8.59796e-07
-2.20755e-07
9.54152e-07
-1.90489e-07
1.04344e-06
-1.42259e-07
1.12734e-06
-7.71711e-08
1.20518e-06
3.31149e-09
1.27621e-06
9.73242e-08
1.3398e-06
2.03155e-07
1.39526e-06
3.18891e-07
1.44234e-06
4.42683e-07
1.48088e-06
5.72796e-07
1.51095e-06
7.0763e-07
1.53277e-06
8.45745e-07
1.5467e-06
9.85856e-07
1.5532e-06
1.12684e-06
1.55279e-06
1.2677e-06
1.54599e-06
1.40759e-06
1.53338e-06
1.54577e-06
1.51549e-06
1.68159e-06
1.49285e-06
1.81451e-06
1.46597e-06
1.94404e-06
1.43532e-06
2.06978e-06
1.40137e-06
2.19141e-06
1.36454e-06
2.30863e-06
1.32524e-06
2.42122e-06
1.28385e-06
2.529e-06
1.24073e-06
2.63183e-06
1.19621e-06
2.72962e-06
1.15059e-06
2.8223e-06
1.10417e-06
2.90984e-06
1.0572e-06
2.99224e-06
1.00992e-06
3.06951e-06
9.62526e-07
3.14169e-06
9.15218e-07
3.20881e-06
8.68154e-07
3.27095e-06
8.21473e-07
3.32816e-06
7.75295e-07
3.38052e-06
7.29719e-07
6.84827e-07
-2.76127e-08
1.12803e-07
-8.88022e-08
3.16243e-07
-1.61474e-07
4.78469e-07
-2.30031e-07
6.05453e-07
-2.853e-07
7.08683e-07
-3.22428e-07
7.97166e-07
-3.39164e-07
8.76533e-07
-3.34812e-07
9.498e-07
-3.09649e-07
1.01828e-06
-2.64612e-07
1.08231e-06
-2.01103e-07
1.14168e-06
-1.2085e-07
1.19596e-06
-2.5719e-08
1.24467e-06
8.2204e-08
1.28733e-06
2.00929e-07
1.32361e-06
3.28495e-07
1.35332e-06
4.63048e-07
1.3764e-06
6.02883e-07
1.39294e-06
7.46455e-07
1.40313e-06
8.92389e-07
1.40727e-06
1.03947e-06
1.4057e-06
1.18664e-06
1.39882e-06
1.33298e-06
1.38704e-06
1.4777e-06
1.37078e-06
1.62009e-06
1.35045e-06
1.75959e-06
1.32647e-06
1.89568e-06
1.29923e-06
2.02794e-06
1.26911e-06
2.15601e-06
1.23647e-06
2.27959e-06
1.20166e-06
2.39845e-06
1.16499e-06
2.51239e-06
1.12679e-06
2.62126e-06
1.08733e-06
2.72497e-06
1.04689e-06
2.82342e-06
1.00571e-06
2.9166e-06
9.64026e-07
3.00448e-06
9.22038e-07
3.08707e-06
8.79936e-07
3.1644e-06
8.37886e-07
3.23652e-06
7.96034e-07
3.30348e-06
7.54508e-07
3.36536e-06
7.13417e-07
3.42223e-06
6.72853e-07
6.32893e-07
-4.06629e-08
1.53466e-07
-1.2618e-07
4.0176e-07
-2.24279e-07
5.76568e-07
-3.1479e-07
6.95964e-07
-3.87367e-07
7.8126e-07
-4.37401e-07
8.47199e-07
-4.63298e-07
9.0243e-07
-4.65049e-07
9.5155e-07
-4.43533e-07
9.96765e-07
-4.00182e-07
1.03895e-06
-3.36792e-07
1.07828e-06
-2.55386e-07
1.11455e-06
-1.58115e-07
1.1474e-06
-4.71707e-08
1.17639e-06
7.52672e-08
1.20117e-06
2.07133e-07
1.22145e-06
3.46484e-07
1.23705e-06
4.91528e-07
1.24789e-06
6.40649e-07
1.25401e-06
7.92403e-07
1.25552e-06
9.45517e-07
1.25259e-06
1.09888e-06
1.24546e-06
1.25151e-06
1.23441e-06
1.40258e-06
1.2197e-06
1.55138e-06
1.20166e-06
1.69728e-06
1.18057e-06
1.83975e-06
1.15676e-06
1.97837e-06
1.1305e-06
2.11274e-06
1.1021e-06
2.24257e-06
1.07183e-06
2.36761e-06
1.03996e-06
2.48766e-06
1.00675e-06
2.60255e-06
9.72435e-07
2.71219e-06
9.37252e-07
2.8165e-06
9.01409e-07
2.91542e-06
8.651e-07
3.00895e-06
8.28506e-07
3.0971e-06
7.9179e-07
3.17989e-06
7.55096e-07
3.25737e-06
7.18554e-07
3.3296e-06
6.82279e-07
3.39665e-06
6.46366e-07
3.4586e-06
6.10901e-07
5.75953e-07
-5.95809e-08
2.13047e-07
-1.76922e-07
5.19101e-07
-3.05401e-07
7.05047e-07
-4.1988e-07
8.10443e-07
-5.09672e-07
8.71052e-07
-5.71251e-07
9.08779e-07
-6.04272e-07
9.35451e-07
-6.09794e-07
9.57072e-07
-5.89546e-07
9.76517e-07
-5.45615e-07
9.95023e-07
-4.80288e-07
1.01296e-06
-3.95954e-07
1.03022e-06
-2.95021e-07
1.04646e-06
-1.79867e-07
1.06124e-06
-5.27764e-08
1.07408e-06
8.40819e-08
1.08459e-06
2.28709e-07
1.09242e-06
3.79268e-07
1.09733e-06
5.34102e-07
1.09918e-06
6.91736e-07
1.09788e-06
8.50864e-07
1.09346e-06
1.01035e-06
1.08598e-06
1.16919e-06
1.07556e-06
1.32653e-06
1.06236e-06
1.48164e-06
1.04655e-06
1.63387e-06
1.02834e-06
1.78271e-06
1.00792e-06
1.92768e-06
9.85524e-07
2.06842e-06
9.61357e-07
2.20461e-06
9.35636e-07
2.336e-06
9.08571e-07
2.46238e-06
8.80366e-07
2.5836e-06
8.51215e-07
2.69954e-06
8.21306e-07
2.81014e-06
7.90813e-07
2.91534e-06
7.59899e-07
3.01513e-06
7.28715e-07
3.10952e-06
6.97399e-07
3.19854e-06
6.66075e-07
3.28224e-06
6.34855e-07
3.36069e-06
6.03837e-07
3.43394e-06
5.73107e-07
3.50211e-06
5.4274e-07
5.12798e-07
-8.74651e-08
3.00512e-07
-2.45862e-07
6.77498e-07
-4.08829e-07
8.68015e-07
-5.46929e-07
9.48543e-07
-6.50984e-07
9.75107e-07
-7.19898e-07
9.77693e-07
-7.55373e-07
9.70926e-07
-7.60006e-07
9.61706e-07
-7.36655e-07
9.53166e-07
-6.88219e-07
9.46587e-07
-6.17551e-07
9.42291e-07
-5.2742e-07
9.40088e-07
-4.20473e-07
9.39515e-07
-2.99222e-07
9.39986e-07
-1.66025e-07
9.40885e-07
-2.30609e-08
9.41629e-07
1.27653e-07
9.41706e-07
2.84304e-07
9.40683e-07
4.45252e-07
9.38228e-07
6.09037e-07
9.34097e-07
7.74369e-07
9.28129e-07
9.40116e-07
9.20235e-07
1.10529e-06
9.10388e-07
1.26904e-06
8.98609e-07
1.43064e-06
8.84961e-07
1.58944e-06
8.69535e-07
1.74491e-06
8.52446e-07
1.89661e-06
8.33826e-07
2.04415e-06
8.13815e-07
2.18723e-06
7.92563e-07
2.32558e-06
7.70221e-07
2.459e-06
7.4694e-07
2.58735e-06
7.2287e-07
2.7105e-06
6.98155e-07
2.82838e-06
6.72933e-07
2.94094e-06
6.47335e-07
3.04818e-06
6.21484e-07
3.15008e-06
5.95492e-07
3.24669e-06
5.69464e-07
3.33805e-06
5.43493e-07
3.42423e-06
5.17662e-07
3.50529e-06
4.92046e-07
3.58132e-06
4.66707e-07
4.41702e-07
-1.2959e-07
4.30102e-07
-3.3947e-07
8.87378e-07
-5.3715e-07
1.06569e-06
-6.92317e-07
1.10371e-06
-8.00983e-07
1.08377e-06
-8.66543e-07
1.04325e-06
-8.93839e-07
9.98222e-07
-8.87624e-07
9.55491e-07
-8.52219e-07
9.1776e-07
-7.91484e-07
8.85851e-07
-7.08865e-07
8.59672e-07
-6.07453e-07
8.38676e-07
-4.90033e-07
8.22095e-07
-3.5913e-07
8.09083e-07
-2.17036e-07
7.98792e-07
-6.58342e-08
7.90427e-07
9.25946e-08
7.83278e-07
2.56549e-07
7.76729e-07
4.24506e-07
7.7027e-07
5.95109e-07
7.63494e-07
7.67154e-07
7.56084e-07
9.3958e-07
7.47809e-07
1.11146e-06
7.38509e-07
1.28198e-06
7.28088e-07
1.45044e-06
7.16498e-07
1.61624e-06
7.03734e-07
1.77886e-06
6.89825e-07
1.93787e-06
6.74823e-07
2.09288e-06
6.58801e-07
2.2436e-06
6.41845e-07
2.38977e-06
6.24051e-07
2.53119e-06
6.05522e-07
2.6677e-06
5.86361e-07
2.79918e-06
5.66673e-07
2.92555e-06
5.46563e-07
3.04675e-06
5.26129e-07
3.16277e-06
5.05467e-07
3.2736e-06
4.84667e-07
3.37925e-06
4.6381e-07
3.47977e-06
4.42974e-07
3.5752e-06
4.22227e-07
3.66562e-06
4.0163e-07
3.75109e-06
3.81237e-07
3.61097e-07
-1.95657e-07
6.25759e-07
-4.65792e-07
1.15751e-06
-6.86072e-07
1.28597e-06
-8.36228e-07
1.25387e-06
-9.24403e-07
1.17195e-06
-9.61609e-07
1.08046e-06
-9.57379e-07
9.93993e-07
-9.19412e-07
9.17524e-07
-8.53821e-07
8.52169e-07
-7.65449e-07
7.97479e-07
-6.58171e-07
7.52394e-07
-5.35143e-07
7.15648e-07
-3.98999e-07
6.85951e-07
-2.51981e-07
6.62064e-07
-9.6041e-08
6.42852e-07
6.70999e-08
6.27286e-07
2.3591e-07
6.14468e-07
4.09015e-07
6.03623e-07
5.85181e-07
5.94104e-07
7.633e-07
5.85375e-07
9.42379e-07
5.77005e-07
1.12153e-06
5.68656e-07
1.29997e-06
5.6007e-07
1.477e-06
5.5106e-07
1.652e-06
5.41496e-07
1.82444e-06
5.31297e-07
1.99384e-06
5.2042e-07
2.15981e-06
5.08857e-07
2.32199e-06
4.96622e-07
2.48008e-06
4.83748e-07
2.63385e-06
4.70284e-07
2.78309e-06
4.56288e-07
2.92762e-06
4.41826e-07
3.06733e-06
4.26966e-07
3.20211e-06
4.11781e-07
3.3319e-06
3.96342e-07
3.45665e-06
3.80717e-07
3.57634e-06
3.64974e-07
3.69097e-06
3.49176e-07
3.80057e-06
3.33381e-07
3.90515e-06
3.17643e-07
4.00477e-06
3.02011e-07
4.09948e-06
2.86529e-07
2.71235e-07
-3.0527e-07
9.31029e-07
-6.29137e-07
1.48138e-06
-8.22673e-07
1.47951e-06
-9.07564e-07
1.33876e-06
-9.16607e-07
1.18099e-06
-8.72796e-07
1.03665e-06
-7.91751e-07
9.12947e-07
-6.84228e-07
8.10001e-07
-5.57608e-07
7.25549e-07
-4.169e-07
6.56771e-07
-2.65526e-07
6.0102e-07
-1.05888e-07
5.5601e-07
6.02638e-08
5.198e-07
2.31591e-07
4.90738e-07
4.07027e-07
4.67416e-07
5.85668e-07
4.48645e-07
7.66717e-07
4.33418e-07
9.49448e-07
4.20893e-07
1.13319e-06
4.10366e-07
1.3173e-06
4.0126e-07
1.5012e-06
3.93107e-07
1.68433e-06
3.85532e-07
1.86615e-06
3.78242e-07
2.0462e-06
3.71012e-07
2.22402e-06
3.63676e-07
2.3992e-06
3.56115e-07
2.57137e-06
3.48249e-07
2.7402e-06
3.40032e-07
2.90538e-06
3.31442e-07
3.06665e-06
3.22478e-07
3.22378e-06
3.13155e-07
3.37657e-06
3.03498e-07
3.52485e-06
2.93542e-07
3.66849e-06
2.83327e-07
3.80737e-06
2.72899e-07
3.94141e-06
2.62302e-07
4.07055e-06
2.51582e-07
4.19474e-06
2.40786e-07
4.31395e-06
2.29957e-07
4.4282e-06
2.19136e-07
4.53748e-06
2.08361e-07
4.64183e-06
1.97667e-07
4.74127e-06
1.87086e-07
1.76645e-07
-4.9927e-07
1.4303e-06
-7.77479e-07
1.75959e-06
-7.84076e-07
1.48611e-06
-6.59697e-07
1.21438e-06
-4.76126e-07
9.97419e-07
-2.65789e-07
8.26311e-07
-4.47157e-08
6.91874e-07
1.78236e-07
5.87049e-07
3.9847e-07
5.05315e-07
6.14007e-07
4.41235e-07
8.24286e-07
3.90741e-07
1.02945e-06
3.50849e-07
1.22995e-06
3.19295e-07
1.42637e-06
2.94314e-07
1.61928e-06
2.74506e-07
1.80918e-06
2.5875e-07
1.99645e-06
2.46146e-07
2.18138e-06
2.3596e-07
2.36415e-06
2.27601e-07
2.54482e-06
2.2059e-07
2.72338e-06
2.14543e-07
2.89976e-06
2.09155e-07
3.07382e-06
2.04184e-07
3.24538e-06
1.99448e-07
3.41425e-06
1.94804e-07
3.58022e-06
1.90151e-07
3.74305e-06
1.85416e-07
3.90253e-06
1.80551e-07
4.05845e-06
1.75527e-07
4.21059e-06
1.70333e-07
4.35878e-06
1.64967e-07
4.50284e-06
1.59438e-07
4.64262e-06
1.53762e-07
4.77799e-06
1.47958e-07
4.90884e-06
1.4205e-07
5.03508e-06
1.36063e-07
5.15663e-06
1.30024e-07
5.27346e-06
1.23957e-07
5.38553e-06
1.17888e-07
5.49283e-06
1.11841e-07
5.59535e-06
1.05837e-07
5.69312e-06
9.98981e-08
5.78617e-06
9.40412e-08
8.82826e-08
-6.71779e-07
2.10208e-06
-3.74737e-07
1.46255e-06
1.89012e-07
9.22358e-07
7.23276e-07
6.80115e-07
1.19826e-06
5.22437e-07
1.62044e-06
4.04126e-07
1.99517e-06
3.17143e-07
2.32788e-06
2.54338e-07
2.62476e-06
2.08443e-07
2.89177e-06
1.74217e-07
3.13418e-06
1.48336e-07
3.35641e-06
1.2862e-07
3.56218e-06
1.13525e-07
3.75458e-06
1.01917e-07
3.93613e-06
9.29486e-08
4.1089e-06
8.59837e-08
4.27451e-06
8.05359e-08
4.43424e-06
7.62285e-08
4.58907e-06
7.27688e-08
4.73973e-06
6.99282e-08
4.88675e-06
6.75288e-08
5.03047e-06
6.5433e-08
5.17112e-06
6.3535e-08
5.30881e-06
6.17549e-08
5.44358e-06
6.00333e-08
5.57541e-06
5.83272e-08
5.70422e-06
5.66069e-08
5.82991e-06
5.48529e-08
5.95239e-06
5.3054e-08
6.07151e-06
5.12052e-08
6.18718e-06
4.93063e-08
6.29925e-06
4.73608e-08
6.40764e-06
4.53747e-08
6.51224e-06
4.33558e-08
6.61298e-06
4.13131e-08
6.70979e-06
3.92559e-08
6.80262e-06
3.71941e-08
6.89144e-06
3.51369e-08
6.97623e-06
3.30935e-08
7.057e-06
3.10721e-08
7.13376e-06
2.90806e-08
7.20653e-06
2.71255e-08
7.27536e-06
2.52129e-08
2.33479e-08
2.10208e-06
3.56463e-06
4.48698e-06
5.1671e-06
5.68954e-06
6.09366e-06
6.4108e-06
6.66514e-06
6.87359e-06
7.0478e-06
7.19614e-06
7.32476e-06
7.43828e-06
7.5402e-06
7.63315e-06
7.71913e-06
7.79967e-06
7.8759e-06
7.94867e-06
8.0186e-06
8.08612e-06
8.15156e-06
8.21509e-06
8.27685e-06
8.33688e-06
8.39521e-06
8.45181e-06
8.50667e-06
8.55972e-06
8.61093e-06
8.66023e-06
8.70759e-06
8.75297e-06
8.79632e-06
8.83764e-06
8.87689e-06
8.91409e-06
8.94922e-06
8.98232e-06
9.01339e-06
9.04247e-06
9.0696e-06
9.09481e-06
)
;

boundaryField
{
    movingWall
    {
        type            calculated;
        value           uniform 0;
    }
    fixedWalls
    {
        type            calculated;
        value           uniform 0;
    }
    frontAndBack
    {
        type            empty;