/*--------------------------------*- C++ -*----------------------------------*\
  =========                 |
  \\      /  F ield         | OpenFOAM: The Open Source CFD Toolbox
   \\    /   O peration     | Website:  https://openfoam.org
    \\  /    A nd           | Version:  9
     \\/     M anipulation  |
\*---------------------------------------------------------------------------*/
FoamFile
{
    format      ascii;
    class       volVectorField;
    location    "3.5";
    object      U;
}
// * * * * * * * * * * * * * * * * * * * * * * * * * * * * * * * * * * * * * //

dimensions      [0 1 -1 0 0 0 0];

internalField   nonuniform List<vector> 
1250
(
(0.145111 0.279937 0)
(0.147219 0.269849 0)
(0.149092 0.259406 0)
(0.150756 0.248722 0)
(0.152237 0.237895 0)
(0.153558 0.227007 0)
(0.154741 0.216123 0)
(0.155805 0.205297 0)
(0.156765 0.194567 0)
(0.157632 0.183962 0)
(0.158415 0.173499 0)
(0.159119 0.16319 0)
(0.159746 0.153038 0)
(0.160296 0.143043 0)
(0.160768 0.1332 0)
(0.161157 0.123504 0)
(0.161459 0.113945 0)
(0.161667 0.104514 0)
(0.000269558 0.0110509 0)
(0.00203154 0.0363195 0)
(0.00592107 0.0641667 0)
(0.011448 0.0937555 0)
(0.0183016 0.124078 0)
(0.0261643 0.154073 0)
(0.0346762 0.182756 0)
(0.0434894 0.209326 0)
(0.0523098 0.233229 0)
(0.0609191 0.254169 0)
(0.0691806 0.272078 0)
(0.0770297 0.287048 0)
(0.0844546 0.299265 0)
(0.0914753 0.308953 0)
(0.0981237 0.316329 0)
(0.10443 0.321584 0)
(0.110415 0.324877 0)
(0.116088 0.326343 0)
(0.12145 0.3261 0)
(0.126494 0.324263 0)
(0.131211 0.320948 0)
(0.135592 0.31628 0)
(0.139634 0.310392 0)
(0.143339 0.303426 0)
(0.146713 0.295528 0)
(0.149768 0.286844 0)
(0.152523 0.277519 0)
(0.155 0.267689 0)
(0.157221 0.257479 0)
(0.159212 0.247002 0)
(0.160999 0.236356 0)
(0.162604 0.225627 0)
(0.16405 0.214882 0)
(0.165356 0.204177 0)
(0.166537 0.193555 0)
(0.167608 0.183046 0)
(0.168577 0.172673 0)
(0.169451 0.162448 0)
(0.170234 0.15238 0)
(0.170926 0.142468 0)
(0.171528 0.132711 0)
(0.172037 0.123105 0)
(0.172449 0.11364 0)
(0.172758 0.10431 0)
(0.000249634 0.0100457 0)
(0.00191416 0.0334333 0)
(0.00562659 0.0595623 0)
(0.0109575 0.0876565 0)
(0.0176422 0.116773 0)
(0.0254013 0.145896 0)
(0.033903 0.174053 0)
(0.0428123 0.200415 0)
(0.0518324 0.224374 0)
(0.0607301 0.245558 0)
(0.069347 0.263823 0)
(0.0775954 0.279197 0)
(0.0854441 0.291823 0)
(0.0928987 0.301899 0)
(0.0999831 0.309633 0)
(0.106724 0.315221 0)
(0.113143 0.318831 0)
(0.119252 0.320608 0)
(0.125052 0.32068 0)
(0.130538 0.319164 0)
(0.1357 0.31618 0)
(0.140531 0.311849 0)
(0.145022 0.306301 0)
(0.149173 0.299672 0)
(0.152987 0.292103 0)
(0.156473 0.283736 0)
(0.159645 0.274709 0)
(0.162522 0.265154 0)
(0.165125 0.255197 0)
(0.167477 0.244948 0)
(0.169603 0.234506 0)
(0.171525 0.223958 0)
(0.173265 0.213374 0)
(0.174843 0.202811 0)
(0.176275 0.192317 0)
(0.177575 0.181924 0)
(0.178754 0.171658 0)
(0.179821 0.161534 0)
(0.180779 0.151563 0)
(0.181633 0.141749 0)
(0.182382 0.13209 0)
(0.183025 0.122584 0)
(0.183559 0.113225 0)
(0.183981 0.104005 0)
(0.000229555 0.00910355 0)
(0.0017907 0.0306982 0)
(0.00530771 0.0551562 0)
(0.01041 0.08176 0)
(0.0168783 0.109632 0)
(0.024473 0.137809 0)
(0.0328946 0.165342 0)
(0.0418269 0.191392 0)
(0.050977 0.215306 0)
(0.0601023 0.23665 0)
(0.069026 0.255209 0)
(0.0776387 0.270947 0)
(0.0858889 0.283959 0)
(0.093766 0.294412 0)
(0.101283 0.302501 0)
(0.108463 0.30842 0)
(0.115323 0.312346 0)
(0.121877 0.314431 0)
(0.128128 0.314812 0)
(0.134071 0.313613 0)
(0.139698 0.310954 0)
(0.144997 0.306957 0)
(0.14996 0.301749 0)
(0.154583 0.295462 0)
(0.158865 0.288229 0)
(0.162811 0.280188 0)
(0.166431 0.271473 0)
(0.169742 0.262212 0)
(0.172762 0.252526 0)
(0.17551 0.242526 0)
(0.17801 0.232312 0)
(0.180283 0.221967 0)
(0.182351 0.211567 0)
(0.184233 0.20117 0)
(0.185946 0.190825 0)
(0.187505 0.180569 0)
(0.188922 0.170429 0)
(0.190206 0.160425 0)
(0.191364 0.150569 0)
(0.192399 0.140867 0)
(0.193314 0.131321 0)
(0.194108 0.121929 0)
(0.19478 0.112686 0)
(0.195327 0.103586 0)
(0.000209464 0.00822688 0)
(0.001662 0.0281259 0)
(0.00496672 0.050973 0)
(0.00980964 0.076105 0)
(0.0160156 0.102709 0)
(0.0233857 0.129878 0)
(0.0316561 0.156696 0)
(0.0405353 0.18233 0)
(0.0497405 0.206094 0)
(0.0590255 0.227505 0)
(0.0681996 0.246283 0)
(0.0771339 0.262331 0)
(0.0857565 0.275693 0)
(0.0940394 0.286501 0)
(0.101983 0.294933 0)
(0.109601 0.301178 0)
(0.11691 0.305413 0)
(0.123919 0.3078 0)
(0.130634 0.308483 0)
(0.13705 0.307592 0)
(0.143157 0.305252 0)
(0.148945 0.301584 0)
(0.154403 0.296714 0)
(0.159522 0.290768 0)
(0.164299 0.283877 0)
(0.168735 0.276171 0)
(0.172836 0.267779 0)
(0.176615 0.258827 0)
(0.180085 0.249432 0)
(0.183266 0.239702 0)
(0.186176 0.229736 0)
(0.188837 0.21962 0)
(0.191267 0.209427 0)
(0.193488 0.19922 0)
(0.195515 0.189047 0)
(0.197364 0.178951 0)
(0.199048 0.168959 0)
(0.200578 0.159095 0)
(0.20196 0.149372 0)
(0.2032 0.139801 0)
(0.204303 0.130383 0)
(0.205267 0.12112 0)
(0.206095 0.112007 0)
(0.206783 0.103041 0)
(0.00018946 0.00741793 0)
(0.0015286 0.0257273 0)
(0.00460507 0.0470357 0)
(0.00915906 0.0707289 0)
(0.015058 0.0960555 0)
(0.0221441 0.122168 0)
(0.030192 0.148191 0)
(0.0389396 0.173306 0)
(0.0481205 0.196813 0)
(0.057491 0.218188 0)
(0.0668516 0.237097 0)
(0.0760569 0.253387 0)
(0.0850158 0.26705 0)
(0.0936819 0.278181 0)
(0.102041 0.286935 0)
(0.110096 0.29349 0)
(0.117856 0.298024 0)
(0.125331 0.300703 0)
(0.132522 0.301678 0)
(0.139426 0.301086 0)
(0.146032 0.299056 0)
(0.152328 0.29571 0)
(0.158302 0.291172 0)
(0.163942 0.285566 0)
(0.169241 0.279017 0)
(0.174196 0.271652 0)
(0.17881 0.263595 0)
(0.183089 0.254966 0)
(0.187046 0.245878 0)
(0.190694 0.236439 0)
(0.194051 0.226744 0)
(0.197136 0.21688 0)
(0.199966 0.206919 0)
(0.202561 0.196926 0)
(0.204937 0.186952 0)
(0.20711 0.177038 0)
(0.209093 0.167218 0)
(0.210898 0.157516 0)
(0.212533 0.147949 0)
(0.214005 0.138526 0)
(0.215318 0.129256 0)
(0.216475 0.120138 0)
(0.217478 0.111172 0)
(0.218325 0.102354 0)
(0.000169579 0.00667866 0)
(0.00139061 0.0235128 0)
(0.00422303 0.0433665 0)
(0.00845904 0.0656683 0)
(0.0140071 0.0897239 0)
(0.0207504 0.114744 0)
(0.0285042 0.139902 0)
(0.0370402 0.164401 0)
(0.0461139 0.187542 0)
(0.0554906 0.208772 0)
(0.064967 0.227714 0)
(0.0743855 0.244163 0)
(0.0836371 0.258064 0)
(0.0926572 0.269472 0)
(0.101415 0.278516 0)
(0.109901 0.285358 0)
(0.118116 0.290173 0)
(0.126064 0.29313 0)
(0.133744 0.294384 0)
(0.141151 0.294079 0)
(0.148273 0.292346 0)
(0.155098 0.289312 0)
(0.16161 0.285099 0)
(0.167795 0.279829 0)
(0.173642 0.273623 0)
(0.179145 0.266603 0)
(0.184301 0.258888 0)
(0.189113 0.250594 0)
(0.19359 0.24183 0)
(0.197742 0.2327 0)
(0.201582 0.223299 0)
(0.205127 0.213709 0)
(0.208394 0.204006 0)
(0.2114 0.194252 0)
(0.214161 0.184502 0)
(0.216693 0.174798 0)
(0.219009 0.165175 0)
(0.221121 0.155659 0)
(0.223038 0.146269 0)
(0.224769 0.137018 0)
(0.22632 0.127915 0)
(0.227694 0.118962 0)
(0.228893 0.11016 0)
(0.229919 0.101507 0)
(0.000149766 0.00601111 0)
(0.00124745 0.021493 0)
(0.0038191 0.0399879 0)
(0.00770739 0.0609595 0)
(0.0128604 0.083765 0)
(0.0192025 0.107672 0)
(0.0265908 0.131904 0)
(0.0348343 0.155698 0)
(0.0437158 0.178363 0)
(0.0530151 0.199334 0)
(0.0625312 0.2182 0)
(0.0720981 0.234714 0)
(0.081592 0.248774 0)
(0.0909305 0.260399 0)
(0.100065 0.269687 0)
(0.108973 0.276784 0)
(0.117643 0.281856 0)
(0.12607 0.285071 0)
(0.134251 0.286588 0)
(0.142176 0.286553 0)
(0.149832 0.285105 0)
(0.157205 0.282371 0)
(0.164276 0.278473 0)
(0.171029 0.273533 0)
(0.17745 0.267668 0)
(0.183527 0.260995 0)
(0.189255 0.253628 0)
(0.194632 0.245679 0)
(0.199662 0.237253 0)
(0.204351 0.228451 0)
(0.20871 0.219362 0)
(0.212753 0.210071 0)
(0.216493 0.20065 0)
(0.219947 0.191163 0)
(0.223129 0.181663 0)
(0.226055 0.172195 0)
(0.228738 0.162795 0)
(0.231191 0.15349 0)
(0.233423 0.144303 0)
(0.235443 0.135248 0)
(0.237259 0.126334 0)
(0.238876 0.117567 0)
(0.240296 0.108949 0)
(0.241523 0.100479 0)
(0.000129826 0.00541776 0)
(0.0010976 0.01968 0)
(0.00338933 0.0369238 0)
(0.00689777 0.0566398 0)
(0.0116102 0.0782302 0)
(0.0174918 0.101017 0)
(0.0244433 0.124274 0)
(0.0323135 0.14728 0)
(0.0409166 0.169363 0)
(0.0500526 0.189957 0)
(0.0595282 0.208629 0)
(0.0691737 0.225099 0)
(0.0788535 0.239227 0)
(0.0884688 0.250994 0)
(0.0979538 0.260468 0)
(0.107268 0.267776 0)
(0.116389 0.273071 0)
(0.125301 0.276517 0)
(0.133993 0.278274 0)
(0.142451 0.278493 0)
(0.150659 0.277313 0)
(0.158599 0.274865 0)
(0.166251 0.271273 0)
(0.173595 0.266654 0)
(0.180613 0.261126 0)
(0.187291 0.254799 0)
(0.193618 0.247785 0)
(0.199589 0.24019 0)
(0.205202 0.232115 0)
(0.210462 0.223656 0)
(0.215374 0.214901 0)
(0.219949 0.20593 0)
(0.224198 0.196816 0)
(0.228136 0.18762 0)
(0.231776 0.178398 0)
(0.235132 0.169193 0)
(0.238218 0.160043 0)
(0.241044 0.150978 0)
(0.243624 0.14202 0)
(0.245965 0.133185 0)
(0.248075 0.124486 0)
(0.249962 0.115928 0)
(0.251629 0.107516 0)
(0.25308 0.0992496 0)
(0.000109343 0.00490216 0)
(0.000938153 0.0180882 0)
(0.0029262 0.0342014 0)
(0.00601803 0.0527495 0)
(0.0102408 0.0731728 0)
(0.015601 0.0948432 0)
(0.022044 0.117089 0)
(0.0294605 0.13923 0)
(0.0376998 0.160628 0)
(0.0465864 0.180725 0)
(0.0559394 0.199079 0)
(0.0655902 0.215386 0)
(0.0753951 0.229475 0)
(0.0852405 0.241294 0)
(0.0950435 0.250882 0)
(0.104747 0.258343 0)
(0.114311 0.263817 0)
(0.123711 0.267461 0)
(0.132923 0.269433 0)
(0.141928 0.269883 0)
(0.150705 0.268953 0)
(0.159232 0.266776 0)
(0.167485 0.263476 0)
(0.175442 0.25917 0)
(0.183081 0.253972 0)
(0.190383 0.247991 0)
(0.197336 0.241332 0)
(0.203928 0.234097 0)
(0.210154 0.226384 0)
(0.216014 0.218283 0)
(0.22151 0.20988 0)
(0.22665 0.201251 0)
(0.231443 0.192467 0)
(0.235899 0.18359 0)
(0.240032 0.174671 0)
(0.243852 0.165758 0)
(0.247374 0.156887 0)
(0.250609 0.148089 0)
(0.253568 0.139387 0)
(0.256261 0.1308 0)
(0.258696 0.12234 0)
(0.260881 0.114017 0)
(0.262822 0.105835 0)
(0.264522 0.0977947 0)
(8.75615e-05 0.00446976 0)
(0.000764182 0.0167373 0)
(0.00241725 0.031854 0)
(0.00504799 0.0493343 0)
(0.00872599 0.0686497 0)
(0.0135006 0.0892188 0)
(0.0193626 0.110423 0)
(0.0262464 0.131632 0)
(0.0340385 0.152244 0)
(0.0425913 0.171721 0)
(0.0517406 0.189627 0)
(0.061323 0.205642 0)
(0.0711898 0.219573 0)
(0.0812156 0.23134 0)
(0.0913008 0.240956 0)
(0.10137 0.248501 0)
(0.111369 0.2541 0)
(0.121255 0.257899 0)
(0.130995 0.260051 0)
(0.14056 0.260706 0)
(0.149922 0.260005 0)
(0.159054 0.258082 0)
(0.167929 0.255061 0)
(0.17652 0.251058 0)
(0.184802 0.246184 0)
(0.192752 0.240545 0)
(0.200353 0.234243 0)
(0.207591 0.227374 0)
(0.214456 0.220032 0)
(0.220944 0.212303 0)
(0.227054 0.204268 0)
(0.232789 0.196002 0)
(0.238156 0.187571 0)
(0.243163 0.179037 0)
(0.24782 0.17045 0)
(0.252138 0.161855 0)
(0.256129 0.153291 0)
(0.259804 0.144789 0)
(0.263175 0.136372 0)
(0.266251 0.128061 0)
(0.269041 0.119869 0)
(0.271553 0.111806 0)
(0.273794 0.103879 0)
(0.275768 0.0960899 0)
(6.31899e-05 0.00412916 0)
(0.000567872 0.0156544 0)
(0.0018432 0.0299239 0)
(0.00395669 0.046448 0)
(0.00702577 0.0647235 0)
(0.0111452 0.0842133 0)
(0.0163526 0.104352 0)
(0.0226266 0.124564 0)
(0.029892 0.144292 0)
(0.0380313 0.163029 0)
(0.0468997 0.18035 0)
(0.0563425 0.195936 0)
(0.0662092 0.209579 0)
(0.0763646 0.221177 0)
(0.0866943 0.23072 0)
(0.0971053 0.238268 0)
(0.107525 0.243926 0)
(0.117894 0.247829 0)
(0.128167 0.250122 0)
(0.138303 0.25095 0)
(0.148266 0.250454 0)
(0.158022 0.248765 0)
(0.167537 0.246008 0)
(0.176782 0.242296 0)
(0.185727 0.237739 0)
(0.194346 0.23244 0)
(0.202617 0.226495 0)
(0.210523 0.219997 0)
(0.21805 0.213034 0)
(0.22519 0.205689 0)
(0.231939 0.198038 0)
(0.238296 0.190154 0)
(0.244264 0.182098 0)
(0.24985 0.173931 0)
(0.255061 0.165701 0)
(0.259907 0.157453 0)
(0.264397 0.149225 0)
(0.268544 0.141047 0)
(0.272356 0.132945 0)
(0.275844 0.124938 0)
(0.279017 0.117042 0)
(0.281884 0.109268 0)
(0.284452 0.101623 0)
(0.286727 0.0941105 0)
(3.41472e-05 0.00389383 0)
(0.000337335 0.0148783 0)
(0.00117544 0.0284677 0)
(0.00269892 0.044157 0)
(0.00508215 0.0614655 0)
(0.00846943 0.0799003 0)
(0.0129467 0.0989526 0)
(0.0185366 0.118105 0)
(0.0252021 0.13685 0)
(0.0328557 0.154722 0)
(0.0413738 0.17132 0)
(0.0506121 0.186333 0)
(0.0604212 0.199548 0)
(0.0706582 0.21085 0)
(0.0811949 0.220208 0)
(0.0919216 0.227663 0)
(0.102747 0.233304 0)
(0.113595 0.23725 0)
(0.124404 0.239636 0)
(0.13512 0.240601 0)
(0.145697 0.240282 0)
(0.156092 0.238807 0)
(0.166266 0.236298 0)
(0.176183 0.232867 0)
(0.18581 0.228619 0)
(0.195117 0.223655 0)
(0.204077 0.218067 0)
(0.21267 0.211943 0)
(0.220879 0.205368 0)
(0.228692 0.198418 0)
(0.2361 0.191167 0)
(0.243101 0.183681 0)
(0.249695 0.176022 0)
(0.255884 0.168245 0)
(0.261674 0.160398 0)
(0.267074 0.152524 0)
(0.272091 0.144659 0)
(0.276735 0.136835 0)
(0.281016 0.129076 0)
(0.284943 0.121404 0)
(0.288527 0.113833 0)
(0.291775 0.106375 0)
(0.294695 0.0990401 0)
(0.297294 0.0918318 0)
(-2.56873e-06 0.0037846 0)
(5.51059e-05 0.0144654 0)
(0.000372701 0.0275612 0)
(0.00121102 0.0425444 0)
(0.00281467 0.0589587 0)
(0.00538325 0.0763589 0)
(0.00905277 0.0942985 0)
(0.0138885 0.112324 0)
(0.0198892 0.129986 0)
(0.0269962 0.146867 0)
(0.0351062 0.1626 0)
(0.0440862 0.176891 0)
(0.053789 0.189531 0)
(0.0640657 0.200398 0)
(0.0747762 0.20945 0)
(0.0857942 0.216708 0)
(0.0970101 0.222244 0)
(0.108331 0.226164 0)
(0.119676 0.22859 0)
(0.130979 0.229651 0)
(0.142181 0.229477 0)
(0.15323 0.228192 0)
(0.164078 0.225914 0)
(0.174684 0.222751 0)
(0.185009 0.218805 0)
(0.195019 0.214173 0)
(0.204685 0.208942 0)
(0.213981 0.203197 0)
(0.222888 0.197015 0)
(0.231389 0.190471 0)
(0.239475 0.183633 0)
(0.247137 0.176563 0)
(0.254374 0.16932 0)
(0.261186 0.161956 0)
(0.267577 0.154516 0)
(0.273552 0.147042 0)
(0.279117 0.139569 0)
(0.284282 0.132127 0)
(0.289055 0.124741 0)
(0.293446 0.117432 0)
(0.297463 0.110215 0)
(0.301116 0.103104 0)
(0.304412 0.0961071 0)
(0.307358 0.0892306 0)
(-5.10014e-05 0.00383443 0)
(-0.000303967 0.0144947 0)
(-0.000623451 0.0273074 0)
(-0.000594241 0.041717 0)
(0.000115348 0.0573001 0)
(0.00176741 0.0736742 0)
(0.00454982 0.0904633 0)
(0.00856721 0.107285 0)
(0.01385 0.123758 0)
(0.0203645 0.139518 0)
(0.0280249 0.154239 0)
(0.0367083 0.167654 0)
(0.0462697 0.179568 0)
(0.0565552 0.189858 0)
(0.0674134 0.198473 0)
(0.0787029 0.205421 0)
(0.0902965 0.210759 0)
(0.102083 0.214576 0)
(0.113964 0.21698 0)
(0.125859 0.21809 0)
(0.137694 0.218027 0)
(0.149407 0.216906 0)
(0.160942 0.214841 0)
(0.172249 0.211934 0)
(0.183286 0.208283 0)
(0.194012 0.203979 0)
(0.204396 0.199106 0)
(0.214407 0.193742 0)
(0.224023 0.187962 0)
(0.233226 0.181834 0)
(0.242 0.175422 0)
(0.250337 0.168785 0)
(0.258231 0.161977 0)
(0.265681 0.155046 0)
(0.272687 0.148037 0)
(0.279253 0.140988 0)
(0.285384 0.133933 0)
(0.291088 0.126901 0)
(0.296372 0.119917 0)
(0.301246 0.113 0)
(0.305716 0.106167 0)
(0.309793 0.0994313 0)
(0.313484 0.0928019 0)
(0.316797 0.0862859 0)
(-0.000120036 0.00409195 0)
(-0.000776707 0.0150782 0)
(-0.00189098 0.0278435 0)
(-0.00283428 0.0418082 0)
(-0.003158 0.0566057 0)
(-0.00253026 0.0719384 0)
(-0.000714595 0.0875175 0)
(0.00242905 0.103044 0)
(0.00695618 0.118208 0)
(0.0128514 0.132708 0)
(0.0200417 0.146267 0)
(0.0284107 0.158652 0)
(0.0378139 0.169685 0)
(0.0480923 0.179252 0)
(0.059084 0.187296 0)
(0.0706331 0.193817 0)
(0.0825956 0.198856 0)
(0.0948423 0.202488 0)
(0.107259 0.204806 0)
(0.119748 0.205914 0)
(0.132222 0.205923 0)
(0.144606 0.20494 0)
(0.156836 0.203068 0)
(0.168854 0.200405 0)
(0.180611 0.197041 0)
(0.192063 0.193063 0)
(0.203171 0.188548 0)
(0.213906 0.18357 0)
(0.224238 0.178199 0)
(0.234148 0.172497 0)
(0.243618 0.166525 0)
(0.252637 0.160336 0)
(0.261196 0.15398 0)
(0.269291 0.147504 0)
(0.276922 0.140948 0)
(0.28409 0.134349 0)
(0.290799 0.127737 0)
(0.297054 0.121142 0)
(0.302863 0.114587 0)
(0.308234 0.108091 0)
(0.313173 0.101671 0)
(0.31769 0.0953395 0)
(0.321793 0.0891064 0)
(0.325489 0.0829791 0)
(-0.000220918 0.00462889 0)
(-0.00141473 0.0163742 0)
(-0.00353719 0.0293514 0)
(-0.00565977 0.0429848 0)
(-0.00718329 0.0570104 0)
(-0.00769958 0.0712497 0)
(-0.00692699 0.0855263 0)
(-0.00469904 0.0996378 0)
(-0.000945413 0.113358 0)
(0.00432794 0.126451 0)
(0.0110532 0.138693 0)
(0.0191151 0.14989 0)
(0.0283665 0.159889 0)
(0.0386416 0.168586 0)
(0.049768 0.175927 0)
(0.0615761 0.181902 0)
(0.0739062 0.186542 0)
(0.0866123 0.189904 0)
(0.0995642 0.192067 0)
(0.112647 0.193121 0)
(0.125762 0.193163 0)
(0.138821 0.192288 0)
(0.151749 0.190589 0)
(0.164482 0.188157 0)
(0.176963 0.185074 0)
(0.189143 0.181418 0)
(0.20098 0.177263 0)
(0.212439 0.172677 0)
(0.22349 0.167721 0)
(0.234108 0.162457 0)
(0.244276 0.156936 0)
(0.253977 0.151211 0)
(0.263203 0.145326 0)
(0.271947 0.139324 0)
(0.280205 0.133242 0)
(0.28798 0.127115 0)
(0.295271 0.120972 0)
(0.302085 0.11484 0)
(0.308426 0.108741 0)
(0.314303 0.102694 0)
(0.319721 0.096714 0)
(0.324689 0.0908147 0)
(0.329216 0.0850059 0)
(0.333308 0.0792952 0)
(-0.000370774 0.00555186 0)
(-0.00229043 0.0186001 0)
(-0.00570476 0.0320691 0)
(-0.00926467 0.0454527 0)
(-0.012181 0.0586664 0)
(-0.0139672 0.0717072 0)
(-0.0143053 0.084544 0)
(-0.013016 0.0970888 0)
(-0.0100275 0.109205 0)
(-0.00534952 0.120731 0)
(0.000945727 0.131496 0)
(0.00873728 0.141349 0)
(0.0178702 0.150163 0)
(0.0281694 0.157849 0)
(0.0394508 0.164357 0)
(0.0515316 0.169672 0)
(0.0642375 0.173813 0)
(0.0774073 0.176822 0)
(0.0908956 0.178763 0)
(0.104573 0.17971 0)
(0.118327 0.179744 0)
(0.13206 0.178948 0)
(0.145685 0.177403 0)
(0.159131 0.175188 0)
(0.172333 0.172379 0)
(0.185238 0.169045 0)
(0.1978 0.165252 0)
(0.209979 0.161062 0)
(0.221743 0.156531 0)
(0.233065 0.151714 0)
(0.243924 0.146658 0)
(0.254303 0.141411 0)
(0.264191 0.136014 0)
(0.273579 0.130504 0)
(0.282464 0.124918 0)
(0.290842 0.119286 0)
(0.298716 0.113635 0)
(0.306089 0.10799 0)
(0.312966 0.102372 0)
(0.319352 0.0967997 0)
(0.325255 0.0912871 0)
(0.330683 0.0858469 0)
(0.335642 0.0804893 0)
(0.340143 0.0752219 0)
(-0.000596178 0.00701628 0)
(-0.00350567 0.0220517 0)
(-0.00858164 0.0363005 0)
(-0.0138917 0.0494567 0)
(-0.0184149 0.0617408 0)
(-0.0215935 0.073406 0)
(-0.0230916 0.0846079 0)
(-0.0227365 0.095392 0)
(-0.020473 0.105719 0)
(-0.0163287 0.115501 0)
(-0.0103934 0.124624 0)
(-0.00280376 0.132978 0)
(0.0062732 0.140464 0)
(0.01665 0.147006 0)
(0.028128 0.152561 0)
(0.0405115 0.15711 0)
(0.0536131 0.160659 0)
(0.0672581 0.163238 0)
(0.0812875 0.164893 0)
(0.0955597 0.165683 0)
(0.10995 0.16567 0)
(0.124349 0.164925 0)
(0.138664 0.163514 0)
(0.152813 0.161506 0)
(0.166727 0.158964 0)
(0.180347 0.15595 0)
(0.193622 0.152522 0)
(0.20651 0.148734 0)
(0.218975 0.144636 0)
(0.230989 0.140277 0)
(0.242528 0.135699 0)
(0.253575 0.130945 0)
(0.264114 0.126052 0)
(0.274137 0.121053 0)
(0.283639 0.115981 0)
(0.292616 0.110864 0)
(0.301068 0.105727 0)
(0.308998 0.100593 0)
(0.316409 0.0954801 0)
(0.323308 0.0904061 0)
(0.329701 0.085385 0)
(0.335595 0.0804287 0)
(0.340999 0.0755469 0)
(0.345921 0.0707471 0)
(-0.000938686 0.00924854 0)
(-0.0052044 0.0271257 0)
(-0.0124128 0.042423 0)
(-0.0198363 0.0552764 0)
(-0.0261858 0.0664047 0)
(-0.0308583 0.0764243 0)
(-0.0335312 0.0857267 0)
(-0.0340658 0.0945084 0)
(-0.0324457 0.102831 0)
(-0.0287341 0.110678 0)
(-0.023051 0.117991 0)
(-0.015558 0.124695 0)
(-0.00644448 0.130718 0)
(0.00408732 0.135999 0)
(0.0158254 0.140495 0)
(0.0285583 0.144182 0)
(0.0420872 0.147059 0)
(0.0562261 0.14914 0)
(0.070805 0.150454 0)
(0.0856717 0.151041 0)
(0.100692 0.150948 0)
(0.115748 0.150228 0)
(0.130738 0.148935 0)
(0.145575 0.147122 0)
(0.160184 0.144843 0)
(0.174501 0.142148 0)
(0.188471 0.139088 0)
(0.20205 0.135707 0)
(0.2152 0.132051 0)
(0.227889 0.12816 0)
(0.240093 0.124073 0)
(0.251791 0.119826 0)
(0.26297 0.115452 0)
(0.273618 0.11098 0)
(0.283728 0.106441 0)
(0.293298 0.101857 0)
(0.302325 0.0972536 0)
(0.310813 0.0926493 0)
(0.318765 0.0880624 0)
(0.326185 0.0835081 0)
(0.333081 0.0789996 0)
(0.339461 0.0745482 0)
(0.345332 0.0701628 0)
(0.350703 0.0658509 0)
(-0.00146485 0.0125795 0)
(-0.0075919 0.0343471 0)
(-0.0175133 0.0508894 0)
(-0.0274423 0.0632095 0)
(-0.0358078 0.0728091 0)
(-0.0420197 0.0808018 0)
(-0.0458182 0.0878631 0)
(-0.0471351 0.0943514 0)
(-0.046019 0.100427 0)
(-0.042588 0.106138 0)
(-0.0370062 0.111472 0)
(-0.0294695 0.116385 0)
(-0.0201937 0.120826 0)
(-0.0094035 0.124744 0)
(0.00267465 0.128093 0)
(0.0158183 0.130845 0)
(0.0298169 0.132985 0)
(0.0444752 0.134513 0)
(0.0596153 0.13544 0)
(0.0750773 0.135789 0)
(0.0907199 0.135588 0)
(0.106419 0.134873 0)
(0.122068 0.133682 0)
(0.137573 0.132056 0)
(0.152856 0.130035 0)
(0.167849 0.127659 0)
(0.182495 0.124969 0)
(0.196747 0.122002 0)
(0.210564 0.118795 0)
(0.223914 0.115382 0)
(0.236771 0.111796 0)
(0.249114 0.108067 0)
(0.260927 0.104224 0)
(0.272199 0.100293 0)
(0.282923 0.0962997 0)
(0.293095 0.0922652 0)
(0.302713 0.0882097 0)
(0.311779 0.0841512 0)
(0.320297 0.0801056 0)
(0.328272 0.0760866 0)
(0.335712 0.0721063 0)
(0.342623 0.0681748 0)
(0.349016 0.0643005 0)
(0.354898 0.0604904 0)
(-0.00228534 0.0174974 0)
(-0.0109664 0.0443977 0)
(-0.0242802 0.0622101 0)
(-0.0370744 0.0735283 0)
(-0.0475385 0.0810364 0)
(-0.0552055 0.0864944 0)
(-0.0599527 0.0908967 0)
(-0.0618288 0.0947594 0)
(-0.060978 0.0983277 0)
(-0.0575932 0.101701 0)
(-0.0518954 0.104899 0)
(-0.0441228 0.1079 0)
(-0.0345216 0.110663 0)
(-0.0233388 0.113137 0)
(-0.010816 0.115276 0)
(0.00281499 0.117039 0)
(0.017337 0.118398 0)
(0.0325487 0.119336 0)
(0.0482674 0.119845 0)
(0.0643298 0.119929 0)
(0.0805908 0.119599 0)
(0.0969234 0.118873 0)
(0.113217 0.117774 0)
(0.129376 0.116327 0)
(0.145319 0.11456 0)
(0.160976 0.112503 0)
(0.176289 0.110184 0)
(0.191208 0.107633 0)
(0.205692 0.104879 0)
(0.219708 0.101948 0)
(0.233229 0.0988684 0)
(0.246234 0.0956646 0)
(0.258707 0.0923606 0)
(0.270635 0.0889786 0)
(0.282012 0.0855392 0)
(0.292833 0.0820615 0)
(0.303097 0.0785626 0)
(0.312806 0.0750581 0)
(0.321963 0.0715618 0)
(0.330575 0.0680859 0)
(0.338648 0.064641 0)
(0.346191 0.0612362 0)
(0.353213 0.0578791 0)
(0.359725 0.054576 0)
(-0.00359332 0.0247376 0)
(-0.0157729 0.0581381 0)
(-0.0331925 0.076887 0)
(-0.0490277 0.0863734 0)
(-0.0613914 0.0909892 0)
(-0.0701333 0.093273 0)
(-0.0753737 0.0945357 0)
(-0.0773373 0.0954209 0)
(-0.0762992 0.0962287 0)
(-0.0725479 0.0970852 0)
(-0.0663724 0.0980238 0)
(-0.0580573 0.0990275 0)
(-0.0478787 0.100052 0)
(-0.0361016 0.101042 0)
(-0.0229775 0.101939 0)
(-0.00874252 0.10269 0)
(0.00638632 0.103247 0)
(0.0222089 0.103576 0)
(0.0385431 0.103651 0)
(0.0552276 0.103457 0)
(0.0721187 0.102985 0)
(0.0890903 0.102237 0)
(0.106032 0.101219 0)
(0.122849 0.0999433 0)
(0.139459 0.0984239 0)
(0.155793 0.0966786 0)
(0.171792 0.0947266 0)
(0.187405 0.0925878 0)
(0.202591 0.0902831 0)
(0.217318 0.087833 0)
(0.231557 0.0852579 0)
(0.245288 0.0825775 0)
(0.258493 0.0798108 0)
(0.271161 0.0769757 0)
(0.283284 0.0740892 0)
(0.294859 0.0711669 0)
(0.305883 0.0682232 0)
(0.316358 0.0652712 0)
(0.326288 0.0623227 0)
(0.335678 0.0593881 0)
(0.344535 0.0564766 0)
(0.352867 0.0535961 0)
(0.360684 0.0507535 0)
(0.367996 0.0479544 0)
(-0.00574623 0.0354533 0)
(-0.0227015 0.0765976 0)
(-0.0447653 0.0952213 0)
(-0.0632582 0.101499 0)
(-0.0766386 0.102133 0)
(-0.0853974 0.10048 0)
(-0.0900441 0.0980941 0)
(-0.0910566 0.0956743 0)
(-0.088886 0.0935244 0)
(-0.083939 0.0917577 0)
(-0.0765797 0.0903908 0)
(-0.0671361 0.0893886 0)
(-0.055905 0.0886889 0)
(-0.0431571 0.0882175 0)
(-0.0291396 0.0878977 0)
(-0.0140789 0.0876568 0)
(0.00182004 0.0874304 0)
(0.0183701 0.0871624 0)
(0.0354019 0.0868089 0)
(0.052765 0.0863359 0)
(0.0703252 0.0857189 0)
(0.0879638 0.0849422 0)
(0.105577 0.0839972 0)
(0.123074 0.0828815 0)
(0.140377 0.0815976 0)
(0.157418 0.0801518 0)
(0.17414 0.0785533 0)
(0.190494 0.0768136 0)
(0.206441 0.0749453 0)
(0.221946 0.0729623 0)
(0.236982 0.0708786 0)
(0.251527 0.0687088 0)
(0.265564 0.0664668 0)
(0.279082 0.0641666 0)
(0.29207 0.0618211 0)
(0.304525 0.059443 0)
(0.316444 0.0570436 0)
(0.327827 0.0546338 0)
(0.338676 0.0522232 0)
(0.348997 0.0498206 0)
(0.358795 0.0474337 0)
(0.368076 0.0450693 0)
(0.37685 0.0427334 0)
(0.385125 0.0404309 0)
(-0.00945162 0.051586 0)
(-0.0328701 0.10084 0)
(-0.059307 0.116824 0)
(-0.0785536 0.117702 0)
(-0.0904433 0.112938 0)
(-0.096638 0.106508 0)
(-0.0982343 0.100015 0)
(-0.0960666 0.0940895 0)
(-0.0908131 0.0889498 0)
(-0.0830119 0.0846331 0)
(-0.0730914 0.081092 0)
(-0.0613989 0.0782405 0)
(-0.0482228 0.0759765 0)
(-0.0338077 0.0741936 0)
(-0.0183669 0.0727893 0)
(-0.00208875 0.0716684 0)
(0.0148589 0.0707462 0)
(0.0323244 0.0699491 0)
(0.0501705 0.0692161 0)
(0.0682741 0.0684972 0)
(0.0865243 0.0677535 0)
(0.104822 0.0669552 0)
(0.123078 0.066081 0)
(0.141215 0.0651169 0)
(0.159163 0.0640547 0)
(0.176863 0.0628909 0)
(0.194262 0.061626 0)
(0.211314 0.0602636 0)
(0.227982 0.0588092 0)
(0.244233 0.0572704 0)
(0.26004 0.0556556 0)
(0.27538 0.0539743 0)
(0.290235 0.052236 0)
(0.304593 0.0504504 0)
(0.318442 0.0486274 0)
(0.331775 0.0467761 0)
(0.344589 0.0449054 0)
(0.35688 0.0430237 0)
(0.368651 0.0411386 0)
(0.379902 0.0392573 0)
(0.390637 0.037386 0)
(0.400862 0.0355305 0)
(0.410582 0.0336956 0)
(0.419805 0.0318856 0)
(-0.0161851 0.0765663 0)
(-0.0480466 0.131281 0)
(-0.0756479 0.139407 0)
(-0.0896123 0.131545 0)
(-0.0937781 0.11967 0)
(-0.0917363 0.10775 0)
(-0.0853447 0.0970286 0)
(-0.0758377 0.0878196 0)
(-0.0640861 0.0800989 0)
(-0.0506832 0.0737223 0)
(-0.0360316 0.0685135 0)
(-0.0204102 0.064297 0)
(-0.00401934 0.0609092 0)
(0.0129911 0.0582016 0)
(0.0305016 0.0560417 0)
(0.0484117 0.0543133 0)
(0.0666338 0.0529156 0)
(0.0850879 0.0517623 0)
(0.103699 0.0507814 0)
(0.122397 0.0499135 0)
(0.141116 0.0491104 0)
(0.159791 0.048334 0)
(0.178366 0.0475551 0)
(0.196784 0.0467521 0)
(0.214996 0.0459096 0)
(0.232955 0.0450174 0)
(0.250619 0.0440696 0)
(0.267951 0.043064 0)
(0.284916 0.0420008 0)
(0.301486 0.0408823 0)
(0.317635 0.0397125 0)
(0.33334 0.0384964 0)
(0.348584 0.0372398 0)
(0.363351 0.0359489 0)
(0.37763 0.0346303 0)
(0.39141 0.0332902 0)
(0.404685 0.0319351 0)
(0.417451 0.030571 0)
(0.429706 0.0292037 0)
(0.441448 0.0278383 0)
(0.45268 0.0264797 0)
(0.463404 0.0251323 0)
(0.473625 0.0238 0)
(0.483347 0.0224861 0)
(-0.0287746 0.116281 0)
(-0.0692156 0.163947 0)
(-0.0830968 0.153478 0)
(-0.0751221 0.132667 0)
(-0.0585255 0.112994 0)
(-0.0383954 0.0963484 0)
(-0.0166781 0.0827445 0)
(0.0055348 0.0717881 0)
(0.0276342 0.0630008 0)
(0.0493352 0.0559565 0)
(0.0705382 0.0503144 0)
(0.0912384 0.045804 0)
(0.111476 0.0422071 0)
(0.13131 0.0393448 0)
(0.150801 0.0370686 0)
(0.170003 0.0352561 0)
(0.188961 0.0338056 0)
(0.207706 0.0326322 0)
(0.226258 0.031666 0)
(0.244624 0.03085 0)
(0.262804 0.0301377 0)
(0.280788 0.0294921 0)
(0.298561 0.0288842 0)
(0.316102 0.0282916 0)
(0.333389 0.0276978 0)
(0.350397 0.0270908 0)
(0.3671 0.0264625 0)
(0.383473 0.025808 0)
(0.399491 0.0251246 0)
(0.415132 0.024412 0)
(0.430374 0.023671 0)
(0.445197 0.0229036 0)
(0.459584 0.0221128 0)
(0.473521 0.021302 0)
(0.486996 0.0204748 0)
(0.499998 0.0196352 0)
(0.51252 0.0187871 0)
(0.524555 0.0179343 0)
(0.536101 0.0170804 0)
(0.547156 0.016229 0)
(0.557719 0.0153832 0)
(0.567794 0.0145458 0)
(0.577382 0.0137194 0)
(0.586488 0.0129063 0)
(-0.0497483 0.20119 0)
(-0.066025 0.178721 0)
(-0.0111809 0.12836 0)
(0.0461397 0.0991242 0)
(0.0968408 0.0787165 0)
(0.141638 0.0629747 0)
(0.181314 0.0509745 0)
(0.216452 0.0419711 0)
(0.247668 0.0351748 0)
(0.275603 0.0299703 0)
(0.300836 0.025943 0)
(0.323862 0.0228107 0)
(0.345092 0.0203689 0)
(0.364868 0.0184624 0)
(0.383474 0.0169713 0)
(0.401137 0.0158021 0)
(0.418043 0.0148811 0)
(0.434335 0.0141493 0)
(0.450124 0.0135598 0)
(0.465491 0.0130748 0)
(0.480496 0.0126647 0)
(0.495177 0.0123057 0)
(0.509559 0.0119795 0)
(0.523656 0.0116721 0)
(0.537469 0.0113729 0)
(0.550995 0.0110744 0)
(0.564227 0.0107711 0)
(0.577151 0.0104597 0)
(0.589756 0.0101383 0)
(0.602026 0.0098059 0)
(0.613948 0.00946271 0)
(0.625508 0.00910943 0)
(0.636693 0.00874728 0)
(0.647492 0.00837779 0)
(0.657896 0.0080027 0)
(0.667897 0.00762383 0)
(0.677489 0.00724303 0)
(0.686669 0.00686213 0)
(0.695435 0.00648285 0)
(0.703785 0.0061068 0)
(0.711722 0.00573544 0)
(0.719248 0.00537008 0)
(0.726367 0.00501186 0)
(0.733084 0.00466176 0)
(0.229891 0.140415 0)
(0.278977 0.113672 0)
(0.394675 0.0764386 0)
(0.484593 0.0534125 0)
(0.546365 0.038708 0)
(0.591574 0.0283939 0)
(0.626753 0.0210101 0)
(0.654855 0.0157714 0)
(0.677655 0.0120573 0)
(0.696489 0.00939993 0)
(0.712363 0.00747865 0)
(0.726007 0.00607908 0)
(0.737955 0.00505409 0)
(0.748605 0.00430002 0)
(0.758258 0.00374281 0)
(0.767145 0.00332909 0)
(0.775438 0.00302 0)
(0.783269 0.00278692 0)
(0.790733 0.00260862 0)
(0.797902 0.00246925 0)
(0.804825 0.00235699 0)
(0.811538 0.00226301 0)
(0.818062 0.00218079 0)
(0.82441 0.00210553 0)
(0.830589 0.00203382 0)
(0.8366 0.00196326 0)
(0.842441 0.00189225 0)
(0.848108 0.0018198 0)
(0.853594 0.00174538 0)
(0.858894 0.00166882 0)
(0.864002 0.00159018 0)
(0.868913 0.00150973 0)
(0.87362 0.00142782 0)
(0.87812 0.0013449 0)
(0.88241 0.00126147 0)
(0.886488 0.00117802 0)
(0.890352 0.00109504 0)
(0.894005 0.00101299 0)
(0.897445 0.000932294 0)
(0.900676 0.000853337 0)
(0.903701 0.000776446 0)
(0.906523 0.000701903 0)
(0.909146 0.000629935 0)
(0.911577 0.000560719 0)
)
;

boundaryField
{
    movingWall
    {
        type            fixedValue;
        value           uniform (1 0 0);
    }
    fixedWalls
    {
        type            noSlip;
    }
    frontAndBack
    {
        type            empty;
    }
    procBoundary2to3
    {
        type            processor;
        value           nonuniform List<vector> 
45
(
(0.137447 0.281995 0)
(0.13922 0.271668 0)
(0.140777 0.261013 0)
(0.142146 0.250143 0)
(0.143352 0.239155 0)
(0.144419 0.228129 0)
(0.145369 0.217127 0)
(0.146219 0.206199 0)
(0.146982 0.19538 0)
(0.147669 0.184695 0)
(0.148288 0.174158 0)
(0.148841 0.163778 0)
(0.14933 0.153556 0)
(0.149754 0.143489 0)
(0.150109 0.133571 0)
(0.15039 0.123794 0)
(0.150593 0.11415 0)
(0.15071 0.104627 0)
(0.00028915 0.012116 0)
(0.00214174 0.0393435 0)
(0.00618834 0.0689434 0)