/*--------------------------------*- C++ -*----------------------------------*\
  =========                 |
  \\      /  F ield         | OpenFOAM: The Open Source CFD Toolbox
   \\    /   O peration     | Website:  https://openfoam.org
    \\  /    A nd           | Version:  9
     \\/     M anipulation  |
\*---------------------------------------------------------------------------*/
FoamFile
{
    format      ascii;
    class       surfaceScalarField;
    location    "0.75";
    object      phi;
}
// * * * * * * * * * * * * * * * * * * * * * * * * * * * * * * * * * * * * * //

dimensions      [0 3 -1 0 0 0 0];

internalField   nonuniform List<scalar> 
2427
(
1.23477e-10
-1.23455e-10
2.02471e-10
-7.89938e-11
1.25411e-10
7.70597e-11
-1.28063e-10
2.53473e-10
-5.48077e-10
4.20014e-10
-1.11138e-09
5.63301e-10
-1.79111e-09
6.79736e-10
-2.56185e-09
7.70741e-10
-3.40142e-09
8.39569e-10
-4.29138e-09
8.89958e-10
-5.21693e-09
9.25553e-10
-6.16658e-09
9.49646e-10
-7.13165e-09
9.65068e-10
-8.10581e-09
9.7416e-10
-9.08461e-09
9.78799e-10
-1.0065e-08
9.80433e-10
-1.10452e-08
9.80141e-10
-1.20239e-08
9.78685e-10
-1.30004e-08
9.76564e-10
-1.39745e-08
9.74063e-10
-1.49458e-08
9.713e-10
-1.59141e-08
9.68255e-10
-1.68789e-08
9.64807e-10
-1.78396e-08
9.60759e-10
-1.87955e-08
9.5585e-10
-1.97452e-08
9.49779e-10
-2.06874e-08
9.42195e-10
-2.16201e-08
9.32663e-10
9.20789e-10
8.14443e-11
-2.04899e-10
-4.46944e-11
4.71445e-11
-5.21226e-10
5.5359e-10
-1.3972e-09
1.12945e-09
-2.66022e-09
1.68303e-09
-4.26938e-09
2.17246e-09
-6.17223e-09
2.58258e-09
-8.31451e-09
2.91303e-09
-1.06456e-08
3.17067e-09
-1.31211e-08
3.36546e-09
-1.57037e-08
3.50812e-09
-1.8363e-08
3.60894e-09
-2.10751e-08
3.67718e-09
-2.38217e-08
3.72074e-09
-2.6589e-08
3.74615e-09
-2.93672e-08
3.75857e-09
-3.2149e-08
3.76196e-09
-3.49295e-08
3.7592e-09
-3.77052e-08
3.75224e-09
-4.04734e-08
3.74231e-09
-4.32321e-08
3.72997e-09
-4.59792e-08
3.71532e-09
-4.87124e-08
3.69806e-09
-5.14292e-08
3.67758e-09
-5.41264e-08
3.65304e-09
-5.68001e-08
3.62345e-09
-5.94455e-08
3.58762e-09
-6.20571e-08
3.5442e-09
3.49195e-09
-7.70504e-11
-1.27849e-10
-5.64075e-10
5.34169e-10
-1.58524e-09
1.57476e-09
-3.17226e-09
2.71646e-09
-5.30537e-09
3.81614e-09
-7.93255e-09
4.79965e-09
-1.09863e-08
5.63635e-09
-1.4395e-08
6.32175e-09
-1.809e-08
6.86559e-09
-2.2009e-08
7.2845e-09
-2.60986e-08
7.5977e-09
-3.0314e-08
7.82438e-09
-3.46191e-08
7.98224e-09
-3.89852e-08
8.08682e-09
-4.33901e-08
8.15112e-09
-4.78172e-08
8.18566e-09
-5.22539e-08
8.19862e-09
-5.66907e-08
8.19605e-09
-6.11207e-08
8.18218e-09
-6.55381e-08
8.1597e-09
-6.99381e-08
8.13001e-09
-7.43163e-08
8.09349e-09
-7.86679e-08
8.04968e-09
-8.29878e-08
7.99746e-09
-8.727e-08
7.93525e-09
-9.15076e-08
7.86106e-09
-9.56926e-08
7.7726e-09
-9.98157e-08
7.66726e-09
7.54268e-09
-2.66548e-10
1.38699e-10
-1.18973e-09
1.45735e-09
-2.82625e-09
3.21129e-09
-5.17654e-09
5.06675e-09
-8.20057e-09
6.84017e-09
-1.1832e-08
8.43108e-09
-1.59908e-08
9.79513e-09
-2.0593e-08
1.0924e-08
-2.55576e-08
1.18302e-08
-3.08103e-08
1.25373e-08
-3.62863e-08
1.30737e-08
-4.19302e-08
1.34683e-08
-4.76963e-08
1.37484e-08
-5.35478e-08
1.39383e-08
-5.94555e-08
1.40588e-08
-6.53964e-08
1.41266e-08
-7.1353e-08
1.41551e-08
-7.73113e-08
1.41544e-08
-8.32605e-08
1.41314e-08
-8.91916e-08
1.40908e-08
-9.50966e-08
1.40351e-08
-1.00968e-07
1.39651e-08
-1.06799e-07
1.38803e-08
-1.1258e-07
1.3779e-08
-1.18304e-07
1.36587e-08
-1.23959e-07
1.35164e-08
-1.29535e-07
1.33483e-08
-1.35018e-07
1.31505e-08
1.29192e-08
-4.60605e-10
5.99304e-10
-1.84065e-09
2.8374e-09
-4.12051e-09
5.49115e-09
-7.25476e-09
8.201e-09
-1.11744e-08
1.07598e-08
-1.57941e-08
1.30508e-08
-2.10202e-08
1.50213e-08
-2.6758e-08
1.66618e-08
-3.29168e-08
1.7989e-08
-3.94138e-08
1.90343e-08
-4.61756e-08
1.98355e-08
-5.31394e-08
2.0432e-08
-6.02523e-08
2.08613e-08
-6.74711e-08
2.11571e-08
-7.47607e-08
2.13484e-08
-8.20932e-08
2.14591e-08
-8.94462e-08
2.15081e-08
-9.68018e-08
2.151e-08
-1.04145e-07
2.1475e-08
-1.11465e-07
2.141e-08
-1.18748e-07
2.13188e-08
-1.25986e-07
2.12027e-08
-1.33167e-07
2.10612e-08
-1.4028e-07
2.0892e-08
-1.47313e-07
2.06917e-08
-1.54252e-07
2.04559e-08
-1.61084e-07
2.01796e-08
-1.6779e-07
1.98572e-08
1.94833e-08
-6.46862e-10
1.24617e-09
-2.47843e-09
4.66896e-09
-5.40002e-09
8.41274e-09
-9.31462e-09
1.21156e-08
-1.41186e-08
1.55637e-08
-1.97034e-08
1.86356e-08
-2.59599e-08
2.12778e-08
-3.27821e-08
2.34839e-08
-4.00706e-08
2.52775e-08
-4.77354e-08
2.6699e-08
-5.56968e-08
2.77969e-08
-6.38863e-08
2.86215e-08
-7.22458e-08
2.92208e-08
-8.07271e-08
2.96384e-08
-8.92906e-08
2.99119e-08
-9.7904e-08
3.00725e-08
-1.06541e-07
3.01454e-08
-1.15181e-07
3.01494e-08
-1.23804e-07
3.00985e-08
-1.32396e-07
3.00018e-08
-1.40942e-07
2.98647e-08
-1.49428e-07
2.96889e-08
-1.57841e-07
2.9474e-08
-1.66166e-07
2.92171e-08
-1.74388e-07
2.89138e-08
-1.82491e-07
2.85584e-08
-1.90455e-07
2.81442e-08
-1.98262e-07
2.7664e-08
2.71108e-08
-8.2088e-10
2.06705e-09
-3.0857e-09
6.93378e-09
-6.62994e-09
1.1957e-08
-1.13045e-08
1.67902e-08
-1.69685e-08
2.12277e-08
-2.34876e-08
2.51547e-08
-3.0735e-08
2.85251e-08
-3.85922e-08
3.13412e-08
-4.69514e-08
3.36367e-08
-5.57158e-08
3.54634e-08
-6.48005e-08
3.68817e-08
-7.41324e-08
3.79534e-08
-8.36494e-08
3.87378e-08
-9.32995e-08
3.92885e-08
-1.0304e-07
3.9652e-08
-1.12834e-07
3.98671e-08
-1.22654e-07
3.99648e-08
-1.32473e-07
3.9969e-08
-1.42272e-07
3.98971e-08
-1.52031e-07
3.97606e-08
-1.61732e-07
3.95662e-08
-1.7136e-07
3.93166e-08
-1.80897e-07
3.90111e-08
-1.90326e-07
3.86461e-08
-1.99628e-07
3.82162e-08
-2.08784e-07
3.77144e-08
-2.17772e-07
3.71324e-08
-2.26569e-07
3.6461e-08
3.56917e-08
-9.82088e-10
3.04914e-09
-3.65616e-09
9.60785e-09
-7.79456e-09
1.60954e-08
-1.31982e-08
2.21938e-08
-1.96886e-08
2.77182e-08
-2.71045e-08
3.25706e-08
-3.52996e-08
3.67202e-08
-4.41425e-08
4.01841e-08
-5.3516e-08
4.30102e-08
-6.33168e-08
4.52642e-08
-7.34552e-08
4.702e-08
-8.38541e-08
4.83523e-08
-9.44483e-08
4.9332e-08
-1.05183e-07
5.00231e-08
-1.16012e-07
5.04811e-08
-1.26897e-07
5.07523e-08
-1.37806e-07
5.0874e-08
-1.48712e-07
5.08748e-08
-1.59591e-07
5.07755e-08
-1.7042e-07
5.05902e-08
-1.81181e-07
5.03268e-08
-1.91853e-07
4.99886e-08
-2.02416e-07
4.95747e-08
-2.12851e-07
4.90811e-08
-2.23136e-07
4.85011e-08
-2.33248e-07
4.78262e-08
-2.43162e-07
4.70464e-08
-2.52852e-07
4.61508e-08
4.51293e-08
-1.13117e-09
4.18031e-09
-4.18871e-09
1.26654e-08
-8.88833e-09
2.0795e-08
-1.49843e-08
2.82898e-08
-2.22616e-08
3.49955e-08
-3.05317e-08
4.08406e-08
-3.96286e-08
4.58171e-08
-4.94069e-08
4.99624e-08
-5.97397e-08
5.33429e-08
-7.05169e-08
5.60415e-08
-8.16442e-08
5.81473e-08
-9.30409e-08
5.97491e-08
-1.04639e-07
6.09301e-08
-1.16381e-07
6.17654e-08
-1.2822e-07
6.23195e-08
-1.40114e-07
6.26463e-08
-1.52029e-07
6.27893e-08
-1.63936e-07
6.27817e-08
-1.75808e-07
6.26478e-08
-1.87622e-07
6.24038e-08
-1.99354e-07
6.20591e-08
-2.10983e-07
6.16174e-08
-2.22486e-07
6.10777e-08
-2.3384e-07
6.0435e-08
-2.4502e-07
5.96816e-08
-2.56001e-07
5.88073e-08
-2.66756e-07
5.78007e-08
-2.77254e-07
5.66488e-08
5.53397e-08
-1.26913e-09
5.44944e-09
-4.68448e-09
1.60807e-08
-9.91091e-09
2.60214e-08
-1.66596e-08
3.50385e-08
-2.46811e-08
4.3017e-08
-3.376e-08
4.99195e-08
-4.37107e-08
5.57678e-08
-5.43734e-08
6.06252e-08
-6.56113e-08
6.45809e-08
-7.73075e-08
6.77376e-08
-8.93626e-08
7.02024e-08
-1.01693e-07
7.20793e-08
-1.14228e-07
7.34649e-08
-1.26908e-07
7.44454e-08
-1.39683e-07
7.50949e-08
-1.52512e-07
7.5475e-08
-1.65357e-07
7.5635e-08
-1.78189e-07
7.5613e-08
-1.90977e-07
7.54364e-08
-2.03697e-07
7.51236e-08
-2.16323e-07
7.46852e-08
-2.28831e-07
7.41253e-08
-2.41196e-07
7.34423e-08
-2.53391e-07
7.26307e-08
-2.65391e-07
7.16814e-08
-2.77166e-07
7.05826e-08
-2.88687e-07
6.93211e-08
-2.9992e-07
6.78821e-08
6.62519e-08
-1.39695e-09
6.84639e-09
-5.14549e-09
1.98293e-08
-1.08645e-08
3.17404e-08
-1.82257e-08
4.23997e-08
-2.69472e-08
5.17385e-08
-3.67883e-08
5.97605e-08
-4.75439e-08
6.65234e-08
-5.90401e-08
7.21214e-08
-7.113e-08
7.66707e-08
-8.36896e-08
8.02972e-08
-9.66147e-08
8.31275e-08
-1.09818e-07
8.52828e-08
-1.23227e-07
8.68739e-08
-1.36781e-07
8.79988e-08
-1.50427e-07
8.87414e-08
-1.64123e-07
8.91709e-08
-1.77831e-07
8.93429e-08
-1.91518e-07
8.92997e-08
-2.05153e-07
8.9072e-08
-2.1871e-07
8.86802e-08
-2.32161e-07
8.8136e-08
-2.45479e-07
8.74434e-08
-2.58638e-07
8.66008e-08
-2.71608e-07
8.56014e-08
-2.84362e-07
8.44348e-08
-2.96867e-07
8.30878e-08
-3.09091e-07
8.1545e-08
-3.20999e-07
7.97899e-08
7.78072e-08
-1.51554e-09
8.36193e-09
-5.57401e-09
2.38877e-08
-1.17525e-08
3.79189e-08
-1.96865e-08
5.03337e-08
-2.90641e-08
6.11161e-08
-3.96205e-08
7.03169e-08
-5.11322e-08
7.80352e-08
-6.34116e-08
8.44008e-08
-7.63016e-08
8.95607e-08
-8.96712e-08
9.36668e-08
-1.03412e-07
9.68678e-08
-1.17432e-07
9.93033e-08
-1.31658e-07
1.01099e-07
-1.46026e-07
1.02367e-07
-1.60483e-07
1.03199e-07
-1.74986e-07
1.03673e-07
-1.89494e-07
1.03852e-07
-2.03975e-07
1.0378e-07
-2.18396e-07
1.03493e-07
-2.32729e-07
1.03013e-07
-2.46943e-07
1.02351e-07
-2.61012e-07
1.01512e-07
-2.74906e-07
1.00495e-07
-2.88594e-07
9.92898e-08
-3.02046e-07
9.78863e-08
-3.15227e-07
9.6269e-08
-3.28103e-07
9.44207e-08
-3.40636e-07
9.23231e-08
8.9959e-08
-1.62567e-09
9.9876e-09
-5.9723e-09
2.82344e-08
-1.25787e-08
4.45253e-08
-2.10471e-08
5.88021e-08
-3.10378e-08
7.11068e-08
-4.22636e-08
8.15428e-08
-5.44837e-08
9.02552e-08
-6.7497e-08
9.74142e-08
-8.11368e-08
1.03201e-07
-9.52653e-08
1.07795e-07
-1.09769e-07
1.11371e-07
-1.24553e-07
1.14088e-07
-1.39542e-07
1.16088e-07
-1.5467e-07
1.17495e-07
-1.69884e-07
1.18413e-07
-1.85139e-07
1.18928e-07
-2.00393e-07
1.19106e-07
-2.15613e-07
1.19e-07
-2.30766e-07
1.18646e-07
-2.4582e-07
1.18067e-07
-2.60747e-07
1.17277e-07
-2.75515e-07
1.16281e-07
-2.90094e-07
1.15074e-07
-3.04453e-07
1.13648e-07
-3.18557e-07
1.1199e-07
-3.3237e-07
1.10083e-07
-3.45857e-07
1.07907e-07
-3.58977e-07
1.05443e-07
1.02672e-07
-1.728e-09
1.17156e-08
-6.34244e-09
3.28488e-08
-1.33468e-08
5.15297e-08
-2.23128e-08
6.77681e-08
-3.28752e-08
8.16692e-08
-4.47261e-08
9.33937e-08
-5.76081e-08
1.03137e-07
-7.13079e-08
1.11114e-07
-8.56493e-08
1.17542e-07
-1.00488e-07
1.22634e-07
-1.15705e-07
1.26589e-07
-1.31205e-07
1.29588e-07
-1.46907e-07
1.3179e-07
-1.62746e-07
1.33334e-07
-1.78667e-07
1.34334e-07
-1.94624e-07
1.34884e-07
-2.10576e-07
1.35058e-07
-2.26487e-07
1.34911e-07
-2.42323e-07
1.34482e-07
-2.58054e-07
1.33798e-07
-2.73647e-07
1.32871e-07
-2.89072e-07
1.31705e-07
-3.04296e-07
1.30298e-07
-3.19285e-07
1.28637e-07
-3.34005e-07
1.2671e-07
-3.48418e-07
1.24496e-07
-3.62485e-07
1.21975e-07
-3.76165e-07
1.19124e-07
1.15923e-07
-1.82312e-09
1.35387e-08
-6.68633e-09
3.7712e-08
-1.40605e-08
5.89039e-08
-2.34893e-08
7.71969e-08
-3.4584e-08
9.27638e-08
-4.70173e-08
1.05827e-07
-6.05168e-08
1.16637e-07
-7.48574e-08
1.25454e-07
-8.98544e-08
1.32539e-07
-1.05357e-07
1.38136e-07
-1.21242e-07
1.42474e-07
-1.37411e-07
1.45756e-07
-1.5378e-07
1.4816e-07
-1.70285e-07
1.49838e-07
-1.86868e-07
1.50918e-07
-2.03483e-07
1.515e-07
-2.20089e-07
1.51664e-07
-2.36649e-07
1.51471e-07
-2.53129e-07
1.50962e-07
-2.69496e-07
1.50165e-07
-2.85719e-07
1.49093e-07
-3.01765e-07
1.47751e-07
-3.176e-07
1.46133e-07
-3.3319e-07
1.44228e-07
-3.48498e-07
1.42018e-07
-3.63486e-07
1.39484e-07
-3.78113e-07
1.36601e-07
-3.92337e-07
1.33347e-07
1.297e-07
-1.9115e-09
1.54502e-08
-7.00568e-09
4.28062e-08
-1.47232e-08
6.66214e-08
-2.45819e-08
8.70555e-08
-3.61712e-08
1.04353e-07
-4.91465e-08
1.18802e-07
-6.32212e-08
1.30711e-07
-7.81594e-08
1.40393e-07
-9.37683e-08
1.48148e-07
-1.09891e-07
1.54259e-07
-1.26401e-07
1.58984e-07
-1.43195e-07
1.6255e-07
-1.60191e-07
1.65156e-07
-1.7732e-07
1.66967e-07
-1.94525e-07
1.68123e-07
-2.11759e-07
1.68734e-07
-2.28981e-07
1.68886e-07
-2.46153e-07
1.68643e-07
-2.63242e-07
1.68051e-07
-2.80213e-07
1.67136e-07
-2.97034e-07
1.65915e-07
-3.13673e-07
1.6439e-07
-3.30095e-07
1.62554e-07
-3.46263e-07
1.60396e-07
-3.62141e-07
1.57896e-07
-3.77688e-07
1.55031e-07
-3.92864e-07
1.51777e-07
-4.07623e-07
1.48107e-07
1.43999e-07
-1.99358e-09
1.74438e-08
-7.302e-09
4.81146e-08
-1.5338e-08
7.46574e-08
-2.55954e-08
9.73129e-08
-3.76439e-08
1.16402e-07
-5.11228e-08
1.32281e-07
-6.57326e-08
1.45321e-07
-8.12274e-08
1.55888e-07
-9.74071e-08
1.64327e-07
-1.14109e-07
1.70962e-07
-1.31204e-07
1.76078e-07
-1.48584e-07
1.79931e-07
-1.66167e-07
1.82738e-07
-1.83882e-07
1.84682e-07
-2.01673e-07
1.85914e-07
-2.19492e-07
1.86552e-07
-2.37297e-07
1.86691e-07
-2.5505e-07
1.86397e-07
-2.72718e-07
1.85718e-07
-2.90266e-07
1.84685e-07
-3.07662e-07
1.83311e-07
-3.24872e-07
1.816e-07
-3.41862e-07
1.79544e-07
-3.58594e-07
1.77128e-07
-3.7503e-07
1.74332e-07
-3.9113e-07
1.71131e-07
-4.06852e-07
1.67499e-07
-4.22151e-07
1.63406e-07
1.5883e-07
-2.06971e-09
1.95135e-08
-7.57663e-09
5.36215e-08
-1.59075e-08
8.29883e-08
-2.65344e-08
1.0794e-07
-3.90087e-08
1.28876e-07
-5.29549e-08
1.46227e-07
-6.80619e-08
1.60428e-07
-8.40748e-08
1.719e-07
-1.00787e-07
1.81039e-07
-1.1803e-07
1.88205e-07
-1.35671e-07
1.93719e-07
-1.53602e-07
1.97862e-07
-1.71736e-07
2.00873e-07
-1.90004e-07
2.0295e-07
-2.08349e-07
2.04258e-07
-2.26721e-07
2.04925e-07
-2.4508e-07
2.05049e-07
-2.63388e-07
2.04705e-07
-2.81611e-07
2.03941e-07
-2.99715e-07
2.02789e-07
-3.17667e-07
2.01263e-07
-3.35433e-07
1.99366e-07
-3.52979e-07
1.97089e-07
-3.70266e-07
1.94416e-07
-3.87258e-07
1.91324e-07
-4.03912e-07
1.87786e-07
-4.20186e-07
1.83773e-07
-4.36035e-07
1.79255e-07
1.7421e-07
-2.14021e-09
2.16537e-08
-7.83074e-09
5.9312e-08
-1.64344e-08
9.1592e-08
-2.7403e-08
1.18908e-07
-4.02715e-08
1.41745e-07
-5.46508e-08
1.60607e-07
-7.02193e-08
1.75997e-07
-8.67139e-08
1.88395e-07
-1.03921e-07
1.98247e-07
-1.2167e-07
2.05954e-07
-1.39823e-07
2.11872e-07
-1.5827e-07
2.16309e-07
-1.76924e-07
2.19527e-07
-1.95714e-07
2.21741e-07
-2.14583e-07
2.23127e-07
-2.33483e-07
2.23824e-07
-2.52371e-07
2.23938e-07
-2.71212e-07
2.23545e-07
-2.8997e-07
2.22699e-07
-3.08613e-07
2.21432e-07
-3.27108e-07
2.19758e-07
-3.45421e-07
2.17679e-07
-3.63517e-07
2.15185e-07
-3.81359e-07
2.12258e-07
-3.98908e-07
2.08873e-07
-4.16125e-07
2.05002e-07
-4.32965e-07
2.00613e-07
-4.49385e-07
1.95675e-07
1.90167e-07
-2.20533e-09
2.3859e-08
-8.06532e-09
6.5172e-08
-1.69207e-08
1.00447e-07
-2.82048e-08
1.30192e-07
-4.14376e-08
1.54977e-07
-5.62177e-08
1.75387e-07
-7.2214e-08
1.91993e-07
-8.91561e-08
2.05337e-07
-1.06825e-07
2.15916e-07
-1.25046e-07
2.24174e-07
-1.43678e-07
2.30504e-07
-1.6261e-07
2.35242e-07
-1.81754e-07
2.38671e-07
-2.01039e-07
2.41026e-07
-2.20407e-07
2.42495e-07
-2.3981e-07
2.43227e-07
-2.59207e-07
2.43335e-07
-2.78562e-07
2.429e-07
-2.97841e-07
2.41978e-07
-3.17011e-07
2.40602e-07
-3.3604e-07
2.38787e-07
-3.54895e-07
2.36534e-07
-3.73541e-07
2.33831e-07
-3.91941e-07
2.30659e-07
-4.10059e-07
2.26991e-07
-4.27852e-07
2.22796e-07
-4.45279e-07
2.1804e-07
-4.62299e-07
2.12695e-07
-2.2653e-09
2.61243e-08
-8.2812e-09
7.11879e-08
-1.73682e-08
1.09534e-07
-2.89429e-08
1.41767e-07
-4.25115e-08
1.68546e-07
-5.76618e-08
1.90537e-07
-7.40541e-08
2.08385e-07
-9.14113e-08
2.22694e-07
-1.0951e-07
2.34014e-07
-1.28171e-07
2.42835e-07
-1.47252e-07
2.49585e-07
-1.66641e-07
2.5463e-07
-1.86248e-07
2.58278e-07
-2.06002e-07
2.6078e-07
-2.25846e-07
2.62339e-07
-2.45733e-07
2.63114e-07
-2.65621e-07
2.63223e-07
-2.85475e-07
2.62755e-07
-3.05263e-07
2.61766e-07
-3.24952e-07
2.60291e-07
-3.44512e-07
2.58346e-07
-3.63908e-07
2.5593e-07
-3.83109e-07
2.53031e-07
-4.02078e-07
2.49628e-07
-4.20778e-07
2.45691e-07
-4.3917e-07
2.41188e-07
-4.57215e-07
2.36085e-07
2.30354e-07
-2.32027e-09
2.84446e-08
-8.47907e-09
7.73467e-08
-1.77785e-08
1.18834e-07
-2.96198e-08
1.53608e-07
-4.34972e-08
1.82423e-07
-5.89885e-08
2.06028e-07
-7.57465e-08
2.25143e-07
-9.34883e-08
2.40436e-07
-1.11986e-07
2.52512e-07
-1.31058e-07
2.61907e-07
-1.50561e-07
2.69088e-07
-1.70379e-07
2.74449e-07
-1.90425e-07
2.78323e-07
-2.10626e-07
2.80981e-07
-2.30925e-07
2.82639e-07
-2.51277e-07
2.83465e-07
-2.71641e-07
2.83588e-07
-2.91983e-07
2.83097e-07
-3.12271e-07
2.82054e-07
-3.32475e-07
2.80495e-07
-3.52563e-07
2.78435e-07
-3.72506e-07
2.75873e-07
-3.9227e-07
2.72796e-07
-4.11822e-07
2.6918e-07
-4.31127e-07
2.64995e-07
-4.50147e-07
2.60209e-07
-4.68847e-07
2.54784e-07
2.48696e-07
-2.37038e-09
3.0815e-08
-8.65943e-09
8.36358e-08
-1.81526e-08
1.28327e-07
-3.02377e-08
1.65694e-07
-4.43977e-08
1.96583e-07
-6.02021e-08
2.21833e-07
-7.72969e-08
2.42238e-07
-9.53943e-08
2.58534e-07
-1.14263e-07
2.71381e-07
-1.33718e-07
2.81363e-07
-1.53615e-07
2.88984e-07
-1.73839e-07
2.94673e-07
-1.94299e-07
2.98784e-07
-2.14926e-07
3.01608e-07
-2.35663e-07
3.03375e-07
-2.56464e-07
3.04267e-07
-2.77292e-07
3.04415e-07
-2.98112e-07
3.03917e-07
-3.18894e-07
3.02837e-07
-3.3961e-07
3.01211e-07
-3.60231e-07
2.99055e-07
-3.80726e-07
2.96369e-07
-4.01067e-07
2.93136e-07
-4.21221e-07
2.89333e-07
-4.41155e-07
2.84929e-07
-4.60836e-07
2.7989e-07
-4.8023e-07
2.74179e-07
2.67771e-07
-2.41569e-09
3.32307e-08
-8.82262e-09
9.00427e-08
-1.84914e-08
1.37996e-07
-3.07979e-08
1.78e-07
-4.52154e-08
2.11001e-07
-6.13061e-08
2.37923e-07
-7.87099e-08
2.59642e-07
-9.71349e-08
2.76959e-07
-1.16347e-07
2.90592e-07
-1.36159e-07
3.01175e-07
-1.56425e-07
3.0925e-07
-1.7703e-07
3.15278e-07
-1.97884e-07
3.19638e-07
-2.18918e-07
3.22641e-07
-2.40075e-07
3.24533e-07
-2.61312e-07
3.25503e-07
-2.82591e-07
3.25695e-07
-3.03882e-07
3.25208e-07
-3.25155e-07
3.2411e-07
-3.46383e-07
3.22439e-07
-3.6754e-07
3.20212e-07
-3.88599e-07
3.17427e-07
-4.09531e-07
3.14068e-07
-4.30308e-07
3.10111e-07
-4.50901e-07
3.05522e-07
-4.71279e-07
3.00268e-07
-4.91415e-07
2.94314e-07
2.87636e-07
-2.45624e-09
3.56869e-08
-8.96884e-09
9.65553e-08
-1.87954e-08
1.47822e-07
-3.13014e-08
1.90506e-07
-4.5952e-08
2.25651e-07
-6.23026e-08
2.54274e-07
-7.99885e-08
2.77328e-07
-9.87142e-08
2.95684e-07
-1.18243e-07
3.10121e-07
-1.38386e-07
3.21319e-07
-1.58998e-07
3.29862e-07
-1.79962e-07
3.36242e-07
-2.01189e-07
3.40865e-07
-2.22611e-07
3.44063e-07
-2.44173e-07
3.46095e-07
-2.65833e-07
3.47163e-07
-2.87555e-07
3.47417e-07
-3.09309e-07
3.46962e-07
-3.3107e-07
3.4587e-07
-3.52812e-07
3.44181e-07
-3.74512e-07
3.41912e-07
-3.96145e-07
3.3906e-07
-4.17686e-07
3.3561e-07
-4.3911e-07
3.31535e-07
-4.60393e-07
3.26805e-07
-4.8151e-07
3.21384e-07
-5.02437e-07
3.15241e-07
3.08355e-07
-2.49202e-09
3.81789e-08
-9.09813e-09
1.03161e-07
-1.90649e-08
1.57789e-07
-3.17488e-08
2.0319e-07
-4.66082e-08
2.40511e-07
-6.31931e-08
2.70859e-07
-8.11347e-08
2.9527e-07
-1.00135e-07
3.14684e-07
-1.19954e-07
3.29941e-07
-1.40405e-07
3.41769e-07
-1.61338e-07
3.50795e-07
-1.82639e-07
3.57543e-07
-2.0422e-07
3.62446e-07
-2.26013e-07
3.65856e-07
-2.47964e-07
3.68047e-07
-2.70034e-07
3.69233e-07
-2.92189e-07
3.69572e-07
-3.14402e-07
3.69175e-07
-3.36649e-07
3.68117e-07
-3.58907e-07
3.6644e-07
-3.81157e-07
3.64161e-07
-4.03377e-07
3.6128e-07
-4.25546e-07
3.57779e-07
-4.47644e-07
3.53633e-07
-4.69651e-07
3.48812e-07
-4.91549e-07
3.43283e-07
-5.13324e-07
3.37016e-07
3.29998e-07
-2.52299e-09
4.07019e-08
-9.21036e-09
1.09849e-07
-1.92996e-08
1.67878e-07
-3.21399e-08
2.1603e-07
-4.71841e-08
2.55555e-07
-6.39778e-08
2.87653e-07
-8.21491e-08
3.13441e-07
-1.01397e-07
3.33933e-07
-1.21483e-07
3.50026e-07
-1.42215e-07
3.62501e-07
-1.63447e-07
3.72027e-07
-1.85064e-07
3.7916e-07
-2.06979e-07
3.84361e-07
-2.29125e-07
3.88002e-07
-2.51452e-07
3.90374e-07
-2.7392e-07
3.91701e-07
-2.965e-07
3.92151e-07
-3.19165e-07
3.91841e-07
-3.41896e-07
3.90848e-07
-3.64673e-07
3.89217e-07
-3.8748e-07
3.86968e-07
-4.10299e-07
3.84099e-07
-4.33116e-07
3.80595e-07
-4.55914e-07
3.76431e-07
-4.78681e-07
3.71579e-07
-5.01407e-07
3.66009e-07
-5.2409e-07
3.59698e-07
3.52641e-07
-2.54903e-09
4.32509e-08
-9.30529e-09
1.16605e-07
-1.94991e-08
1.78072e-07
-3.24742e-08
2.29006e-07
-4.76791e-08
2.7076e-07
-6.46561e-08
3.0463e-07
-8.30311e-08
3.31816e-07
-1.02502e-07
3.53403e-07
-1.22827e-07
3.70351e-07
-1.43818e-07
3.83492e-07
-1.65325e-07
3.93534e-07
-1.87237e-07
4.01072e-07
-2.09466e-07
4.06591e-07
-2.31949e-07
4.10484e-07
-2.54635e-07
4.1306e-07
-2.7749e-07
4.14555e-07
-3.00484e-07
4.15145e-07
-3.23596e-07
4.14953e-07
-3.46808e-07
4.1406e-07
-3.70106e-07
4.12515e-07
-3.93477e-07
4.10339e-07
-4.16909e-07
4.07531e-07
-4.40392e-07
4.04078e-07
-4.63917e-07
3.99957e-07
-4.87481e-07
3.95143e-07
-5.11085e-07
3.89613e-07
-5.34736e-07
3.83349e-07
3.76363e-07
-2.57003e-09
4.5821e-08
-9.3825e-09
1.23418e-07
-1.96627e-08
1.88352e-07
-3.27507e-08
2.42093e-07
-4.80919e-08
2.86101e-07
-6.52266e-08
3.21764e-07
-8.3779e-08
3.50368e-07
-1.03446e-07
3.7307e-07
-1.23986e-07
3.90891e-07
-1.4521e-07
4.04715e-07
-1.6697e-07
4.15294e-07
-1.89154e-07
4.23256e-07
-2.11678e-07
4.29115e-07
-2.34479e-07
4.33285e-07
-2.5751e-07
4.36091e-07
-2.80737e-07
4.37782e-07
-3.04135e-07
4.38543e-07
-3.27686e-07
4.38504e-07
-3.51377e-07
4.37751e-07
-3.75197e-07
4.36335e-07
-3.99138e-07
4.3428e-07
-4.23194e-07
4.31587e-07
-4.47361e-07
4.28245e-07
-4.71641e-07
4.24237e-07
-4.96038e-07
4.1954e-07
-5.20567e-07
4.14141e-07
-5.45252e-07
4.08034e-07
4.01246e-07
-2.58583e-09
4.84068e-08
-9.44151e-09
1.30273e-07
-1.97895e-08
1.987e-07
-3.2968e-08
2.55272e-07
-4.84206e-08
3.01554e-07
-6.56868e-08
3.39031e-07
-8.43899e-08
3.69072e-07
-1.04227e-07
3.92907e-07
-1.24955e-07
4.1162e-07
-1.46387e-07
4.26147e-07
-1.68376e-07
4.37283e-07
-1.9081e-07
4.45691e-07
-2.13608e-07
4.51913e-07
-2.36708e-07
4.56385e-07
-2.60066e-07
4.59449e-07
-2.83651e-07
4.61367e-07
-3.07442e-07
4.62334e-07
-3.31424e-07
4.62486e-07
-3.55588e-07
4.61915e-07
-3.79929e-07
4.60676e-07
-4.04443e-07
4.58794e-07
-4.29132e-07
4.56276e-07
-4.54001e-07
4.53114e-07
-4.7906e-07
4.49295e-07
-5.04326e-07
4.44806e-07
-5.29828e-07
4.39644e-07
-5.55611e-07
4.33817e-07
4.27375e-07
-2.59622e-09
5.1003e-08
-9.48167e-09
1.37159e-07
-1.98784e-08
2.09097e-07
-3.31242e-08
2.68518e-07
-4.86628e-08
3.17092e-07
-6.60336e-08
3.56401e-07
-8.48601e-08
3.87898e-07
-1.04839e-07
4.12886e-07
-1.2573e-07
4.3251e-07
-1.47343e-07
4.47761e-07
-1.69536e-07
4.59475e-07
-1.92197e-07
4.68352e-07
-2.15246e-07
4.74962e-07
-2.38625e-07
4.79763e-07
-2.62292e-07
4.83116e-07
-2.86219e-07
4.85295e-07
-3.10389e-07
4.86504e-07
-3.34791e-07
4.86888e-07
-3.59421e-07
4.86545e-07
-3.84278e-07
4.85533e-07
-4.09367e-07
4.83883e-07
-4.34697e-07
4.81605e-07
-4.60281e-07
4.78698e-07
-4.8614e-07
4.75155e-07
-5.12308e-07
4.70974e-07
-5.3883e-07
4.66166e-07
-5.65772e-07
4.60759e-07
4.5483e-07
-2.60099e-09
5.3604e-08
-9.50229e-09
1.4406e-07
-1.99278e-08
2.19523e-07
-3.32172e-08
2.81807e-07
-4.88156e-08
3.32691e-07
-6.62634e-08
3.73849e-07
-8.5185e-08
4.0682e-07
-1.05278e-07
4.32979e-07
-1.26303e-07
4.53535e-07
-1.48072e-07
4.6953e-07
-1.70441e-07
4.81845e-07
-1.93304e-07
4.91215e-07
-2.16582e-07
4.98239e-07
-2.40217e-07
5.03399e-07
-2.64172e-07
5.07071e-07
-2.88423e-07
5.09546e-07
-3.12956e-07
5.11036e-07
-3.37764e-07
5.11697e-07
-3.62849e-07
5.1163e-07
-3.88216e-07
5.10901e-07
-4.13878e-07
5.09545e-07
-4.3985e-07
5.07578e-07
-4.66159e-07
5.05006e-07
-4.92838e-07
5.01834e-07
-5.19936e-07
4.98072e-07
-5.4752e-07
4.93749e-07
-5.7568e-07
4.88919e-07
4.83692e-07
-2.59991e-09
5.62039e-08
-9.50259e-09
1.50963e-07
-1.99364e-08
2.29956e-07
-3.32448e-08
2.95115e-07
-4.88757e-08
3.48321e-07
-6.63717e-08
3.91345e-07
-8.53591e-08
4.25807e-07
-1.05537e-07
4.53157e-07
-1.26667e-07
4.74665e-07
-1.48562e-07
4.91425e-07
-1.71082e-07
5.04365e-07
-1.9412e-07
5.14253e-07
-2.176e-07
5.21719e-07
-2.41468e-07
5.27267e-07
-2.65689e-07
5.31292e-07
-2.90242e-07
5.34099e-07
-3.15118e-07
5.35912e-07
-3.40316e-07
5.36894e-07
-3.65841e-07
5.37156e-07
-3.91708e-07
5.36767e-07
-4.17935e-07
5.35772e-07
-4.44549e-07
5.34192e-07
-4.71587e-07
5.32045e-07
-4.99099e-07
5.29346e-07
-5.27151e-07
5.26124e-07
-5.55832e-07
5.2243e-07
-5.85262e-07
5.18349e-07
5.14031e-07
-2.59273e-09
5.87967e-08
-9.48174e-09
1.57852e-07
-1.99025e-08
2.40377e-07
-3.32042e-08
3.08417e-07
-4.88394e-08
3.63957e-07
-6.6354e-08
4.0886e-07
-8.53767e-08
4.4483e-07
-1.05609e-07
4.73388e-07
-1.26813e-07
4.95869e-07
-1.48805e-07
5.13418e-07
-1.71446e-07
5.27005e-07
-1.9463e-07
5.37438e-07
-2.18285e-07
5.45374e-07
-2.42359e-07
5.51341e-07
-2.6682e-07
5.55753e-07
-2.91652e-07
5.5893e-07
-3.16849e-07
5.61109e-07
-3.42415e-07
5.6246e-07
-3.68363e-07
5.63104e-07
-3.94713e-07
5.63118e-07
-4.21494e-07
5.62552e-07
-4.48742e-07
5.61441e-07
-4.76509e-07
5.59811e-07
-5.04859e-07
5.57696e-07
-5.33881e-07
5.55145e-07
-5.63688e-07
5.52238e-07
-5.94432e-07
5.49093e-07
5.45909e-07
-2.5792e-09
6.13759e-08
-9.43891e-09
1.64711e-07
-1.98245e-08
2.50763e-07
-3.3093e-08
3.21686e-07
-4.87031e-08
3.79567e-07
-6.62052e-08
4.26362e-07
-8.52314e-08
4.63856e-07
-1.05485e-07
4.93642e-07
-1.26732e-07
5.17116e-07
-1.4879e-07
5.35475e-07
-1.7152e-07
5.49736e-07
-1.94821e-07
5.60739e-07
-2.1862e-07
5.69173e-07
-2.42871e-07
5.75591e-07
-2.67544e-07
5.80426e-07
-2.92626e-07
5.84013e-07
-3.18117e-07
5.866e-07
-3.44027e-07
5.8837e-07
-3.70374e-07
5.89451e-07
-3.97187e-07
5.89931e-07
-4.24503e-07
5.89869e-07
-4.52372e-07
5.8931e-07
-4.80859e-07
5.88298e-07
-5.10046e-07
5.86883e-07
-5.40044e-07
5.85143e-07
-5.70994e-07
5.83188e-07
-6.03082e-07
5.81181e-07
5.79373e-07
-2.55908e-09
6.39349e-08
-9.37326e-09
1.71526e-07
-1.97006e-08
2.6109e-07
-3.29083e-08
3.34893e-07
-4.84628e-08
3.95121e-07
-6.59201e-08
4.43819e-07
-8.49167e-08
4.82853e-07
-1.05159e-07
5.13885e-07
-1.26415e-07
5.38372e-07
-1.48504e-07
5.57565e-07
-1.71291e-07
5.72522e-07
-1.94675e-07
5.84123e-07
-2.18587e-07
5.93085e-07
-2.42982e-07
5.99986e-07
-2.67834e-07
6.05279e-07
-2.93136e-07
6.09314e-07
-3.18891e-07
6.12355e-07
-3.45114e-07
6.14593e-07
-3.71832e-07
6.16169e-07
-3.99081e-07
6.17179e-07
-4.26908e-07
6.17696e-07
-4.55376e-07
6.17778e-07
-4.84565e-07
6.17486e-07
-5.14578e-07
6.16896e-07
-5.45547e-07
6.16112e-07
-5.77646e-07
6.15287e-07
-6.11093e-07
6.14628e-07
6.14449e-07
-2.53213e-09
6.64671e-08
-9.28398e-09
1.78277e-07
-1.95293e-08
2.71335e-07
-3.26476e-08
3.48012e-07
-4.81147e-08
4.10588e-07
-6.54938e-08
4.61198e-07
-8.4426e-08
5.01785e-07
-1.04622e-07
5.3408e-07
-1.25851e-07
5.59601e-07
-1.47937e-07
5.7965e-07
-1.70744e-07
5.95329e-07
-1.94176e-07
6.07554e-07
-2.18165e-07
6.17074e-07
-2.42669e-07
6.2449e-07
-2.67666e-07
6.30277e-07
-2.93152e-07
6.348e-07
-3.19135e-07
6.38338e-07
-3.45637e-07
6.41095e-07
-3.72691e-07
6.43223e-07
-4.00342e-07
6.4483e-07
-4.28648e-07
6.46003e-07
-4.57685e-07
6.46816e-07
-4.8755e-07
6.47351e-07
-5.18365e-07
6.47711e-07
-5.50289e-07
6.48036e-07
-5.83524e-07
6.48522e-07
-6.18326e-07
6.49431e-07
6.51143e-07
-2.49816e-09
6.89652e-08
-9.17035e-09
1.8495e-07
-1.9309e-08
2.81474e-07
-3.23083e-08
3.61011e-07
-4.76553e-08
4.25935e-07
-6.49211e-08
4.78464e-07
-8.37529e-08
5.20616e-07
-1.03865e-07
5.54192e-07
-1.25031e-07
5.80767e-07
-1.47075e-07
6.01694e-07
-1.69866e-07
6.1812e-07
-1.93307e-07
6.30996e-07
-2.17335e-07
6.41102e-07
-2.4191e-07
6.49065e-07
-2.67013e-07
6.5538e-07
-2.92643e-07
6.6043e-07
-3.18814e-07
6.64509e-07
-3.45554e-07
6.67835e-07
-3.72904e-07
6.70572e-07
-4.00916e-07
6.72842e-07
-4.29661e-07
6.74748e-07
-4.59228e-07
6.76383e-07
-4.8973e-07
6.77853e-07
-5.21312e-07
6.79292e-07
-5.54157e-07
6.80881e-07
-5.88499e-07
6.82864e-07
-6.24631e-07
6.85562e-07
6.89428e-07
-2.45698e-09
7.14222e-08
-9.03172e-09
1.91524e-07
-1.90383e-08
2.91481e-07
-3.18882e-08
3.73861e-07
-4.70811e-08
4.41128e-07
-6.41976e-08
4.95581e-07
-8.28913e-08
5.3931e-07
-1.02881e-07
5.74183e-07
-1.23945e-07
6.0183e-07
-1.45909e-07
6.23658e-07
-1.68642e-07
6.40854e-07
-1.92053e-07
6.54407e-07
-2.16079e-07
6.65127e-07
-2.40682e-07
6.73668e-07
-2.65847e-07
6.80545e-07
-2.91578e-07
6.86161e-07
-3.17892e-07
6.90824e-07
-3.44824e-07
6.94767e-07
-3.72422e-07
6.98169e-07
-4.00747e-07
7.01168e-07
-4.29882e-07
7.03883e-07
-4.59929e-07
7.0643e-07
-4.91019e-07
7.08943e-07
-5.23317e-07
7.1159e-07
-5.57034e-07
7.14598e-07
-5.92433e-07
7.18263e-07
-6.29842e-07
7.22971e-07
7.29251e-07
-2.40851e-09
7.38307e-08
-8.86758e-09
1.97983e-07
-1.87162e-08
3.01329e-07
-3.13853e-08
3.8653e-07
-4.63891e-08
4.56132e-07
-6.33189e-08
5.1251e-07
-8.18357e-08
5.57827e-07
-1.01664e-07
5.94011e-07
-1.22584e-07
6.2275e-07
-1.44426e-07
6.455e-07
-1.67061e-07
6.63489e-07
-1.90398e-07
6.77744e-07
-2.14377e-07
6.89106e-07
-2.38963e-07
6.98254e-07
-2.64143e-07
7.05726e-07
-2.89926e-07
7.11943e-07
-3.16333e-07
7.17231e-07
-3.43405e-07
7.21839e-07
-3.71196e-07
7.2596e-07
-3.99779e-07
7.2975e-07
-4.29245e-07
7.33349e-07
-4.59712e-07
7.36896e-07
-4.91326e-07
7.40557e-07
-5.24276e-07
7.4454e-07
-5.58796e-07
7.49118e-07
-5.95178e-07
7.54646e-07
-6.33784e-07
7.61577e-07
7.7052e-07
-2.35278e-09
7.61835e-08
-8.67764e-09
2.04308e-07
-1.83418e-08
3.10993e-07
-3.0798e-08
3.98986e-07
-4.55768e-08
4.70911e-07
-6.22814e-08
5.29215e-07
-8.05811e-08
5.76127e-07
-1.00206e-07
6.13636e-07
-1.2094e-07
6.43485e-07
-1.42616e-07
6.67175e-07
-1.65108e-07
6.85981e-07
-1.88325e-07
7.00962e-07
-2.12211e-07
7.12991e-07
-2.36731e-07
7.22774e-07
-2.61876e-07
7.30871e-07
-2.87658e-07
7.37725e-07
-3.14103e-07
7.43676e-07
-3.41256e-07
7.48993e-07
-3.69179e-07
7.53884e-07
-3.97954e-07
7.58525e-07
-4.27684e-07
7.63078e-07
-4.58498e-07
7.67711e-07
-4.90561e-07
7.72621e-07
-5.24081e-07
7.78059e-07
-5.59314e-07
7.84351e-07
-5.96583e-07
7.91915e-07
-6.36277e-07
8.01271e-07
8.13107e-07
-2.28984e-09
7.84733e-08
-8.46211e-09
2.1048e-07
-1.79145e-08
3.20446e-07
-3.0125e-08
4.11197e-07
-4.46421e-08
4.85428e-07
-6.1082e-08
5.45655e-07
-7.91232e-08
5.94168e-07
-9.85018e-08
6.33014e-07
-1.19006e-07
6.63989e-07
-1.40471e-07
6.8864e-07
-1.62773e-07
7.08282e-07
-1.85823e-07
7.24012e-07
-2.09564e-07
7.36733e-07
-2.33966e-07
7.47176e-07
-2.59022e-07
7.55927e-07
-2.84744e-07
7.63447e-07
-3.11166e-07
7.70098e-07
-3.38336e-07
7.76163e-07
-3.66324e-07
7.81872e-07
-3.95218e-07
7.8742e-07
-4.25133e-07
7.92993e-07
-4.56211e-07
7.98789e-07
-4.88632e-07
8.05042e-07
-5.22621e-07
8.12049e-07
-5.5846e-07
8.2019e-07
-5.96491e-07
8.29946e-07
-6.37131e-07
8.41911e-07
8.56849e-07
-2.21912e-09
-8.22021e-09
-1.7434e-08
3.2966e-07
-2.93652e-08
4.23128e-07
-4.35831e-08
4.99646e-07
-5.97179e-08
5.61789e-07
-7.74581e-08
6.11908e-07
-9.65464e-08
6.52103e-07
-1.16775e-07
6.84218e-07
-1.37982e-07
7.09847e-07
-1.60045e-07
7.30345e-07