/*--------------------------------*- C++ -*----------------------------------*\
  =========                 |
  \\      /  F ield         | OpenFOAM: The Open Source CFD Toolbox
   \\    /   O peration     | Website:  https://openfoam.org
    \\  /    A nd           | Version:  9
     \\/     M anipulation  |
\*---------------------------------------------------------------------------*/
FoamFile
{
    format      ascii;
    class       volScalarField;
    location    "2";
    object      p;
}
// * * * * * * * * * * * * * * * * * * * * * * * * * * * * * * * * * * * * * //

dimensions      [0 2 -2 0 0 0 0];

internalField   nonuniform List<scalar> 
1240
(
-0.0662739
-0.0662127
-0.0660463
-0.0657756
-0.0654009
-0.06909
-0.069035
-0.0688761
-0.0686139
-0.0682492
-0.0677821
-0.0474918
-0.045092
-0.0425475
-0.039868
-0.0370714
-0.034185
-0.0312474
-0.0283081
-0.0254273
-0.0226725
-0.0201137
-0.0178173
-0.0158378
-0.0142115
-0.0129514
-0.0120452
-0.0114585
-0.0111402
-0.011031
-0.0110711
-0.0112064
-0.0113927
-0.0115958
-0.0117912
-0.0119619
-0.0121002
-0.0122091
-0.0717853
-0.0717353
-0.0715822
-0.0713268
-0.0709697
-0.0705116
-0.0699526
-0.0692929
-0.0685324
-0.0676703
-0.0667058
-0.065637
-0.0644617
-0.0631767
-0.0617781
-0.0602611
-0.05862
-0.0568484
-0.0549394
-0.0528863
-0.0506829
-0.048325
-0.0458114
-0.0431462
-0.0403401
-0.0374133
-0.0343972
-0.0313358
-0.028286
-0.0253159
-0.0225012
-0.0199188
-0.0176385
-0.0157147
-0.0141783
-0.0130325
-0.0122527
-0.0117915
-0.0115869
-0.0115719
-0.0116831
-0.0118664
-0.0120797
-0.012292
-0.0124814
-0.0126386
-0.0127674
-0.0743693
-0.0743234
-0.0741749
-0.0739246
-0.0735733
-0.0731217
-0.0725704
-0.0719196
-0.0711695
-0.07032
-0.0693704
-0.0683196
-0.0671658
-0.0659065
-0.0645381
-0.0630562
-0.0614554
-0.0597293
-0.0578704
-0.0558708
-0.0537226
-0.0514186
-0.0489536
-0.0463262
-0.0435406
-0.0406095
-0.037556
-0.0344166
-0.0312422
-0.028098
-0.0250613
-0.0222161
-0.0196453
-0.0174206
-0.0155928
-0.0141837
-0.0131833
-0.0125521
-0.0122287
-0.0121407
-0.0122156
-0.012389
-0.0126092
-0.0128373
-0.0130461
-0.0132235
-0.0133743
-0.0768504
-0.076808
-0.0766632
-0.0764168
-0.0760697
-0.0756226
-0.0750764
-0.0744316
-0.0736888
-0.0728481
-0.0719093
-0.070872
-0.0697348
-0.0684959
-0.0671524
-0.0657007
-0.0641357
-0.0624513
-0.0606402
-0.058694
-0.0566037
-0.0543601
-0.0519549
-0.0493823
-0.0466405
-0.043735
-0.0406805
-0.0375047
-0.0342501
-0.0309762
-0.0277578
-0.0246821
-0.0218414
-0.0193229
-0.0171971
-0.0155073
-0.0142618
-0.0134338
-0.0129669
-0.012786
-0.0128105
-0.0129653
-0.0131878
-0.0134304
-0.0136588
-0.0138576
-0.0140326
-0.0792355
-0.0791962
-0.0790545
-0.078811
-0.0784668
-0.0780226
-0.0774796
-0.0768384
-0.0760999
-0.0752647
-0.074333
-0.0733048
-0.0721796
-0.070956
-0.0696321
-0.0682049
-0.0666701
-0.0650222
-0.0632545
-0.0613587
-0.0593252
-0.0571438
-0.0548042
-0.0522969
-0.0496156
-0.0467589
-0.0437337
-0.0405582
-0.0372657
-0.0339067
-0.0305507
-0.0272834
-0.0242025
-0.0214074
-0.018987
-0.0170065
-0.0154964
-0.0144471
-0.0138118
-0.0135166
-0.0134746
-0.0136003
-0.0138196
-0.0140743
-0.0143221
-0.0145434
-0.0147446
-0.0814625
-0.0815299
-0.0814937
-0.0813545
-0.0811133
-0.0807709
-0.0803284
-0.0797869
-0.0791473
-0.0784108
-0.0775783
-0.0766504
-0.0756277
-0.0745101
-0.0732972
-0.0719876
-0.0705792
-0.0690687
-0.0674514
-0.0657214
-0.0638708
-0.0618905
-0.0597697
-0.0574969
-0.0550603
-0.0524498
-0.0496585
-0.046686
-0.0435418
-0.0402487
-0.0368474
-0.0333984
-0.0299828
-0.0266986
-0.0236532
-0.0209512
-0.0186793
-0.0168915
-0.0155999
-0.0147725
-0.0143408
-0.0142147
-0.0142992
-0.0145082
-0.014772
-0.0150385
-0.0152831
-0.0155125
-0.0836663
-0.0837372
-0.0837038
-0.083567
-0.0833275
-0.0829863
-0.0825445
-0.0820033
-0.0813638
-0.0806275
-0.0797954
-0.0788686
-0.0778482
-0.0767346
-0.0755281
-0.074228
-0.0728332
-0.0713412
-0.0697484
-0.0680498
-0.0662385
-0.0643059
-0.0622414
-0.0600332
-0.0576682
-0.0551335
-0.0524182
-0.0495154
-0.0464266
-0.0431647
-0.0397595
-0.0362607
-0.0327411
-0.0292952
-0.0260336
-0.0230723
-0.0205172
-0.0184466
-0.0168971
-0.0158561
-0.0152659
-0.015037
-0.0150668
-0.0152574
-0.0155261
-0.01581
-0.0160784
-0.0163379
-0.0849277
-0.0853192
-0.0856048
-0.0857847
-0.0858591
-0.0858287
-0.085694
-0.085456
-0.0851155
-0.0846737
-0.0841319
-0.0834915
-0.0827538
-0.0819204
-0.0809927
-0.0799721
-0.0788595
-0.0776558
-0.0763612
-0.0749752
-0.0734964
-0.0719223
-0.0702488
-0.0684702
-0.0665789
-0.0645651
-0.062417
-0.0601212
-0.0576632
-0.0550288
-0.0522067
-0.049191
-0.0459856
-0.0426093
-0.0391001
-0.0355201
-0.0319561
-0.0285175
-0.025327
-0.022506
-0.0201559
-0.0183393
-0.0170673
-0.0162981
-0.0159474
-0.0159079
-0.0160703
-0.0163389
-0.0166384
-0.0169308
-0.017222
-0.0869464
-0.0873434
-0.0876339
-0.0878182
-0.0878963
-0.0878688
-0.0877363
-0.0874995
-0.0871594
-0.0867172
-0.0861742
-0.085532
-0.084792
-0.0839561
-0.0830259
-0.0820031
-0.0808891
-0.0796854
-0.0783928
-0.0770117
-0.0755414
-0.0739806
-0.0723264
-0.0705742
-0.0687176
-0.0667478
-0.0646539
-0.0624226
-0.0600388
-0.0574864
-0.0547505
-0.0518196
-0.0486895
-0.0453688
-0.0418836
-0.0382834
-0.034645
-0.0310717
-0.027688
-0.0246264
-0.0220085
-0.019923
-0.0184077
-0.0174415
-0.0169504
-0.016826
-0.0169498
-0.0172124
-0.0175249
-0.017841
-0.0181655
-0.0888787
-0.0892815
-0.0895773
-0.0897661
-0.0898481
-0.0898235
-0.089693
-0.0894574
-0.0891175
-0.0886746
-0.0881301
-0.0874856
-0.0867428
-0.0859035
-0.0849696
-0.0839433
-0.0828263
-0.0816204
-0.0803271
-0.0789475
-0.0774819
-0.0759299
-0.0742896
-0.0725578
-0.0707294
-0.0687969
-0.0667505
-0.0645776
-0.0622633
-0.0597907
-0.0571423
-0.0543026
-0.0512608
-0.048016
-0.0445831
-0.0409987
-0.0373269
-0.0336618
-0.0301248
-0.0268545
-0.0239885
-0.0216401
-0.0198752
-0.0186976
-0.0180488
-0.0178242
-0.0178979
-0.0181475
-0.0184699
-0.018809
-0.0191678
-0.0907235
-0.0911323
-0.0914335
-0.091627
-0.0917128
-0.0916912
-0.0915627
-0.0913281
-0.0909884
-0.0905447
-0.0899985
-0.0893514
-0.0886053
-0.0877621
-0.086824
-0.0857932
-0.0846719
-0.0834623
-0.0821664
-0.0807858
-0.0793218
-0.0777746
-0.0761437
-0.0744271
-0.0726209
-0.0707192
-0.0687134
-0.0665922
-0.0643413
-0.0619439
-0.0593813
-0.0566348
-0.0536888
-0.0505344
-0.0471761
-0.0436378
-0.03997
-0.0362547
-0.032606
-0.0291633
-0.0260757
-0.0234778
-0.0214637
-0.020065
-0.0192438
-0.0189038
-0.0189155
-0.0191445
-0.019473
-0.0198339
-0.020228
-0.0924787
-0.0928937
-0.0932004
-0.0933985
-0.0934881
-0.0934695
-0.093343
-0.0931094
-0.0927698
-0.0923252
-0.0917772
-0.0911275
-0.090378
-0.0895307
-0.088588
-0.0875522
-0.0864259
-0.0852115
-0.0839115
-0.0825281
-0.0810632
-0.079518
-0.0778928
-0.0761868
-0.0743975
-0.0725205
-0.0705487
-0.0684722
-0.066278
-0.0639499
-0.0614687
-0.0588144
-0.0559672
-0.0529124
-0.0496452
-0.0461774
-0.042546
-0.038819
-0.0350998
-0.031524
-0.0282466
-0.0254196
-0.0231634
-0.0215392
-0.0205339
-0.0200647
-0.0200026
-0.0202029
-0.0205328
-0.0209141
-0.0213439
-0.094142
-0.0945631
-0.0948752
-0.095078
-0.0951714
-0.0951556
-0.095031
-0.0947985
-0.0944589
-0.0940134
-0.0934637
-0.0928113
-0.0920584
-0.0912069
-0.0902595
-0.0892185
-0.0880868
-0.0868671
-0.0855622
-0.0841747
-0.0827072
-0.0811615
-0.079539
-0.0778399
-0.0760631
-0.0742055
-0.0722616
-0.0702232
-0.0680787
-0.0658131
-0.0634078
-0.0608418
-0.0580932
-0.0551425
-0.0519773
-0.048599
-0.0450308
-0.0413264
-0.0375761
-0.0339071
-0.0304754
-0.0274453
-0.0249608
-0.0231124
-0.0219153
-0.021305
-0.0211575
-0.0213206
-0.0216472
-0.0220465
-0.0225122
-0.0957107
-0.0961378
-0.0964552
-0.0966624
-0.0967594
-0.0967464
-0.0966237
-0.0963921
-0.0960526
-0.0956063
-0.0950548
-0.0943999
-0.0936436
-0.0927881
-0.091836
-0.0907899
-0.0896527
-0.0884273
-0.087117
-0.0857247
-0.0842533
-0.0827056
-0.0810836
-0.0793885
-0.0776203
-0.0757775
-0.0738562
-0.0718497
-0.0697482
-0.0675381
-0.065202
-0.0627191
-0.0600662
-0.0572205
-0.0541637
-0.0508881
-0.0474046
-0.0437524
-0.0400068
-0.0362837
-0.032735
-0.0295324
-0.0268389
-0.0247736
-0.0233813
-0.0226206
-0.0223771
-0.0224945
-0.0228124
-0.0232274
-0.0237285
-0.0971819
-0.0976148
-0.0979372
-0.0981487
-0.0982492
-0.0982388
-0.0981179
-0.0978872
-0.0975476
-0.0971005
-0.0965474
-0.09589
-0.0951305
-0.0942711
-0.0933145
-0.0922634
-0.0911207
-0.0898898
-0.0885738
-0.0871763
-0.0857005
-0.0841496
-0.0825264
-0.080833
-0.0790706
-0.0772388
-0.0753353
-0.0733552
-0.0712904
-0.0691291
-0.0668553
-0.0644491
-0.0618871
-0.0591446
-0.0561988
-0.0530344
-0.0496517
-0.0460757
-0.0423665
-0.038626
-0.0349982
-0.0316564
-0.0287783
-0.0265085
-0.0249225
-0.0240052
-0.0236567
-0.02372
-0.0240237
-0.0244514
-0.0249872
-0.0985526
-0.098991
-0.0993182
-0.0995338
-0.0996376
-0.0996296
-0.0995103
-0.0992804
-0.0989408
-0.0984929
-0.0979381
-0.0972784
-0.0965159
-0.0956528
-0.0946919
-0.0936359
-0.0924881
-0.0912516
-0.0899301
-0.0885272
-0.0870466
-0.0854918
-0.0838664
-0.0821731
-0.0804141
-0.0785903
-0.0767008
-0.0747422
-0.0727085
-0.0705895
-0.0683713
-0.066035
-0.063558
-0.0609146
-0.0580792
-0.0550306
-0.0517598
-0.048279
-0.0446332
-0.0409088
-0.0372383
-0.0337923
-0.0307575
-0.0283006
-0.026527
-0.0254504
-0.0249894
-0.0249912
-0.025275
-0.0257123
-0.0262815
-0.0998199
-0.100264
-0.100595
-0.100815
-0.100921
-0.100916
-0.100798
-0.100569
-0.100229
-0.0997802
-0.0992239
-0.0985619
-0.0977964
-0.0969298
-0.0959648
-0.0949043
-0.0937515
-0.0925099
-0.091183
-0.0897748
-0.0882892
-0.0867302
-0.0851018
-0.0834075
-0.0816502
-0.079832
-0.0779532
-0.0760122
-0.0740045
-0.0719221
-0.0697528
-0.0674796
-0.0650811
-0.0625315
-0.0598036
-0.0568719
-0.0537198
-0.0503485
-0.046788
-0.0431091
-0.0394302
-0.0359148
-0.0327538
-0.0301313
-0.0281804
-0.0269453
-0.026367
-0.0263006
-0.0265589
-0.0270024
-0.0276033
-0.100981
-0.10143
-0.101766
-0.101988
-0.102098
-0.102094
-0.101978
-0.101749
-0.101409
-0.100959
-0.100402
-0.0997374
-0.0989691
-0.0980992
-0.0971303
-0.0960655
-0.094908
-0.0936613
-0.0923293
-0.090916
-0.0894255
-0.0878622
-0.0862304
-0.0845343
-0.0827775
-0.0809631
-0.0790925
-0.0771656
-0.0751796
-0.0731286
-0.0710021
-0.0687855
-0.0664586
-0.0639966
-0.0613716
-0.0585554
-0.0555253
-0.052273
-0.0488152
-0.0452068
-0.0415506
-0.0379995
-0.0347438
-0.0319801
-0.0298666
-0.0284774
-0.0277791
-0.027639
-0.0278668
-0.0283128
-0.0289435
-0.102033
-0.102487
-0.102826
-0.103052
-0.103165
-0.103163
-0.103047
-0.102819
-0.102479
-0.102028
-0.101469
-0.100802
-0.100031
-0.0991579
-0.0981853
-0.0971163
-0.0959543
-0.094703
-0.0933661
-0.0919478
-0.0904526
-0.088885
-0.0872496
-0.0855512
-0.0837941
-0.081982
-0.0801176
-0.078202
-0.0762342
-0.0742098
-0.0721209
-0.0699544
-0.0676924
-0.0653115
-0.0627838
-0.0600795
-0.0571718
-0.0540443
-0.0507019
-0.0471844
-0.0435783
-0.0400232
-0.0367044
-0.0338262
-0.0315676
-0.0300322
-0.029214
-0.0289961
-0.0291888
-0.0296339
-0.0302918
-0.102975
-0.103432
-0.103776
-0.104004
-0.104119
-0.104118
-0.104004
-0.103776
-0.103435
-0.102983
-0.102422
-0.101754
-0.10098
-0.100103
-0.0991271
-0.0980542
-0.0968879
-0.0956319
-0.0942903
-0.0928673
-0.0913675
-0.0897956
-0.0881566
-0.0864556
-0.0846975
-0.0828867
-0.0810269
-0.0791204
-0.0771677
-0.0751661
-0.0731097
-0.0709878
-0.0687842
-0.0664775
-0.0640408
-0.0614436
-0.0586563
-0.0556561
-0.0524379
-0.0490273
-0.0454947
-0.0419644
-0.038613
-0.0356479
-0.0332646
-0.0315939
-0.0306584
-0.0303604
-0.0305139
-0.0309545
-0.0316372
-0.103803
-0.104264
-0.104611
-0.104842
-0.104959
-0.10496
-0.104846
-0.104618
-0.104276
-0.103823
-0.10326
-0.10259
-0.101813
-0.100933
-0.0999534
-0.0988765
-0.0977059
-0.0964455
-0.0950993
-0.0936717
-0.0921674
-0.0905913
-0.0889486
-0.0872448
-0.0854852
-0.0836749
-0.0818185
-0.0799193
-0.077979
-0.0759969
-0.0739687
-0.071886
-0.0697349
-0.0674959
-0.0651435
-0.0626476
-0.0599769
-0.0571039
-0.0540151
-0.0507234
-0.0472834
-0.0438035
-0.0404484
-0.037424
-0.0349381
-0.0331456
-0.0320979
-0.0317189
-0.0318302
-0.0322631
-0.0329676
-0.104516
-0.104981
-0.10533
-0.105564
-0.105682
-0.105684
-0.105571
-0.105343
-0.105001
-0.104546
-0.103981
-0.103308
-0.102529
-0.101646
-0.100662
-0.0995811
-0.0984063
-0.0971414
-0.0957907
-0.0943585
-0.0928496
-0.0912693
-0.0896229
-0.0879161
-0.0861546
-0.0843442
-0.0824901
-0.0805966
-0.0786667
-0.0767011
-0.0746974
-0.0726492
-0.070545
-0.0683673
-0.0660925
-0.0636916
-0.0611325
-0.0583844
-0.0554272
-0.0522627
-0.0489306
-0.0455229
-0.0421906
-0.039134
-0.0365684
-0.0346698
-0.0335172
-0.0330582
-0.0331249
-0.0335471
-0.0342704
-0.105113
-0.105581
-0.105933
-0.106169
-0.106289
-0.106291
-0.106178
-0.105949
-0.105606
-0.105151
-0.104584
-0.103908
-0.103125
-0.102239
-0.101251
-0.100166
-0.098987
-0.0977176
-0.0963621
-0.0949253
-0.0934118
-0.0918272
-0.0901768
-0.0884668
-0.0867031
-0.084892
-0.0830392
-0.0811502
-0.0792288
-0.0772772
-0.0752947
-0.0732768
-0.0712143
-0.0690919
-0.0668883
-0.0645757
-0.0621222
-0.0594953
-0.0566693
-0.0536369
-0.0504242
-0.047107
-0.0438211
-0.0407579
-0.038136
-0.0361484
-0.0349002
-0.0343638
-0.0343848
-0.0347936
-0.0355327
-0.105592
-0.106063
-0.106418
-0.106655
-0.106776
-0.10678
-0.106666
-0.106437
-0.106093
-0.105635
-0.105066
-0.104387
-0.103601
-0.102711
-0.10172
-0.10063
-0.0994465
-0.0981723
-0.0968119
-0.0953702
-0.0938519
-0.0922627
-0.0906081
-0.0888945
-0.0871281
-0.0853157
-0.0834635
-0.0815777
-0.0796632
-0.0777234
-0.0757591
-0.0737678
-0.0717423
-0.0696697
-0.0675308
-0.0652999
-0.0629457
-0.0604348
-0.0577378
-0.0548396
-0.0517544
-0.0485423
-0.0453232
-0.0422771
-0.0396218
-0.0375632
-0.0362304
-0.0356208
-0.0355958
-0.0359893
-0.0367413
-0.105953
-0.106426
-0.106783
-0.107023
-0.107144
-0.107148
-0.107035
-0.106805
-0.106459
-0.105999
-0.105428
-0.104746
-0.103956
-0.103062
-0.102066
-0.100972
-0.0997835
-0.0985042
-0.0971386
-0.0956916
-0.0941682
-0.0925739
-0.0909148
-0.0891971
-0.0874275
-0.0856131
-0.0837607
-0.0818769
-0.0799678
-0.0780378
-0.0760891
-0.074121
-0.0721282
-0.0701002
-0.0680201
-0.0658642
-0.0636027
-0.0612021
-0.0586302
-0.0558661
-0.0529133
-0.0498177
-0.0466829
-0.0436754
-0.0410087
-0.0388975
-0.037492
-0.0368146
-0.0367443
-0.0371208
-0.0378827
)
;

boundaryField
{
    movingWall
    {
        type            zeroGradient;
    }
    fixedWalls
    {
        type            zeroGradient;
    }
    frontAndBack
    {
        type            empty;
    }
    procBoundary6to1
    {
        type            processor;
        value           nonuniform List<scalar> 
26
(
-0.0633272
-0.0632581
-0.0630824
-0.0628008
-0.0624134
-0.0662292
-0.0690402
-0.0717313
-0.0743117
-0.0767894
-0.0791713
-0.0791713
-0.0812905
-0.082823
-0.0832096
-0.0834906
-0.0834906
-0.0844301
-0.086443
-0.0883691
-0.0902072
-0.0919557
-0.0936123
-0.0951744
-0.0966391
-0.0980036
)
;
    }
    procBoundary6to3
    {
        type            processor;
        value           nonuniform List<scalar> 9(-0.099265 -0.100421 -0.101468 -0.102405 -0.103228 -0.103938 -0.104531 -0.105007 -0.105364);
    }
    procBoundary6to4
    {
        type            processor;
        value           nonuniform List<scalar> 
30
(
-0.0927594
-0.0910951
-0.0893727
-0.0875993
-0.0857821
-0.0839285
-0.0820458
-0.0801407
-0.0782185
-0.0762831
-0.074335
-0.0723712
-0.070383
-0.0683561
-0.0662689
-0.0640933
-0.0617965
-0.0593449
-0.0567127
-0.0538949
-0.050924
-0.0478876
-0.0449378
-0.0422803
-0.0401348
-0.0386695
-0.0379307
-0.0378166
-0.0381747
-0.038944
)
;
    }
    procBoundary6to5
    {
        type            processor;
        value           nonuniform List<scalar> 
21
(
-0.106195
-0.106671
-0.107029
-0.10727
-0.107393
-0.107397
-0.107283
-0.107052
-0.106705
-0.106243
-0.105668
-0.104983
-0.10419
-0.103291
-0.102291
-0.101192
-0.0999975
-0.0987125
-0.0973412
-0.0958883
-0.0943592
)
;
    }
    procBoundary6to7
    {
        type            processor;
        value           nonuniform List<scalar> 
45
(
-0.0649221
-0.0649221
-0.0441646
-0.0417415
-0.0391902
-0.0365268
-0.0337756
-0.0309704
-0.0281549
-0.0253819
-0.0227115
-0.0202067
-0.017929
-0.0159311
-0.0142519
-0.0129104
-0.0119043
-0.01121
-0.0107874
-0.0105857
-0.0105505
-0.0106301
-0.0107796
-0.0109631
-0.0111537
-0.011332
-0.0114847
-0.0116056
-0.0116968
-0.0672127
-0.0672127
-0.0665409
-0.0657663
-0.0648877
-0.0639038
-0.0628125
-0.061611
-0.0602958
-0.0588626
-0.0573067
-0.0556224
-0.053804
-0.0518459
-0.0497429
-0.0497429
)
;
    }
}


// ************************************************************************* //
