/*--------------------------------*- C++ -*----------------------------------*\
  =========                 |
  \\      /  F ield         | OpenFOAM: The Open Source CFD Toolbox
   \\    /   O peration     | Website:  https://openfoam.org
    \\  /    A nd           | Version:  9
     \\/     M anipulation  |
\*---------------------------------------------------------------------------*/
FoamFile
{
    format      ascii;
    class       surfaceScalarField;
    location    "2";
    object      phi;
}
// * * * * * * * * * * * * * * * * * * * * * * * * * * * * * * * * * * * * * //

dimensions      [0 3 -1 0 0 0 0];

internalField   nonuniform List<scalar> 
2402
(
-2.68899e-06
-1.90452e-07
-2.69408e-06
-2.98502e-07
-2.69967e-06
-4.06754e-07
-2.70585e-06
-5.1527e-07
-6.24126e-07
-2.5818e-06
-1.85856e-07
-2.58666e-06
-2.93641e-07
-2.59185e-06
-4.01564e-07
-2.59745e-06
-5.09668e-07
-2.60357e-06
-6.18009e-07
-7.26659e-07
-2.86269e-06
-2.52423e-06
-2.87599e-06
-2.66033e-06
-2.88084e-06
-2.79431e-06
-2.87396e-06
-2.923e-06
-2.85179e-06
-3.04225e-06
-2.81057e-06
-3.14691e-06
-2.74669e-06
-3.23087e-06
-2.65703e-06
-3.28733e-06
-2.53936e-06
-3.30919e-06
-2.39282e-06
-3.28961e-06
-2.21833e-06
-3.22283e-06
-2.01885e-06
-3.10501e-06
-1.79949e-06
-2.93511e-06
-1.56725e-06
-2.71558e-06
-1.33051e-06
-2.45271e-06
-1.09815e-06
-2.15638e-06
-8.78634e-07
-1.83923e-06
-6.79059e-07
-1.51538e-06
-5.04543e-07
-1.19886e-06
-3.57942e-07
-9.02276e-07
-2.39951e-07
-6.35918e-07
-1.49456e-07
-4.07421e-07
-8.40111e-08
-2.22002e-07
-4.02987e-08
-8.30389e-08
-1.44922e-08
7.2072e-09
-2.48933e-09
4.69067e-08
3.40493e-08
-2.4794e-06
-1.81188e-07
-2.48417e-06
-2.88871e-07
-2.48909e-06
-3.96646e-07
-2.49422e-06
-5.04533e-07
-2.49967e-06
-6.12563e-07
-2.50554e-06
-7.20785e-07
-2.51199e-06
-8.29266e-07
-2.51918e-06
-9.38104e-07
-2.52731e-06
-1.04743e-06
-2.53661e-06
-1.15742e-06
-2.54731e-06
-1.26829e-06
-2.55965e-06
-1.38032e-06
-2.57386e-06
-1.49384e-06
-2.59015e-06
-1.60921e-06
-2.60864e-06
-1.72687e-06
-2.62937e-06
-1.84723e-06
-2.65221e-06
-1.97072e-06
-2.67681e-06
-2.09768e-06
-2.70252e-06
-2.22828e-06
-2.72835e-06
-2.36246e-06
-2.75282e-06
-2.49976e-06
-2.77399e-06
-2.63917e-06
-2.78932e-06
-2.77897e-06
-2.79575e-06
-2.91656e-06
-2.78972e-06
-3.04829e-06
-2.76729e-06
-3.16933e-06
-2.72443e-06
-3.27374e-06
-2.65727e-06
-3.35449e-06
-2.56258e-06
-3.40387e-06
-2.43826e-06
-3.41393e-06
-2.28381e-06
-3.37728e-06
-2.10082e-06
-3.288e-06
-1.89318e-06
-3.14275e-06
-1.6671e-06
-2.94166e-06
-1.43072e-06
-2.68909e-06
-1.19335e-06
-2.39375e-06
-9.64442e-07
-2.06814e-06
-7.52517e-07
-1.72731e-06
-5.64227e-07
-1.38715e-06
-4.03843e-07
-1.06266e-06
-2.73165e-07
-7.66596e-07
-1.71808e-07
-5.08779e-07
-9.76894e-08
-2.9612e-07
-4.75704e-08
-1.33158e-07
-1.75074e-08
-2.28558e-08
-3.17202e-09
3.25713e-08
3.08772e-08
-2.38146e-06
-1.76318e-07
-2.38627e-06
-2.84061e-07
-2.39105e-06
-3.91862e-07
-2.39586e-06
-4.9972e-07
-2.40078e-06
-6.07645e-07
-2.40591e-06
-7.15656e-07
-2.41138e-06
-8.23795e-07
-2.41736e-06
-9.32127e-07
-2.42404e-06
-1.04075e-06
-2.43164e-06
-1.14982e-06
-2.44041e-06
-1.25952e-06
-2.45064e-06
-1.37009e-06
-2.4626e-06
-1.48187e-06
-2.47658e-06
-1.59523e-06
-2.49283e-06
-1.71062e-06
-2.51153e-06
-1.82854e-06
-2.53275e-06
-1.9495e-06
-2.55639e-06
-2.07403e-06
-2.58213e-06
-2.20254e-06
-2.6093e-06
-2.3353e-06
-2.63681e-06
-2.47224e-06
-2.6631e-06
-2.61288e-06
-2.68601e-06
-2.75606e-06
-2.70279e-06
-2.89979e-06
-2.71005e-06
-3.04103e-06
-2.70388e-06
-3.1755e-06
-2.68001e-06
-3.29761e-06
-2.63408e-06
-3.40043e-06
-2.56204e-06
-3.47592e-06
-2.46065e-06
-3.51532e-06
-2.32807e-06
-3.50986e-06
-2.16437e-06
-3.4517e-06
-1.97201e-06
-3.3351e-06
-1.75605e-06
-3.15762e-06
-1.52398e-06
-2.92117e-06
-1.28509e-06
-2.63263e-06
-1.04956e-06
-2.30367e-06
-8.27153e-07
-1.94971e-06
-6.2609e-07
-1.58821e-06
-4.52217e-07
-1.23653e-06
-3.08661e-07
-9.10152e-07
-1.95981e-07
-6.21458e-07
-1.1264e-07
-3.79461e-07
-5.55995e-08
-1.90199e-07
-2.08733e-08
-5.7582e-08
-3.94606e-09
1.56441e-08
2.69312e-08
-2.28733e-06
-1.71145e-07
-2.2923e-06
-2.7909e-07
-2.29709e-06
-3.87075e-07
-2.30173e-06
-4.95078e-07
-2.30629e-06
-6.03084e-07
-2.31086e-06
-7.1109e-07
-2.31554e-06
-8.19108e-07
-2.3205e-06
-9.27174e-07
-2.3259e-06
-1.03535e-06
-2.33196e-06
-1.14376e-06
-2.33893e-06
-1.25254e-06
-2.34709e-06
-1.36193e-06
-2.35676e-06
-1.4722e-06
-2.36827e-06
-1.58373e-06
-2.38193e-06
-1.69695e-06
-2.39806e-06
-1.81241e-06
-2.41689e-06
-1.93068e-06
-2.43852e-06
-2.05239e-06
-2.4629e-06
-2.17817e-06
-2.48967e-06
-2.30852e-06
-2.51814e-06
-2.44377e-06
-2.54714e-06
-2.58388e-06
-2.57494e-06
-2.72826e-06
-2.59917e-06
-2.87556e-06
-2.61677e-06
-3.02342e-06
-2.62402e-06
-3.16825e-06
-2.61663e-06
-3.305e-06
-2.58996e-06
-3.4271e-06
-2.53936e-06
-3.52651e-06
-2.46068e-06
-3.59399e-06
-2.35081e-06
-3.61973e-06
-2.20835e-06
-3.59417e-06
-2.03417e-06
-3.50928e-06
-1.83191e-06
-3.35988e-06
-1.60798e-06
-3.1451e-06
-1.37128e-06
-2.86934e-06
-1.13224e-06
-2.5427e-06
-9.01665e-07
-2.18029e-06
-6.89258e-07
-1.80062e-06
-5.02537e-07
-1.42326e-06
-3.46156e-07
-1.06653e-06
-2.21848e-07
-7.45766e-07
-1.28818e-07
-4.72491e-07
-6.43762e-08
-2.5464e-07
-2.45913e-08
-9.73669e-08
-4.81334e-09
-4.13391e-09
2.21178e-08
-2.19622e-06
-1.65592e-07
-2.20145e-06
-2.73862e-07
-2.20636e-06
-3.82164e-07
-2.21098e-06
-4.90458e-07
-2.21536e-06
-5.98709e-07
-2.21956e-06
-7.06891e-07
-2.22368e-06
-8.14988e-07
-2.22784e-06
-9.23008e-07
-2.23221e-06
-1.03099e-06
-2.23698e-06
-1.13899e-06
-2.24237e-06
-1.24715e-06
-2.24868e-06
-1.35563e-06
-2.2562e-06
-1.46468e-06
-2.2653e-06
-1.57463e-06
-2.27633e-06
-1.68592e-06
-2.28968e-06
-1.79906e-06
-2.3057e-06
-1.91466e-06
-2.32466e-06
-2.03343e-06
-2.34671e-06
-2.15611e-06
-2.37181e-06
-2.28343e-06
-2.39959e-06
-2.41599e-06
-2.42928e-06
-2.55418e-06
-2.4596e-06
-2.69794e-06
-2.48863e-06
-2.84653e-06
-2.51371e-06
-2.99834e-06
-2.53146e-06
-3.15051e-06
-2.53774e-06
-3.29871e-06
-2.52788e-06
-3.43697e-06
-2.49687e-06
-3.55752e-06
-2.43984e-06
-3.65102e-06
-2.35262e-06
-3.70695e-06
-2.23242e-06
-3.71437e-06
-2.07853e-06
-3.66317e-06
-1.89295e-06
-3.54546e-06
-1.68072e-06
-3.35732e-06
-1.44987e-06
-3.1002e-06
-1.21069e-06
-2.78188e-06
-9.7463e-07
-2.41635e-06
-7.52724e-07
-2.02252e-06
-5.54165e-07
-1.62181e-06
-3.8529e-07
-1.23541e-06
-2.49229e-07
-8.81828e-07
-1.46147e-07
-5.75573e-07
-7.38785e-08
-3.26909e-07
-2.86593e-08
-1.42586e-07
-5.77534e-09
-2.70179e-08
1.63425e-08
-2.1013e-06
-5.09978e-08
-2.10729e-06
-1.5961e-07
-2.11284e-06
-2.68303e-07
-2.11798e-06
-3.77028e-07
-2.12271e-06
-4.85731e-07
-2.12706e-06
-5.94358e-07
-2.13109e-06
-7.02864e-07
-2.13486e-06
-8.11211e-07
-2.13849e-06
-9.19378e-07
-2.14211e-06
-1.02737e-06
-2.14588e-06
-1.13522e-06
-2.15001e-06
-1.24302e-06
-2.15475e-06
-1.35088e-06
-2.16041e-06
-1.45902e-06
-2.16732e-06
-1.56772e-06
-2.17588e-06
-1.67736e-06
-2.18649e-06
-1.78844e-06
-2.19959e-06
-1.90156e-06
-2.21556e-06
-2.01746e-06
-2.23474e-06
-2.13693e-06
-2.2573e-06
-2.26087e-06
-2.28319e-06
-2.39011e-06
-2.312e-06
-2.52537e-06
-2.34288e-06
-2.66705e-06
-2.37438e-06
-2.81504e-06
-2.40433e-06
-2.9684e-06
-2.42975e-06
-3.12508e-06
-2.44685e-06
-3.28161e-06
-2.45107e-06
-3.43274e-06
-2.4373e-06
-3.57129e-06
-2.40021e-06
-3.68812e-06
-2.33479e-06
-3.77237e-06
-2.23702e-06
-3.81214e-06
-2.10467e-06
-3.79552e-06
-1.93805e-06
-3.71209e-06
-1.74059e-06
-3.55478e-06
-1.51905e-06
-3.32174e-06
-1.28315e-06
-3.01777e-06
-1.04457e-06
-2.65493e-06
-8.15377e-07
-2.25172e-06
-6.06355e-07
-1.83084e-06
-4.25619e-07
-1.41614e-06
-2.77891e-07
-1.02956e-06
-1.64525e-07
-6.88939e-07
-8.40703e-08
-4.07364e-07
-3.307e-08
-1.93586e-07
-6.8329e-09
-5.3255e-08
9.5096e-09
-2.01326e-06
-4.40918e-08
-2.01969e-06
-1.53175e-07
-2.02564e-06
-2.62361e-07
-2.03108e-06
-3.71586e-07
-2.03602e-06
-4.80785e-07
-2.04049e-06
-5.89888e-07
-2.04453e-06
-6.98833e-07
-2.04817e-06
-8.07563e-07
-2.05152e-06
-9.16035e-07
-2.05466e-06
-1.02423e-06
-2.05774e-06
-1.13214e-06
-2.06094e-06
-1.23982e-06
-2.06448e-06
-1.34734e-06
-2.06863e-06
-1.45488e-06
-2.0737e-06
-1.56265e-06
-2.08008e-06
-1.67098e-06
-2.08819e-06
-1.78033e-06
-2.0985e-06
-1.89126e-06
-2.11146e-06
-2.00449e-06
-2.12754e-06
-2.12086e-06
-2.14708e-06
-2.24132e-06
-2.17029e-06
-2.3669e-06
-2.19708e-06
-2.49857e-06
-2.22701e-06
-2.63712e-06
-2.25907e-06
-2.78297e-06
-2.2916e-06
-2.93587e-06
-2.32212e-06
-3.09457e-06
-2.34726e-06
-3.25647e-06
-2.36278e-06
-3.41722e-06
-2.36364e-06
-3.57043e-06
-2.34429e-06
-3.70746e-06
-2.29916e-06
-3.81751e-06
-2.22321e-06
-3.88808e-06
-2.11284e-06
-3.90588e-06
-1.96669e-06
-3.85824e-06
-1.78644e-06
-3.73503e-06
-1.57732e-06
-3.53086e-06
-1.34803e-06
-3.24706e-06
-1.11003e-06
-2.89294e-06
-8.76051e-07
-2.4857e-06
-6.58282e-07
-2.04861e-06
-4.66622e-07
-1.6078e-06
-3.07546e-07
-1.18863e-06
-1.83814e-07
-8.12671e-07
-9.48985e-08
-4.9628e-07
-3.781e-08
-2.50675e-07
-7.98542e-09
-8.30796e-08
1.52418e-09
-1.90219e-06
2.90761e-07
-1.91052e-06
1.81891e-07
-1.91841e-06
7.27273e-08
-1.92582e-06
-3.66828e-08
-1.93271e-06
-1.46281e-07
-1.93907e-06
-2.56005e-07
-1.94487e-06
-3.65781e-07
-1.95013e-06
-4.75531e-07
-1.95484e-06
-5.85178e-07
-1.95903e-06
-6.94642e-07
-1.96274e-06
-8.03854e-07
-1.96602e-06
-9.12752e-07
-1.96896e-06
-1.02129e-06
-1.97166e-06
-1.12944e-06
-1.97427e-06
-1.23721e-06
-1.97697e-06
-1.34464e-06
-1.98e-06
-1.45185e-06
-1.98363e-06
-1.55901e-06
-1.98823e-06
-1.66638e-06
-1.9942e-06
-1.77436e-06
-2.00201e-06
-1.88346e-06
-2.01216e-06
-1.99434e-06
-2.02517e-06
-2.10784e-06
-2.04154e-06
-2.22496e-06
-2.06165e-06
-2.34679e-06
-2.08571e-06
-2.47452e-06
-2.11359e-06
-2.60924e-06
-2.14473e-06
-2.75183e-06
-2.17796e-06
-2.90264e-06
-2.21133e-06
-3.06121e-06
-2.24197e-06
-3.22582e-06
-2.26607e-06
-3.39312e-06
-2.27886e-06
-3.55764e-06
-2.27481e-06
-3.71151e-06
-2.24797e-06
-3.84434e-06
-2.1926e-06
-3.94346e-06
-2.1039e-06
-3.99459e-06
-1.97896e-06
-3.98318e-06
-1.81769e-06
-3.8963e-06
-1.62358e-06
-3.72497e-06
-1.40397e-06
-3.46667e-06
-1.16964e-06
-3.12727e-06
-9.33569e-07
-2.72177e-06
-7.09061e-07
-2.27311e-06
-5.07714e-07
-1.80915e-06
-3.37853e-07
-1.35849e-06
-2.03842e-07
-9.46682e-07
-1.06292e-07
-5.9383e-07
-4.28582e-08
-3.14108e-07
-9.23069e-09
-1.16707e-07
-7.70652e-09
-1.81324e-06
3.00033e-07
-1.82209e-06
1.90744e-07
-1.83048e-06
8.11148e-08
-1.83836e-06
-2.88006e-08
-1.84571e-06
-1.38937e-07
-1.85249e-06
-2.49221e-07
-1.8587e-06
-3.59572e-07
-1.86433e-06
-4.69904e-07
-1.86937e-06
-5.80131e-07
-1.87385e-06
-6.90164e-07
-1.87778e-06
-7.99922e-07
-1.88121e-06
-9.09327e-07
-1.88418e-06
-1.01832e-06
-1.88678e-06
-1.12684e-06
-1.88912e-06
-1.23487e-06
-1.89134e-06
-1.34242e-06
-1.89364e-06
-1.44955e-06
-1.89626e-06
-1.55639e-06
-1.89951e-06
-1.66313e-06
-1.90378e-06
-1.7701e-06
-1.90949e-06
-1.87774e-06
-1.91717e-06
-1.98666e-06
-1.92737e-06
-2.09764e-06
-1.94066e-06
-2.21167e-06
-1.95757e-06
-2.32988e-06
-1.97851e-06
-2.45358e-06
-2.00365e-06
-2.5841e-06
-2.03282e-06
-2.72266e-06
-2.06529e-06
-2.87017e-06
-2.09964e-06
-3.02686e-06
-2.13356e-06
-3.1919e-06
-2.16375e-06
-3.36294e-06
-2.18583e-06
-3.53556e-06
-2.19448e-06
-3.70286e-06
-2.18367e-06
-3.85516e-06
-2.14714e-06
-3.97999e-06
-2.07916e-06
-4.06256e-06
-1.97546e-06
-4.08688e-06
-1.83424e-06
-4.03753e-06
-1.65715e-06
-3.90206e-06
-1.4499e-06
-3.67392e-06
-1.22219e-06
-3.35497e-06
-9.86805e-07
-2.95715e-06
-7.57788e-07
-2.50213e-06
-5.48261e-07
-2.01868e-06
-3.68422e-07
-1.53833e-06
-2.24401e-07
-1.0907e-06
-1.18158e-07
-7.00072e-07
-4.81849e-08
-3.84081e-07
-1.05644e-08
-1.54328e-07
-1.82709e-08
-1.72395e-06
3.0977e-07
-1.73325e-06
2.00048e-07
-1.74208e-06
8.99432e-08
-1.7504e-06
-2.0484e-08
-1.75818e-06
-1.31161e-07
-1.76539e-06
-2.42007e-07
-1.77202e-06
-3.52936e-07
-1.77807e-06
-4.63856e-07
-1.78353e-06
-5.74674e-07
-1.7884e-06
-6.85297e-07
-1.79269e-06
-7.95633e-07
-1.79642e-06
-9.05595e-07
-1.79963e-06
-1.01511e-06
-1.80237e-06
-1.1241e-06
-1.80472e-06
-1.23252e-06
-1.80679e-06
-1.34035e-06
-1.80874e-06
-1.44761e-06
-1.81075e-06
-1.55437e-06
-1.8131e-06
-1.66078e-06
-1.81612e-06
-1.76708e-06
-1.82021e-06
-1.87365e-06
-1.82586e-06
-1.98101e-06
-1.83363e-06
-2.08987e-06
-1.84413e-06
-2.20117e-06
-1.85796e-06
-2.31605e-06
-1.8757e-06
-2.43584e-06
-1.89775e-06
-2.56204e-06
-1.92426e-06
-2.69615e-06
-1.95492e-06
-2.83951e-06
-1.98879e-06
-2.99298e-06
-2.02414e-06
-3.15656e-06
-2.0582e-06
-3.32887e-06
-2.08713e-06
-3.50663e-06
-2.10595e-06
-3.68404e-06
-2.10874e-06
-3.85238e-06
-2.08899e-06
-3.99973e-06
-2.04031e-06
-4.11124e-06
-1.95726e-06
-4.16993e-06
-1.83648e-06
-4.15831e-06
-1.6778e-06
-4.06075e-06
-1.48511e-06
-3.8666e-06
-1.26671e-06
-3.57336e-06
-1.03474e-06
-3.18913e-06
-8.03577e-07
-2.73329e-06
-5.87605e-07
-2.23465e-06
-3.98829e-07
-1.72711e-06
-2.45255e-07
-1.24428e-06
-1.30388e-07
-8.14939e-07
-5.37517e-08
-4.60718e-07
-1.19799e-08
-1.96099e-07
-3.02508e-08
-1.63395e-06
3.19888e-07
-1.64363e-06
2.09731e-07
-1.65284e-06
9.91548e-08
-1.66155e-06
-1.17748e-08
-1.66973e-06
-1.22979e-07
-1.67737e-06
-2.34372e-07
-1.68444e-06
-3.45862e-07
-1.69094e-06
-4.57355e-07
-1.69686e-06
-5.68755e-07
-1.7022e-06
-6.79963e-07
-1.70695e-06
-7.90883e-07
-1.71112e-06
-9.01422e-07
-1.71474e-06
-1.01149e-06
-1.71782e-06
-1.12101e-06
-1.72043e-06
-1.22991e-06
-1.72264e-06
-1.33814e-06
-1.72456e-06
-1.44569e-06
-1.72635e-06
-1.55258e-06
-1.72822e-06
-1.65891e-06
-1.73045e-06
-1.76485e-06
-1.73339e-06
-1.8707e-06
-1.7375e-06
-1.9769e-06
-1.74331e-06
-2.08407e-06
-1.75141e-06
-2.19307e-06
-1.76248e-06
-2.30498e-06
-1.77717e-06
-2.42115e-06
-1.79608e-06
-2.54314e-06
-1.81958e-06
-2.67265e-06
-1.84774e-06
-2.81136e-06
-1.88007e-06
-2.96065e-06
-1.91536e-06
-3.12127e-06
-1.95145e-06
-3.29279e-06
-1.98503e-06
-3.47304e-06
-2.01163e-06
-3.65745e-06
-2.02558e-06
-3.83842e-06
-2.0204e-06
-4.00492e-06
-1.98922e-06
-4.14241e-06
-1.92574e-06
-4.23342e-06
-1.82521e-06
-4.25884e-06
-1.6857e-06
-4.20025e-06
-1.50925e-06
-4.04306e-06
-1.30249e-06
-3.78013e-06
-1.0765e-06
-3.41511e-06
-8.45606e-07
-2.96419e-06
-6.2509e-07
-2.45517e-06
-4.28626e-07
-1.92357e-06
-2.66143e-07
-1.40676e-06
-1.42854e-07
-9.38228e-07
-5.95114e-08
-5.4406e-07
-1.34683e-08
-2.42142e-07
-4.37192e-08
-1.54295e-06
3.30305e-07
-1.55295e-06
2.19725e-07
-1.56249e-06
1.08695e-07
-1.57155e-06
-2.71406e-09
-1.58011e-06
-1.14417e-07
-1.58815e-06
-2.26327e-07
-1.59567e-06
-3.38348e-07
-1.60264e-06
-4.50384e-07
-1.60906e-06
-5.62336e-07
-1.61491e-06
-6.74106e-07
-1.6202e-06
-7.85594e-07
-1.62492e-06
-8.96703e-07
-1.62907e-06
-1.00734e-06
-1.63267e-06
-1.11741e-06
-1.63574e-06
-1.22684e-06
-1.63833e-06
-1.33555e-06
-1.64052e-06
-1.4435e-06
-1.64241e-06
-1.55069e-06
-1.64418e-06
-1.65715e-06
-1.64604e-06
-1.76299e-06
-1.64831e-06
-1.86843e-06
-1.65137e-06
-1.97384e-06
-1.65571e-06
-2.07973e-06
-1.66191e-06
-2.18687e-06
-1.67063e-06
-2.29625e-06
-1.6826e-06
-2.40919e-06
-1.6985e-06
-2.52724e-06
-1.71893e-06
-2.65222e-06
-1.74422e-06
-2.78606e-06
-1.77431e-06
-2.93057e-06
-1.80845e-06
-3.08712e-06
-1.84505e-06
-3.25618e-06
-1.88142e-06
-3.43667e-06
-1.91363e-06
-3.62525e-06
-1.93644e-06
-3.8156e-06
-1.94354e-06
-3.99782e-06
-1.92788e-06
-4.15807e-06
-1.88251e-06
-4.2788e-06
-1.80152e-06
-4.33983e-06
-1.6814e-06
-4.32037e-06
-1.52232e-06
-4.20214e-06
-1.32908e-06
-3.97337e-06
-1.11142e-06
-3.63277e-06
-8.83149e-07
-3.19246e-06
-6.60089e-07
-2.67823e-06
-4.57359e-07
-2.1263e-06
-2.86784e-07
-1.57734e-06
-1.55413e-07
-1.0696e-06
-6.54089e-08
-6.34064e-07
-1.50183e-08
-2.92533e-07
-5.87375e-08
-1.45077e-06
3.40947e-07
-1.46102e-06
2.29968e-07
-1.47083e-06
1.18513e-07
-1.48021e-06
6.66005e-09
-1.48912e-06
-1.05505e-07
-1.49756e-06
-2.17889e-07
-1.50551e-06
-3.30398e-07
-1.51296e-06
-4.42933e-07
-1.5199e-06
-5.55396e-07
-1.52632e-06
-6.67688e-07
-1.5322e-06
-7.79709e-07
-1.53754e-06
-8.91362e-07
-1.54234e-06
-1.00255e-06
-1.54657e-06
-1.11317e-06
-1.55026e-06
-1.22314e-06
-1.55343e-06
-1.33238e-06
-1.55612e-06
-1.44082e-06
-1.5584e-06
-1.54841e-06
-1.5604e-06
-1.65515e-06
-1.56229e-06
-1.7611e-06
-1.5643e-06
-1.86642e-06
-1.56678e-06
-1.97136e-06
-1.57016e-06
-2.07636e-06
-1.57496e-06
-2.18206e-06
-1.58183e-06
-2.28938e-06
-1.59149e-06
-2.39952e-06
-1.60471e-06
-2.51402e-06
-1.6222e-06
-2.63472e-06
-1.64455e-06
-2.76371e-06
-1.67198e-06
-2.90313e-06
-1.70422e-06
-3.05488e-06
-1.7402e-06
-3.22021e-06
-1.77782e-06
-3.39905e-06
-1.81376e-06
-3.58931e-06
-1.84331e-06
-3.78605e-06
-1.86047e-06
-3.98066e-06
-1.85826e-06
-4.16028e-06
-1.82927e-06
-4.30778e-06
-1.76674e-06
-4.40237e-06
-1.66573e-06
-4.42137e-06
-1.52463e-06
-4.34324e-06
-1.34636e-06
-4.15164e-06
-1.13905e-06
-3.84008e-06
-9.15613e-07
-3.4159e-06
-6.92037e-07
-2.9018e-06
-4.84587e-07
-2.33375e-06
-3.06894e-07
-1.75503e-06
-1.67912e-07
-1.20858e-06
-7.13827e-08
-7.30594e-07
-1.66164e-08
-3.47299e-07
-7.53538e-08
-1.35729e-06
3.51751e-07
-1.36773e-06
2.40406e-07
-1.37778e-06
1.28566e-07
-1.38744e-06
1.63118e-08
-1.39667e-06
-9.62666e-08
-1.40549e-06
-2.09076e-07
-1.41387e-06
-3.2202e-07
-1.4218e-06
-4.35001e-07
-1.42927e-06
-5.47921e-07
-1.43628e-06
-6.60683e-07
-1.4428e-06
-7.73189e-07
-1.44882e-06
-8.85342e-07
-1.45432e-06
-9.97045e-07
-1.45929e-06
-1.1082e-06
-1.46373e-06
-1.21871e-06
-1.46763e-06
-1.32848e-06
-1.47102e-06
-1.43743e-06
-1.47392e-06
-1.5455e-06
-1.47643e-06
-1.65264e-06
-1.47866e-06
-1.75887e-06
-1.48081e-06
-1.86427e-06
-1.48314e-06
-1.96903e-06
-1.48603e-06
-2.07348e-06
-1.48993e-06
-2.17816e-06
-1.49546e-06
-2.28386e-06
-1.50331e-06
-2.39167e-06
-1.51427e-06
-2.50307e-06
-1.52913e-06
-2.61986e-06
-1.54864e-06
-2.74421e-06
-1.57329e-06
-2.87848e-06
-1.60318e-06
-3.025e-06
-1.63772e-06
-3.18567e-06
-1.6754e-06
-3.36137e-06
-1.71349e-06
-3.55122e-06
-1.74789e-06
-3.75165e-06
-1.77306e-06
-3.95548e-06
-1.78221e-06
-4.15114e-06
-1.76777e-06
-4.32222e-06
-1.72231e-06
-4.44783e-06
-1.63973e-06
-4.50395e-06
-1.51676e-06
-4.46621e-06
-1.35444e-06
-4.31396e-06
-1.15913e-06
-4.03539e-06
-9.42557e-07
-3.63247e-06
-7.20447e-07
-3.12391e-06
-5.09901e-07
-2.5443e-06
-3.2619e-07
-1.93874e-06
-1.80195e-07
-1.35458e-06
-7.73659e-08
-8.33422e-07
-1.82472e-08
-4.06418e-07
-9.3601e-08
-1.26246e-06
3.6266e-07
-1.27304e-06
2.50991e-07
-1.28329e-06
1.38813e-07
-1.29319e-06
2.62103e-08
-1.30273e-06
-8.67268e-08
-1.3119e-06
-1.99903e-07
-1.3207e-06
-3.13222e-07
-1.32911e-06
-4.26588e-07
-1.33713e-06
-5.39905e-07
-1.34473e-06
-6.53077e-07
-1.35191e-06
-7.66009e-07
-1.35865e-06
-8.78607e-07
-1.36492e-06
-9.90775e-07
-1.3707e-06
-1.10242e-06
-1.37597e-06
-1.21343e-06
-1.38073e-06
-1.32373e-06
-1.38495e-06
-1.43321e-06
-1.38867e-06
-1.54178e-06
-1.39192e-06
-1.6494e-06
-1.39478e-06
-1.75601e-06
-1.39738e-06
-1.86166e-06
-1.39995e-06
-1.96646e-06
-1.40277e-06
-2.07065e-06
-1.40626e-06
-2.17467e-06
-1.41095e-06
-2.27917e-06
-1.4175e-06
-2.38513e-06
-1.42667e-06
-2.49389e-06
-1.43931e-06
-2.60722e-06
-1.45626e-06
-2.72726e-06
-1.47821e-06
-2.85652e-06
-1.50556e-06
-2.99764e-06
-1.53815e-06
-3.15308e-06
-1.57499e-06
-3.32453e-06
-1.61398e-06
-3.51224e-06
-1.65162e-06
-3.714e-06
-1.68293e-06
-3.92417e-06
-1.70147e-06
-4.1326e-06
-1.6997e-06
-4.32399e-06
-1.66976e-06
-4.47777e-06
-1.6046e-06
-4.56911e-06
-1.4995e-06
-4.57131e-06
-1.35369e-06
-4.45977e-06
-1.17167e-06
-4.21741e-06
-9.63705e-07
-3.84043e-06
-7.44936e-07
-3.34268e-06
-5.32939e-07
-2.75629e-06
-3.44404e-07
-2.12727e-06
-1.92102e-07
-1.50688e-06
-8.3289e-08
-9.42235e-07
-1.9894e-08
-4.69813e-07
-1.13495e-07
-1.16624e-06
3.73628e-07
-1.17694e-06
2.61685e-07
-1.18735e-06
1.49223e-07
-1.19747e-06
3.63288e-08
-1.20729e-06
-7.6906e-08
-1.2168e-06
-1.90386e-07
-1.22601e-06
-3.04016e-07
-1.2349e-06
-4.177e-07
-1.24346e-06
-5.31346e-07
-1.25167e-06
-6.44861e-07
-1.25953e-06
-7.58153e-07
-1.26701e-06
-8.71131e-07
-1.27408e-06
-9.83704e-07
-1.28072e-06
-1.09578e-06
-1.2869e-06
-1.20725e-06
-1.29259e-06
-1.31803e-06
-1.29778e-06
-1.42802e-06
-1.30245e-06
-1.53711e-06
-1.30661e-06
-1.64523e-06
-1.31032e-06
-1.75231e-06
-1.31366e-06
-1.85832e-06
-1.31678e-06
-1.96334e-06
-1.31993e-06
-2.06751e-06
-1.32344e-06
-2.17116e-06
-1.32776e-06
-2.27484e-06
-1.33351e-06
-2.37938e-06
-1.34141e-06
-2.486e-06
-1.35229e-06
-2.59633e-06
-1.36706e-06
-2.7125e-06
-1.38654e-06
-2.83704e-06
-1.41137e-06
-2.97281e-06
-1.44175e-06
-3.1227e-06
-1.47716e-06
-3.28912e-06
-1.51608e-06
-3.47332e-06
-1.55564e-06
-3.67444e-06
-1.59146e-06
-3.88835e-06
-1.61756e-06
-4.1065e-06
-1.62661e-06
-4.31494e-06
-1.61054e-06
-4.49384e-06
-1.56159e-06
-4.61807e-06
-1.47378e-06
-4.65912e-06
-1.34465e-06
-4.5889e-06
-1.17682e-06
-4.38523e-06
-9.78947e-07
-4.03831e-06
-7.65236e-07
-3.55639e-06
-5.534e-07
-2.96813e-06
-3.61294e-07
-2.31938e-06
-2.03482e-07
-1.66469e-06
-8.90817e-08
-1.05664e-06
-2.15389e-08
-5.37356e-07
-1.35034e-07
-1.06868e-06
3.84613e-07
-1.07945e-06
2.72453e-07
-1.08999e-06
1.59767e-07
-1.10031e-06
4.66445e-08
-1.11039e-06
-6.68225e-08
-1.12024e-06
-1.80539e-07
-1.12985e-06
-2.9441e-07
-1.1392e-06
-4.08342e-07
-1.1483e-06
-5.22246e-07
-1.15713e-06
-6.36031e-07
-1.16568e-06
-7.49611e-07
-1.17391e-06
-8.62898e-07
-1.18181e-06
-9.75807e-07
-1.18934e-06
-1.08825e-06
-1.19647e-06
-1.20012e-06
-1.20316e-06
-1.31134e-06
-1.20939e-06
-1.42179e-06
-1.21513e-06
-1.53138e-06
-1.22036e-06
-1.64e-06
-1.22509e-06
-1.74757e-06
-1.22939e-06
-1.85403e-06
-1.23334e-06
-1.95938e-06
-1.23713e-06
-2.06372e-06
-1.24103e-06
-2.16726e-06
-1.24544e-06
-2.27043e-06
-1.25086e-06
-2.37395e-06
-1.25798e-06
-2.47888e-06
-1.26761e-06
-2.58671e-06
-1.28063e-06
-2.69947e-06
-1.29799e-06
-2.81968e-06
-1.32049e-06
-2.95032e-06
-1.34861e-06
-3.09458e-06
-1.38224e-06
-3.25548e-06
-1.4204e-06
-3.43516e-06
-1.46084e-06
-3.634e-06
-1.49979e-06
-3.8494e-06
-1.53182e-06
-4.07447e-06
-1.54995e-06
-4.29681e-06
-1.54609e-06
-4.49771e-06
-1.51198e-06
-4.65217e-06
-1.44062e-06
-4.73047e-06
-1.32801e-06
-4.70151e-06
-1.17495e-06
-4.53829e-06
-9.8833e-07
-4.22493e-06
-7.81194e-07
-3.76353e-06
-5.71057e-07
-3.17827e-06
-3.76652e-07
-2.51378e-06
-2.14194e-07
-1.82715e-06
-9.46755e-08
-1.17615e-06
-2.31638e-08
-6.08868e-07
-1.58198e-07
-9.69808e-07
3.95585e-07
-9.80623e-07
2.83267e-07
-9.91278e-07
1.70422e-07
-1.00177e-06
5.7138e-08
-1.0121e-06
-5.6492e-08
-1.02227e-06
-1.70374e-07
-1.03226e-06
-2.84413e-07
-1.04209e-06
-3.9852e-07
-1.05173e-06
-5.12606e-07
-1.06117e-06
-6.26587e-07
-1.0704e-06
-7.40378e-07
-1.0794e-06
-8.539e-07
-1.08814e-06
-9.67068e-07
-1.09658e-06
-1.0798e-06
-1.1047e-06
-1.19201e-06
-1.11244e-06
-1.30359e-06
-1.11978e-06
-1.41446e-06
-1.12665e-06
-1.5245e-06
-1.13305e-06
-1.6336e-06
-1.13895e-06
-1.74167e-06
-1.14438e-06
-1.84861e-06
-1.14939e-06
-1.95438e-06
-1.1541e-06
-2.059e-06
-1.15872e-06
-2.16263e-06
-1.16358e-06
-2.26558e-06
-1.16912e-06
-2.36841e-06
-1.17594e-06
-2.47206e-06
-1.18479e-06
-2.57786e-06
-1.19657e-06
-2.6877e-06
-1.21222e-06
-2.80403e-06
-1.23268e-06
-2.92986e-06
-1.25865e-06
-3.06861e-06
-1.29037e-06
-3.22375e-06
-1.32733e-06
-3.39821e-06
-1.36785e-06
-3.59349e-06
-1.4088e-06
-3.80845e-06
-1.44535e-06
-4.03791e-06
-1.47096e-06
-4.2712e-06
-1.4777e-06
-4.49097e-06
-1.45702e-06
-4.67285e-06
-1.4011e-06
-4.78639e-06
-1.30458e-06
-4.79803e-06
-1.16653e-06
-4.67635e-06
-9.92038e-07
-4.39942e-06
-7.92776e-07
-3.96279e-06
-5.8576e-07
-3.38528e-06
-3.90311e-07
-2.70923e-06
-2.24115e-07
-1.99335e-06
-1.00006e-07
-1.30026e-06
-2.47507e-08
-6.84123e-07
-1.82948e-07
-8.69689e-07
4.06512e-07
-8.80525e-07
2.94104e-07
-8.9127e-07
1.81167e-07
-9.01924e-07
6.7792e-08
-9.12487e-07
-4.59285e-08
-9.22959e-07
-1.59901e-07
-9.33338e-07
-2.74034e-07
-9.43619e-07
-3.88239e-07
-9.53795e-07
-5.02431e-07
-9.63853e-07
-6.16529e-07
-9.73777e-07
-7.30453e-07
-9.83548e-07
-8.44129e-07
-9.93137e-07
-9.57479e-07
-1.00251e-06
-1.07043e-06
-1.01163e-06
-1.18289e-06
-1.02046e-06
-1.29477e-06
-1.02893e-06
-1.40598e-06
-1.03701e-06
-1.51642e-06
-1.04466e-06
-1.62596e-06
-1.05183e-06
-1.73449e-06
-1.05853e-06
-1.84191e-06
-1.06476e-06
-1.94814e-06
-1.07061e-06
-2.05315e-06
-1.07624e-06
-2.15701e-06
-1.08189e-06
-2.25993e-06
-1.08793e-06
-2.36237e-06
-1.09488e-06
-2.4651e-06
-1.10344e-06
-2.5693e-06
-1.11444e-06
-2.6767e-06
-1.12885e-06
-2.78963e-06
-1.14764e-06
-2.91107e-06
-1.1717e-06
-3.04455e-06
-1.20155e-06
-3.1939e-06
-1.23707e-06
-3.36269e-06
-1.27712e-06
-3.55343e-06
-1.31919e-06
-3.76638e-06
-1.35907e-06
-3.99804e-06
-1.39073e-06
-4.23953e-06
-1.40655e-06
-4.47516e-06
-1.39787e-06
-4.68153e-06
-1.35626e-06
-4.828e-06
-1.2752e-06
-4.87909e-06
-1.15214e-06
-4.79941e-06
-9.90376e-07
-4.56118e-06
-8.00056e-07
-4.15311e-06
-5.97439e-07
-3.5879e-06
-4.02151e-07
-2.90452e-06
-2.33142e-07
-2.16235e-06
-1.05016e-07
-1.42839e-06
-2.62822e-08
-7.62857e-07
-2.0923e-07
-7.68397e-07
4.17367e-07
-7.79231e-07
3.04938e-07
-7.90046e-07
1.91982e-07
-8.00845e-07
7.85904e-08
-8.11628e-07
-3.51449e-08
-8.22398e-07
-1.49132e-07
-8.33151e-07
-2.63281e-07
-8.43885e-07
-3.77505e-07
-8.54593e-07
-4.91724e-07
-8.65263e-07
-6.05858e-07
-8.75881e-07
-7.19836e-07
-8.86426e-07
-8.33584e-07
-8.96871e-07
-9.47034e-07
-9.07184e-07
-1.06011e-06
-9.17324e-07
-1.17275e-06
-9.27246e-07
-1.28485e-06
-9.36898e-07
-1.39633e-06
-9.46226e-07
-1.50709e-06
-9.55175e-07
-1.61701e-06
-9.63698e-07
-1.72597e-06
-9.71764e-07
-1.83385e-06
-9.79367e-07
-1.94054e-06
-9.86543e-07
-2.04597e-06
-9.93394e-07
-2.15015e-06
-1.00011e-06
-2.25322e-06
-1.00699e-06
-2.3555e-06
-1.01447e-06
-2.45761e-06
-1.02318e-06
-2.5606e-06
-1.03387e-06
-2.666e-06
-1.04749e-06
-2.77601e-06
-1.06505e-06
-2.89351e-06
-1.08753e-06
-3.02208e-06
-1.11566e-06
-3.16576e-06
-1.14968e-06
-3.32867e-06
-1.18892e-06
-3.51419e-06
-1.23145e-06
-3.72386e-06
-1.27367e-06
-3.95581e-06
-1.31017e-06
-4.20304e-06
-1.33367e-06
-4.45166e-06
-1.33561e-06
-4.67959e-06
-1.30713e-06
-4.85648e-06
-1.24075e-06
-4.94547e-06
-1.13243e-06
-4.90772e-06
-9.83741e-07
-4.70988e-06
-8.03203e-07
-4.33365e-06
-6.06103e-07
-3.785e-06
-4.12102e-07
-3.09852e-06
-2.41196e-07
-2.33326e-06
-1.09656e-07
-1.55993e-06
-2.77425e-08
-8.4477e-07
-2.36973e-07
-6.66011e-07
4.28126e-07
-6.76822e-07
3.15749e-07
-6.87689e-07
2.02849e-07
-6.98617e-07
8.95184e-08
-7.09608e-07
-2.41536e-08
-7.20665e-07
-1.38076e-07
-7.31785e-07
-2.52161e-07
-7.42966e-07
-3.66324e-07
-7.54202e-07
-4.80488e-07
-7.65482e-07
-5.94578e-07
-7.76793e-07
-7.08525e-07
-7.88114e-07
-8.22263e-07
-7.99419e-07
-9.35729e-07
-8.10676e-07
-1.04886e-06
-8.21845e-07
-1.16158e-06
-8.3288e-07
-1.27381e-06
-8.43728e-07
-1.38548e-06
-8.54329e-07
-1.49649e-06
-8.64624e-07
-1.60671e-06
-8.74555e-07
-1.71604e-06
-8.84074e-07
-1.82433e-06
-8.93151e-07
-1.93146e-06
-9.01791e-07
-2.03733e-06
-9.10052e-07
-2.14189e-06
-9.18068e-07
-2.2452e-06
-9.26072e-07
-2.34749e-06
-9.34434e-07
-2.44925e-06
-9.4368e-07
-2.55135e-06
-9.54513e-07
-2.65517e-06
-9.6781e-07
-2.76271e-06
-9.84576e-07
-2.87674e-06
-1.00585e-06
-3.0008e-06
-1.03254e-06
-3.13908e-06
-1.06513e-06
-3.29607e-06
-1.10339e-06
-3.47593e-06
-1.14591e-06
-3.68134e-06
-1.18972e-06
-3.91199e-06
-1.22999e-06
-4.16277e-06
-1.25994e-06
-4.42171e-06
-1.27119e-06
-4.66834e-06
-1.25465e-06
-4.87302e-06
-1.20207e-06
-4.99806e-06
-1.10809e-06
-5.0017e-06
-9.72599e-07
-4.84537e-06
-8.02465e-07
-4.50378e-06
-6.11829e-07
-3.97564e-06
-4.20144e-07
-3.29021e-06
-2.48227e-07
-2.50518e-06
-1.13886e-07
-1.69427e-06
-2.91176e-08
-9.29539e-07
-2.66091e-07
-5.62612e-07
4.38764e-07
-5.73379e-07
3.26516e-07
-5.84281e-07
2.13752e-07
-5.95324e-07
1.00561e-07
-6.06511e-07
-1.29669e-08
-6.17844e-07
-1.26743e-07
-6.29322e-07
-2.40682e-07
-6.40945e-07
-3.54702e-07
-6.52705e-07
-4.68728e-07
-6.64593e-07
-5.8269e-07
-6.76595e-07
-6.96523e-07
-6.88692e-07
-8.10166e-07
-7.00858e-07
-9.23562e-07
-7.13064e-07
-1.03665e-06
-7.25268e-07
-1.14937e-06
-7.37426e-07
-1.26166e-06
-7.49482e-07
-1.37343e-06
-7.61378e-07
-1.48459e-06
-7.73049e-07
-1.59504e-06
-7.8443e-07
-1.70466e-06
-7.9546e-07
-1.8133e-06
-8.06093e-07
-1.92083e-06
-8.16308e-07
-2.02712e-06
-8.26127e-07
-2.13207e-06
-8.35636e-07
-2.23569e-06
-8.45009e-07
-2.33812e-06
-8.54544e-07
-2.43972e-06
-8.64686e-07
-2.54121e-06
-8.7606e-07
-2.64379e-06
-8.89473e-07
-2.7493e-06
-9.05894e-07
-2.86032e-06
-9.26384e-07
-2.98031e-06
-9.51948e-07
-3.11351e-06
-9.83306e-07
-3.26472e-06
-1.02056e-06
-3.43868e-06
-1.06279e-06
-3.63911e-06
-1.10761e-06
-3.86717e-06
-1.15079e-06
-4.11959e-06
-1.1861e-06
-4.3864e-06
-1.20547e-06
-4.64898e-06
-1.19972e-06
-4.87877e-06
-1.15999e-06
-5.03778e-06
-1.0798e-06
-5.08189e-06
-9.57458e-07
-4.96771e-06
-7.98155e-07
-4.66309e-06
-6.14759e-07
-4.15903e-06
-4.26302e-07
-3.47866e-06
-2.54209e-07
-2.67727e-06
-1.17679e-07
-1.8308e-06
-3.0396e-08
-1.01682e-06
-2.96487e-07
-4.58285e-07
4.49259e-07
-4.68988e-07
3.37219e-07
-4.79907e-07
2.24671e-07
-4.91049e-07
1.11703e-07
-5.02418e-07
-1.59808e-09
-5.14016e-07
-1.15144e-07
-5.25845e-07
-2.28853e-07
-5.37902e-07
-3.42645e-07
-5.50181e-07
-4.56449e-07
-5.62673e-07
-5.70198e-07
-5.75364e-07
-6.83832e-07
-5.88237e-07
-7.97294e-07
-6.01266e-07
-9.10532e-07
-6.14422e-07
-1.02349e-06
-6.27665e-07
-1.13613e-06
-6.40952e-07
-1.24837e-06
-6.54228e-07
-1.36015e-06
-6.67433e-07
-1.47139e-06
-6.805e-07
-1.58198e-06
-6.93361e-07
-1.6918e-06
-7.05946e-07
-1.80071e-06
-7.18198e-07
-1.90858e-06
-7.30074e-07
-2.01524e-06
-7.41568e-07
-2.12058e-06
-7.52726e-07
-2.22454e-06
-7.63669e-07
-2.32717e-06
-7.74631e-07
-2.42875e-06
-7.8598e-07
-2.52986e-06
-7.98259e-07
-2.63151e-06
-8.12197e-07
-2.73536e-06
-8.28707e-07
-2.84381e-06
-8.48836e-07
-2.96018e-06
-8.73652e-07
-3.0887e-06
-9.04034e-07
-3.23434e-06
-9.40374e-07
-3.40234e-06
-9.82175e-07
-3.59731e-06
-1.0276e-06
-3.82175e-06
-1.07301e-06
-4.07417e-06
-1.11276e-06
-4.34665e-06
-1.13916e-06
-4.62258e-06
-1.14309e-06
-4.87483e-06
-1.11528e-06
-5.06559e-06
-1.04825e-06
-5.14892e-06
-9.3885e-07
-5.07711e-06
-7.90629e-07
-4.81131e-06
-6.15085e-07
-4.33458e-06
-4.30647e-07
-3.6631e-06
-2.59145e-07
-2.84877e-06
-1.21018e-07
-1.96893e-06
-3.15682e-08
-1.10627e-06
-3.28055e-07
-3.53116e-07
4.59586e-07
-3.63733e-07
3.47837e-07
-3.7465e-07
2.35588e-07
-3.85875e-07
1.22927e-07
-3.97411e-07
9.93865e-09
-4.09264e-07
-1.03292e-07
-4.21432e-07
-2.16684e-07
-4.33915e-07
-3.30163e-07
-4.46706e-07
-4.43658e-07
-4.59798e-07
-5.57107e-07
-4.73176e-07
-6.70454e-07
-4.86822e-07
-7.83647e-07
-5.00714e-07
-8.9664e-07
-5.14821e-07
-1.00939e-06