/*--------------------------------*- C++ -*----------------------------------*\
  =========                 |
  \\      /  F ield         | OpenFOAM: The Open Source CFD Toolbox
   \\    /   O peration     | Website:  https://openfoam.org
    \\  /    A nd           | Version:  9
     \\/     M anipulation  |
\*---------------------------------------------------------------------------*/
FoamFile
{
    format      ascii;
    class       volVectorField;
    location    "2";
    object      U;
}
// * * * * * * * * * * * * * * * * * * * * * * * * * * * * * * * * * * * * * //

dimensions      [0 1 -1 0 0 0 0];

internalField   nonuniform List<vector> 
1240
(
(-0.268655 -0.0192688 0)
(-0.269142 -0.030091 0)
(-0.269673 -0.0409368 0)
(-0.27026 -0.0518135 0)
(-0.27091 -0.06273 0)
(-0.257943 -0.0188093 0)
(-0.258415 -0.0295967 0)
(-0.258916 -0.0404008 0)
(-0.259453 -0.0512268 0)
(-0.260037 -0.0620811 0)
(-0.260677 -0.072973 0)
(-0.285429 -0.253555 0)
(-0.287104 -0.266947 0)
(-0.288083 -0.279993 0)
(-0.288062 -0.29235 0)
(-0.286696 -0.303583 0)
(-0.283613 -0.31316 0)
(-0.278438 -0.320471 0)
(-0.270825 -0.324854 0)
(-0.260496 -0.325636 0)
(-0.247288 -0.322197 0)
(-0.231194 -0.314048 0)
(-0.212404 -0.300909 0)
(-0.191321 -0.28279 0)
(-0.16856 -0.260046 0)
(-0.144905 -0.233388 0)
(-0.12124 -0.203844 0)
(-0.0984544 -0.172672 0)
(-0.0773465 -0.141222 0)
(-0.0585397 -0.110799 0)
(-0.0424359 -0.0825465 0)
(-0.0292078 -0.0573753 0)
(-0.0188245 -0.0359496 0)
(-0.0110971 -0.0187162 0)
(-0.00572642 -0.00596279 0)
(-0.0023428 0.00211411 0)
(-0.000551839 0.00534766 0)
(-2.71336e-06 0.00354676 0)
(-0.247704 -0.0183501 0)
(-0.248175 -0.0291191 0)
(-0.248658 -0.0398993 0)
(-0.249159 -0.0506938 0)
(-0.249685 -0.061507 0)
(-0.250248 -0.0723447 0)
(-0.25086 -0.0832155 0)
(-0.251538 -0.0941305 0)
(-0.252299 -0.105104 0)
(-0.253165 -0.116156 0)
(-0.254159 -0.127308 0)
(-0.255305 -0.13859 0)
(-0.256628 -0.150033 0)
(-0.258149 -0.161675 0)
(-0.259886 -0.173555 0)
(-0.261849 -0.185713 0)
(-0.264033 -0.198182 0)
(-0.266417 -0.210988 0)
(-0.268953 -0.224135 0)
(-0.271559 -0.237599 0)
(-0.274115 -0.251311 0)
(-0.276451 -0.265146 0)
(-0.278342 -0.278904 0)
(-0.279508 -0.292293 0)
(-0.279617 -0.304919 0)
(-0.278288 -0.316279 0)
(-0.275116 -0.325763 0)
(-0.269698 -0.332673 0)
(-0.26167 -0.336258 0)
(-0.250752 -0.335773 0)
(-0.236804 -0.330556 0)
(-0.219872 -0.320117 0)
(-0.200225 -0.304242 0)
(-0.178372 -0.283069 0)
(-0.155044 -0.257145 0)
(-0.131131 -0.227417 0)
(-0.107598 -0.195158 0)
(-0.085368 -0.161838 0)
(-0.0652188 -0.128959 0)
(-0.0477055 -0.0978986 0)
(-0.0331303 -0.0698008 0)
(-0.0215552 -0.0455289 0)
(-0.0128448 -0.0256797 0)
(-0.00672008 -0.0106411 0)
(-0.00280585 -0.000669136 0)
(-0.000690633 0.00403714 0)
(-1.57184e-05 0.00326588 0)
(-0.237903 -0.0178769 0)
(-0.238387 -0.0286442 0)
(-0.238866 -0.0394186 0)
(-0.239344 -0.0502011 0)
(-0.239828 -0.0609937 0)
(-0.240328 -0.0717997 0)
(-0.240854 -0.0826247 0)
(-0.241422 -0.0934768 0)
(-0.24205 -0.104368 0)
(-0.242758 -0.115314 0)
(-0.243571 -0.126336 0)
(-0.244514 -0.13746 0)
(-0.245617 -0.14872 0)
(-0.246908 -0.160154 0)
(-0.248414 -0.171805 0)
(-0.250158 -0.183722 0)
(-0.252155 -0.195953 0)
(-0.254404 -0.208541 0)
(-0.256885 -0.221519 0)
(-0.259551 -0.234897 0)
(-0.262317 -0.24865 0)
(-0.265051 -0.262703 0)
(-0.26757 -0.276915 0)
(-0.269627 -0.291053 0)
(-0.270915 -0.304779 0)
(-0.271066 -0.317636 0)
(-0.269665 -0.329038 0)
(-0.266274 -0.338284 0)
(-0.260461 -0.344574 0)
(-0.25185 -0.347066 0)
(-0.240175 -0.344944 0)
(-0.225335 -0.337517 0)
(-0.207449 -0.324329 0)
(-0.18689 -0.305271 0)
(-0.164293 -0.280671 0)
(-0.140515 -0.251323 0)
(-0.116554 -0.218456 0)
(-0.0934354 -0.183608 0)
(-0.0720854 -0.148457 0)
(-0.0532229 -0.114623 0)
(-0.0373005 -0.0835103 0)
(-0.024496 -0.0562208 0)
(-0.0147483 -0.0335397 0)
(-0.00781376 -0.0159866 0)
(-0.00332113 -0.00389857 0)
(-0.000847403 0.00248042 0)
(-3.11243e-05 0.0029122 0)
(-0.228479 -0.0173781 0)
(-0.228986 -0.028159 0)
(-0.229473 -0.0389444 0)
(-0.229943 -0.0497333 0)
(-0.230402 -0.0605252 0)
(-0.230856 -0.0713209 0)
(-0.231315 -0.0821231 0)
(-0.231793 -0.0929369 0)
(-0.232306 -0.103771 0)
(-0.232874 -0.114637 0)
(-0.233519 -0.125554 0)
(-0.234268 -0.136545 0)
(-0.235153 -0.147641 0)
(-0.236204 -0.158879 0)
(-0.237455 -0.170305 0)
(-0.238938 -0.181972 0)
(-0.240682 -0.193935 0)
(-0.242705 -0.206255 0)
(-0.24501 -0.218982 0)
(-0.247581 -0.232159 0)
(-0.250365 -0.2458 0)
(-0.253273 -0.259879 0)
(-0.256162 -0.274311 0)
(-0.258828 -0.288927 0)
(-0.261 -0.303457 0)
(-0.262336 -0.317503 0)
(-0.262434 -0.330529 0)
(-0.260839 -0.341854 0)
(-0.257078 -0.350664 0)
(-0.250701 -0.356052 0)
(-0.241328 -0.357078 0)
(-0.22872 -0.352866 0)
(-0.21284 -0.342722 0)
(-0.193906 -0.32627 0)
(-0.172422 -0.303569 0)
(-0.149164 -0.275199 0)
(-0.125125 -0.242268 0)
(-0.101395 -0.206322 0)
(-0.0790316 -0.169172 0)
(-0.0589204 -0.132673 0)
(-0.0416804 -0.0985117 0)
(-0.0276284 -0.0680645 0)
(-0.0168004 -0.0423477 0)
(-0.00900556 -0.0220493 0)
(-0.00388867 -0.00761453 0)
(-0.00102248 0.000651456 0)
(-4.90487e-05 0.00247645 0)
(-0.219352 -0.0168444 0)
(-0.219891 -0.0276523 0)
(-0.220398 -0.0384635 0)
(-0.220873 -0.0492749 0)
(-0.221322 -0.0600839 0)
(-0.221748 -0.0708889 0)
(-0.222162 -0.0816897 0)
(-0.222573 -0.0924885 0)
(-0.222995 -0.10329 0)
(-0.223447 -0.114104 0)
(-0.223949 -0.124944 0)
(-0.224527 -0.135829 0)
(-0.22521 -0.146787 0)
(-0.226033 -0.157854 0)
(-0.22703 -0.169072 0)
(-0.228241 -0.180496 0)
(-0.229702 -0.192187 0)
(-0.231446 -0.204212 0)
(-0.233496 -0.216641 0)
(-0.235859 -0.229538 0)
(-0.238516 -0.24295 0)
(-0.241415 -0.256897 0)
(-0.244454 -0.271347 0)
(-0.247475 -0.286197 0)
(-0.250252 -0.301248 0)
(-0.252482 -0.316176 0)
(-0.253787 -0.330508 0)
(-0.253721 -0.343611 0)
(-0.251792 -0.354687 0)
(-0.247495 -0.3628 0)
(-0.240365 -0.36692 0)
(-0.230038 -0.366016 0)
(-0.216323 -0.359171 0)
(-0.199273 -0.345733 0)
(-0.179236 -0.325464 0)
(-0.156871 -0.298672 0)
(-0.133114 -0.266267 0)
(-0.109082 -0.229727 0)
(-0.0859358 -0.19094 0)
(-0.0647171 -0.151967 0)
(-0.0462222 -0.114786 0)
(-0.0309278 -0.0810824 0)
(-0.0189901 -0.0521458 0)
(-0.0102918 -0.028875 0)
(-0.00450793 -0.0118558 0)
(-0.0012161 -0.00147553 0)
(-6.96254e-05 0.00194923 0)
(-0.209821 -0.00543052 0)
(-0.210439 -0.0162696 0)
(-0.211017 -0.0271156 0)
(-0.211551 -0.0379645 0)
(-0.212044 -0.0488117 0)
(-0.212497 -0.0596526 0)
(-0.212914 -0.0704835 0)
(-0.213302 -0.0813016 0)
(-0.213669 -0.0921063 0)
(-0.214028 -0.102899 0)
(-0.214393 -0.113686 0)
(-0.214782 -0.124477 0)
(-0.215219 -0.135286 0)
(-0.215732 -0.146138 0)
(-0.216352 -0.157062 0)
(-0.217115 -0.1681 0)
(-0.218064 -0.179303 0)
(-0.21924 -0.190733 0)
(-0.220685 -0.202462 0)
(-0.222437 -0.21457 0)
(-0.224523 -0.227138 0)
(-0.226951 -0.240241 0)
(-0.229701 -0.253935 0)
(-0.232714 -0.26824 0)
(-0.235876 -0.283115 0)
(-0.239009 -0.298431 0)
(-0.241857 -0.313945 0)
(-0.244081 -0.329262 0)
(-0.24526 -0.343818 0)
(-0.244904 -0.35686 0)
(-0.242481 -0.367453 0)
(-0.23746 -0.37452 0)
(-0.229375 -0.376908 0)
(-0.217895 -0.373506 0)
(-0.202909 -0.363394 0)
(-0.184593 -0.346022 0)
(-0.163457 -0.321378 0)
(-0.140338 -0.290109 0)
(-0.116333 -0.253538 0)
(-0.0926668 -0.213556 0)
(-0.0705209 -0.172386 0)
(-0.0508683 -0.132287 0)
(-0.0343623 -0.095277 0)
(-0.0213025 -0.0629643 0)
(-0.0116669 -0.0365034 0)
(-0.00517749 -0.0166588 0)
(-0.00142832 -0.00392578 0)
(-9.30022e-05 0.00132097 0)
(-0.200992 -0.00476667 0)
(-0.201659 -0.0156501 0)
(-0.202279 -0.0265425 0)
(-0.202848 -0.0374384 0)
(-0.203367 -0.0483316 0)
(-0.203837 -0.059216 0)
(-0.204261 -0.0700859 0)
(-0.204643 -0.0809366 0)
(-0.20499 -0.0917649 0)
(-0.205312 -0.10257 0)
(-0.205619 -0.113353 0)
(-0.205929 -0.12412 0)
(-0.20626 -0.134883 0)
(-0.206637 -0.145659 0)
(-0.207089 -0.156473 0)
(-0.207653 -0.167363 0)
(-0.208367 -0.178375 0)
(-0.209276 -0.189569 0)
(-0.210429 -0.201018 0)
(-0.211872 -0.212805 0)
(-0.213646 -0.225025 0)
(-0.215783 -0.237771 0)
(-0.21829 -0.251131 0)
(-0.221144 -0.265166 0)
(-0.224275 -0.279892 0)
(-0.227554 -0.295253 0)
(-0.230775 -0.311084 0)
(-0.233647 -0.327079 0)
(-0.235788 -0.342757 0)
(-0.23673 -0.357434 0)
(-0.235935 -0.370212 0)
(-0.232833 -0.380001 0)
(-0.22688 -0.385568 0)
(-0.217624 -0.385643 0)
(-0.2048 -0.379062 0)
(-0.188407 -0.364964 0)
(-0.168784 -0.342987 0)
(-0.146634 -0.313452 0)
(-0.122988 -0.277448 0)
(-0.0990904 -0.236782 0)
(-0.0762314 -0.193774 0)
(-0.0555526 -0.150935 0)
(-0.0378934 -0.110629 0)
(-0.0237181 -0.0748194 0)
(-0.0131226 -0.0449665 0)
(-0.00589499 -0.0220564 0)
(-0.00165895 -0.00672354 0)
(-0.000119301 0.000582118 0)
(-0.189792 0.0286253 0)
(-0.190646 0.0177586 0)
(-0.191458 0.00686511 0)
(-0.192223 -0.00405108 0)
(-0.192939 -0.0149844 0)
(-0.193602 -0.025929 0)
(-0.19421 -0.0368781 0)
(-0.194763 -0.0478244 0)
(-0.195261 -0.0587605 0)
(-0.195705 -0.0696793 0)
(-0.196099 -0.0805742 0)
(-0.196447 -0.09144 0)
(-0.196755 -0.102273 0)
(-0.197034 -0.113072 0)
(-0.197296 -0.123839 0)
(-0.197557 -0.134581 0)
(-0.197837 -0.145311 0)
(-0.198162 -0.15605 0)
(-0.198565 -0.166826 0)
(-0.199083 -0.177683 0)
(-0.199761 -0.188674 0)
(-0.200646 -0.19987 0)
(-0.201793 -0.211356 0)
(-0.203252 -0.223229 0)
(-0.205069 -0.235599 0)
(-0.207276 -0.248574 0)
(-0.209882 -0.262252 0)
(-0.212854 -0.276699 0)
(-0.21611 -0.291921 0)
(-0.219497 -0.307835 0)
(-0.222776 -0.324226 0)
(-0.225614 -0.340707 0)
(-0.227578 -0.35668 0)
(-0.228147 -0.371314 0)
(-0.226737 -0.383542 0)
(-0.222748 -0.392094 0)
(-0.215635 -0.395579 0)
(-0.204991 -0.392627 0)
(-0.190648 -0.382077 0)
(-0.172763 -0.36321 0)
(-0.151875 -0.335973 0)
(-0.128905 -0.301144 0)
(-0.105075 -0.260355 0)
(-0.0817439 -0.215942 0)
(-0.0602018 -0.17062 0)
(-0.0414764 -0.127093 0)
(-0.0262129 -0.0877114 0)
(-0.0146483 -0.0542872 0)
(-0.00665686 -0.0280771 0)
(-0.00190742 -0.00989145 0)
(-0.000148614 -0.000276767 0)
(-0.18087 0.0295264 0)
(-0.181778 0.0186189 0)
(-0.182641 0.00767968 0)
(-0.183455 -0.00328626 0)
(-0.184217 -0.0142727 0)
(-0.184924 -0.0252728 0)
(-0.185573 -0.0362789 0)
(-0.186165 -0.0472826 0)
(-0.186699 -0.0582755 0)
(-0.187174 -0.0692495 0)
(-0.187594 -0.0801967 0)
(-0.187961 -0.09111 0)
(-0.188279 -0.101984 0)
(-0.188555 -0.112814 0)
(-0.188799 -0.1236 0)
(-0.189023 -0.134345 0)
(-0.189244 -0.145056 0)
(-0.189483 -0.155748 0)
(-0.189769 -0.166446 0)
(-0.190135 -0.177184 0)
(-0.190623 -0.18801 0)
(-0.19128 -0.19899 0)
(-0.192161 -0.210204 0)
(-0.193322 -0.221753 0)
(-0.194821 -0.233749 0)
(-0.196707 -0.24632 0)
(-0.199011 -0.259588 0)
(-0.201738 -0.273661 0)
(-0.204845 -0.288603 0)
(-0.208231 -0.304406 0)
(-0.211711 -0.320944 0)
(-0.215006 -0.33793 0)
(-0.217733 -0.354868 0)
(-0.219401 -0.371016 0)
(-0.219434 -0.385362 0)
(-0.217204 -0.396638 0)
(-0.212094 -0.403381 0)
(-0.203583 -0.404052 0)
(-0.191344 -0.397221 0)
(-0.175352 -0.381815 0)
(-0.155967 -0.35738 0)
(-0.133966 -0.32432 0)
(-0.110499 -0.284 0)
(-0.0869539 -0.238678 0)
(-0.0647385 -0.191206 0)
(-0.045061 -0.144602 0)
(-0.0287589 -0.101623 0)
(-0.0162307 -0.0644774 0)
(-0.00745823 -0.0347439 0)
(-0.00217279 -0.0134499 0)
(-0.000180986 -0.00126479 0)
(-0.171918 0.0304786 0)
(-0.172872 0.0195281 0)
(-0.173779 0.00854142 0)
(-0.174637 -0.0024758 0)
(-0.175442 -0.0135166 0)
(-0.176192 -0.0245734 0)
(-0.176885 -0.0356376 0)
(-0.177519 -0.0467003 0)
(-0.178094 -0.0577525 0)
(-0.17861 -0.068785 0)
(-0.179067 -0.0797892 0)
(-0.179468 -0.0907566 0)
(-0.179814 -0.10168 0)
(-0.18011 -0.112554 0)
(-0.180362 -0.123373 0)
(-0.18058 -0.134139 0)
(-0.180776 -0.144854 0)
(-0.180969 -0.155527 0)
(-0.18118 -0.166177 0)
(-0.18144 -0.176832 0)
(-0.181785 -0.187533 0)
(-0.18226 -0.198336 0)
(-0.182917 -0.209318 0)
(-0.183816 -0.220573 0)
(-0.185019 -0.232219 0)
(-0.186586 -0.244388 0)
(-0.18857 -0.257223 0)
(-0.191 -0.270864 0)
(-0.193873 -0.285425 0)
(-0.197132 -0.300962 0)
(-0.200646 -0.317437 0)
(-0.204195 -0.334664 0)
(-0.207447 -0.352256 0)
(-0.209961 -0.369577 0)
(-0.211184 -0.385699 0)
(-0.210483 -0.399394 0)
(-0.207198 -0.409171 0)
(-0.200713 -0.413367 0)
(-0.190566 -0.410324 0)
(-0.176558 -0.398632 0)
(-0.15886 -0.377428 0)
(-0.13808 -0.34669 0)
(-0.115258 -0.307438 0)
(-0.0917623 -0.261749 0)
(-0.0690838 -0.212528 0)
(-0.0485933 -0.163062 0)
(-0.0313242 -0.116517 0)
(-0.0178539 -0.0755368 0)
(-0.00829291 -0.0420728 0)
(-0.00245366 -0.0174166 0)
(-0.000216402 -0.00239054 0)
(-0.162899 0.0314731 0)
(-0.16389 0.0204789 0)
(-0.164836 0.0094445 0)
(-0.165732 -0.0016238 0)
(-0.166577 -0.0127184 0)
(-0.167369 -0.023831 0)
(-0.168104 -0.0349526 0)
(-0.168783 -0.0460738 0)
(-0.169404 -0.0571852 0)
(-0.169967 -0.068277 0)
(-0.170471 -0.0793399 0)
(-0.170916 -0.0903648 0)
(-0.171305 -0.101343 0)
(-0.171639 -0.112267 0)
(-0.171923 -0.123131 0)
(-0.172161 -0.133932 0)
(-0.172365 -0.144669 0)
(-0.172546 -0.155347 0)
(-0.172723 -0.165977 0)
(-0.17292 -0.176582 0)
(-0.173169 -0.187194 0)
(-0.17351 -0.197861 0)
(-0.173993 -0.208652 0)
(-0.174673 -0.219656 0)
(-0.175617 -0.230984 0)
(-0.17689 -0.242773 0)
(-0.178559 -0.255177 0)
(-0.180674 -0.268359 0)
(-0.183263 -0.282471 0)
(-0.186308 -0.297629 0)
(-0.18973 -0.313872 0)
(-0.193363 -0.331113 0)
(-0.196937 -0.349077 0)
(-0.200064 -0.367246 0)
(-0.202231 -0.384799 0)
(-0.202822 -0.400581 0)
(-0.201154 -0.413113 0)
(-0.196548 -0.420659 0)
(-0.188426 -0.421377 0)
(-0.176429 -0.413554 0)
(-0.160543 -0.395922 0)
(-0.14119 -0.368004 0)
(-0.119268 -0.3304 0)
(-0.0960802 -0.284914 0)
(-0.0731611 -0.234403 0)
(-0.0520175 -0.182359 0)
(-0.0338741 -0.132339 0)
(-0.0194996 -0.087452 0)
(-0.0091534 -0.0500724 0)
(-0.00274815 -0.0218055 0)
(-0.000254779 -0.00366178 0)
(-0.153785 0.0325015 0)
(-0.154806 0.0214642 0)
(-0.155783 0.0103832 0)
(-0.156714 -0.000734486 0)
(-0.157595 -0.0118808 0)
(-0.158426 -0.0230468 0)
(-0.159204 -0.0342234 0)
(-0.159928 -0.0454008 0)
(-0.160598 -0.0565692 0)
(-0.161212 -0.0677189 0)
(-0.161769 -0.07884 0)
(-0.162269 -0.0899228 0)
(-0.162712 -0.100958 0)
(-0.163099 -0.111937 0)
(-0.163432 -0.122852 0)
(-0.163713 -0.133698 0)
(-0.16395 -0.144471 0)
(-0.164151 -0.155171 0)
(-0.164329 -0.165805 0)
(-0.164504 -0.176388 0)
(-0.164703 -0.186945 0)
(-0.164959 -0.197516 0)
(-0.165316 -0.208159 0)
(-0.165828 -0.218954 0)
(-0.166559 -0.230007 0)
(-0.167577 -0.241451 0)
(-0.168955 -0.253444 0)
(-0.170761 -0.266164 0)
(-0.173045 -0.279793 0)
(-0.175824 -0.294495 0)
(-0.179063 -0.310377 0)
(-0.182651 -0.327444 0)
(-0.186378 -0.345535 0)
(-0.189913 -0.364253 0)
(-0.192797 -0.382901 0)
(-0.194446 -0.400426 0)
(-0.194177 -0.4154 0)
(-0.191271 -0.42606 0)
(-0.185061 -0.430429 0)
(-0.175049 -0.426533 0)
(-0.161042 -0.412722 0)
(-0.143272 -0.388047 0)
(-0.122468 -0.352639 0)
(-0.0998333 -0.307933 0)
(-0.0768998 -0.256635 0)
(-0.0552784 -0.202358 0)
(-0.0363723 -0.149015 0)
(-0.021148 -0.100196 0)
(-0.010031 -0.0587426 0)
(-0.00305395 -0.0266265 0)
(-0.000295964 -0.00508529 0)
(-0.144555 0.033556 0)
(-0.1456 0.0224773 0)
(-0.146604 0.0113522 0)
(-0.147563 0.000188069 0)
(-0.148478 -0.0110065 0)
(-0.149346 -0.0222224 0)
(-0.150165 -0.0334501 0)
(-0.150935 -0.0446799 0)
(-0.151655 -0.0559019 0)
(-0.152323 -0.0671061 0)
(-0.152938 -0.0782826 0)
(-0.1535 -0.0894216 0)
(-0.154006 -0.100513 0)
(-0.154458 -0.111548 0)
(-0.154854 -0.122518 0)
(-0.155196 -0.133415 0)
(-0.155487 -0.144233 0)
(-0.155733 -0.154969 0)
(-0.155944 -0.165625 0)
(-0.156133 -0.17621 0)
(-0.156321 -0.186742 0)
(-0.156537 -0.197251 0)
(-0.156819 -0.207786 0)
(-0.157214 -0.218417 0)
(-0.157782 -0.229241 0)
(-0.158591 -0.240382 0)
(-0.159718 -0.251998 0)
(-0.161238 -0.264274 0)
(-0.163221 -0.277412 0)
(-0.165711 -0.291613 0)
(-0.168712 -0.307043 0)
(-0.17216 -0.32379 0)
(-0.175904 -0.3418 0)
(-0.179676 -0.360801 0)
(-0.183074 -0.38023 0)
(-0.185559 -0.399156 0)
(-0.186469 -0.416238 0)
(-0.185069 -0.429731 0)
(-0.180626 -0.437572 0)
(-0.172527 -0.437576 0)
(-0.160414 -0.42774 0)
(-0.144332 -0.406654 0)
(-0.124826 -0.373936 0)
(-0.102965 -0.330574 0)
(-0.0802381 -0.279019 0)
(-0.0583236 -0.222908 0)
(-0.0387821 -0.166456 0)
(-0.0227778 -0.113728 0)
(-0.0109162 -0.0680746 0)
(-0.00336831 -0.031885 0)
(-0.000339727 -0.0066666 0)
(-0.135198 0.0346298 0)
(-0.136261 0.0235126 0)
(-0.137286 0.0123467 0)
(-0.138271 0.00114012 0)
(-0.139216 -0.0100984 0)
(-0.140118 -0.0213595 0)
(-0.140978 -0.0326335 0)
(-0.141794 -0.0439108 0)
(-0.142564 -0.0551814 0)
(-0.143288 -0.0664355 0)
(-0.143965 -0.0776632 0)
(-0.144592 -0.0888548 0)
(-0.145168 -0.1 0)
(-0.145693 -0.11109 0)
(-0.146163 -0.122115 0)
(-0.14658 -0.133065 0)
(-0.146943 -0.143934 0)
(-0.147256 -0.154715 0)
(-0.147525 -0.165407 0)
(-0.147758 -0.176013 0)
(-0.147972 -0.186543 0)
(-0.148188 -0.197021 0)
(-0.148439 -0.207486 0)
(-0.148766 -0.217995 0)
(-0.149223 -0.228634 0)
(-0.149874 -0.23952 0)
(-0.150796 -0.250802 0)
(-0.152069 -0.262666 0)
(-0.153774 -0.275325 0)
(-0.155976 -0.289008 0)
(-0.158709 -0.303929 0)
(-0.161956 -0.320248 0)
(-0.165617 -0.338008 0)
(-0.169485 -0.357063 0)
(-0.173222 -0.376987 0)
(-0.176342 -0.396988 0)
(-0.178222 -0.415838 0)
(-0.178126 -0.431852 0)
(-0.175284 -0.442933 0)
(-0.168989 -0.446733 0)
(-0.158743 -0.440942 0)
(-0.144406 -0.423704 0)
(-0.126334 -0.394105 0)
(-0.105437 -0.352623 0)
(-0.083126 -0.301353 0)
(-0.0611058 -0.24385 0)
(-0.041068 -0.184556 0)
(-0.0243673 -0.127994 0)
(-0.0117987 -0.0780501 0)
(-0.00368815 -0.0375813 0)
(-0.000385765 -0.00840976 0)
(-0.125708 0.0357167 0)
(-0.126783 0.0245648 0)
(-0.127825 0.0133626 0)
(-0.128833 0.00211837 0)
(-0.129805 -0.00915888 0)
(-0.13074 -0.0204597 0)
(-0.131639 -0.0317744 0)
(-0.132499 -0.0430934 0)
(-0.133321 -0.0544069 0)
(-0.134102 -0.0657052 0)
(-0.134842 -0.0769787 0)
(-0.135538 -0.0882178 0)
(-0.136189 -0.0994127 0)
(-0.136792 -0.110554 0)
(-0.137345 -0.121631 0)
(-0.137846 -0.132635 0)
(-0.138295 -0.143557 0)
(-0.138692 -0.154388 0)
(-0.139038 -0.165125 0)
(-0.139341 -0.175765 0)
(-0.13961 -0.186313 0)
(-0.139863 -0.196786 0)
(-0.140124 -0.207211 0)
(-0.140429 -0.217637 0)
(-0.140824 -0.228136 0)
(-0.141369 -0.238814 0)
(-0.142137 -0.249809 0)
(-0.143208 -0.261303 0)
(-0.144669 -0.273512 0)
(-0.146602 -0.286682 0)
(-0.149065 -0.301066 0)
(-0.152076 -0.316882 0)
(-0.155585 -0.334264 0)
(-0.159442 -0.353181 0)
(-0.163372 -0.373347 0)
(-0.166952 -0.394118 0)
(-0.169603 -0.414404 0)
(-0.170615 -0.432613 0)
(-0.169197 -0.44666 0)
(-0.164575 -0.45409 0)
(-0.156128 -0.452334 0)
(-0.143551 -0.439119 0)
(-0.127007 -0.413 0)
(-0.107233 -0.373892 0)
(-0.0855271 -0.323444 0)
(-0.0635848 -0.26502 0)
(-0.0431971 -0.2032 0)
(-0.0258951 -0.142929 0)
(-0.0126677 -0.088642 0)
(-0.0040101 -0.0437103 0)
(-0.000433709 -0.0103172 0)
(-0.116083 0.0368117 0)
(-0.117166 0.0256297 0)
(-0.118222 0.0143963 0)
(-0.119248 0.00311992 0)
(-0.120245 -0.00819027 0)
(-0.121212 -0.0195248 0)
(-0.122148 -0.0308739 0)
(-0.123053 -0.0422282 0)
(-0.123925 -0.053578 0)
(-0.124764 -0.0649141 0)
(-0.125568 -0.0762271 0)
(-0.126335 -0.0875077 0)
(-0.127063 -0.0987464 0)
(-0.127749 -0.109934 0)
(-0.128391 -0.12106 0)
(-0.128985 -0.132114 0)
(-0.129529 -0.143088 0)
(-0.130022 -0.153972 0)
(-0.130463 -0.164758 0)
(-0.130855 -0.175441 0)
(-0.131205 -0.186022 0)
(-0.131523 -0.196509 0)
(-0.13183 -0.206922 0)
(-0.132153 -0.217298 0)
(-0.132533 -0.227697 0)
(-0.133021 -0.238212 0)
(-0.133685 -0.248969 0)
(-0.134604 -0.260139 0)
(-0.135867 -0.271938 0)
(-0.137562 -0.284619 0)
(-0.139769 -0.29846 0)
(-0.142534 -0.31373 0)
(-0.145848 -0.330639 0)
(-0.149617 -0.349265 0)
(-0.153626 -0.369456 0)
(-0.157515 -0.390722 0)
(-0.160763 -0.412128 0)
(-0.162694 -0.432202 0)
(-0.16252 -0.448917 0)
(-0.159423 -0.459761 0)
(-0.152682 -0.46196 0)
(-0.141841 -0.452866 0)
(-0.126881 -0.430511 0)
(-0.108353 -0.394218 0)
(-0.0874193 -0.34511 0)
(-0.0657293 -0.286252 0)
(-0.0451403 -0.222265 0)
(-0.0273411 -0.158456 0)
(-0.0135126 -0.0998143 0)
(-0.00433062 -0.0502618 0)
(-0.000483126 -0.0123898 0)
(-0.106325 0.0379104 0)
(-0.107412 0.0267037 0)
(-0.108478 0.0154448 0)
(-0.109521 0.00414228 0)
(-0.110541 -0.00719451 0)
(-0.111537 -0.0185561 0)
(-0.11251 -0.0299329 0)
(-0.113458 -0.0413156 0)
(-0.114381 -0.0526949 0)
(-0.115278 -0.0640617 0)
(-0.116147 -0.0754072 0)
(-0.116986 -0.0867224 0)
(-0.117793 -0.0979983 0)
(-0.118565 -0.109226 0)
(-0.119299 -0.120395 0)
(-0.119991 -0.131496 0)
(-0.120638 -0.142519 0)
(-0.121236 -0.153454 0)
(-0.121784 -0.164291 0)
(-0.122282 -0.175023 0)
(-0.122732 -0.185646 0)
(-0.123141 -0.196162 0)
(-0.123523 -0.206583 0)
(-0.1239 -0.216937 0)
(-0.124305 -0.227272 0)
(-0.124782 -0.237665 0)
(-0.125392 -0.248231 0)
(-0.12621 -0.259127 0)
(-0.127321 -0.27056 0)
(-0.128821 -0.282787 0)
(-0.130799 -0.2961 0)
(-0.133326 -0.310806 0)
(-0.136427 -0.327181 0)
(-0.140056 -0.345397 0)
(-0.144056 -0.365432 0)
(-0.148132 -0.386951 0)
(-0.151824 -0.409181 0)
(-0.154503 -0.4308 0)
(-0.155399 -0.449871 0)
(-0.153671 -0.463877 0)
(-0.148522 -0.469893 0)
(-0.139365 -0.464945 0)
(-0.126008 -0.446565 0)
(-0.108816 -0.413469 0)
(-0.088795 -0.366189 0)
(-0.0675173 -0.307389 0)
(-0.0468738 -0.241624 0)
(-0.0286869 -0.174493 0)
(-0.0143231 -0.111524 0)
(-0.0046461 -0.0572204 0)
(-0.000533535 -0.0146262 0)
(-0.0964366 0.0390091 0)
(-0.0975259 0.0277836 0)
(-0.0985993 0.0165054 0)
(-0.0996565 0.00518335 0)
(-0.100698 -0.00617329 0)
(-0.101722 -0.017555 0)
(-0.10273 -0.0289524 0)
(-0.103721 -0.0403563 0)
(-0.104694 -0.0517577 0)
(-0.105649 -0.0631479 0)
(-0.106583 -0.0745184 0)
(-0.107495 -0.0858608 0)
(-0.108382 -0.0971666 0)
(-0.109242 -0.108427 0)
(-0.110071 -0.119633 0)
(-0.110865 -0.130775 0)
(-0.11162 -0.141843 0)
(-0.112331 -0.152825 0)
(-0.112995 -0.163712 0)
(-0.11361 -0.174494 0)
(-0.114175 -0.185164 0)
(-0.114695 -0.195719 0)
(-0.115177 -0.206164 0)
(-0.115638 -0.216518 0)
(-0.116103 -0.226818 0)
(-0.116611 -0.237127 0)
(-0.117213 -0.247546 0)
(-0.117978 -0.258216 0)
(-0.118988 -0.269333 0)
(-0.120338 -0.281148 0)
(-0.122125 -0.293962 0)
(-0.124436 -0.308107 0)
(-0.127325 -0.323912 0)
(-0.130785 -0.341633 0)
(-0.134716 -0.361368 0)
(-0.138882 -0.382931 0)
(-0.142888 -0.405718 0)
(-0.146161 -0.428573 0)
(-0.147963 -0.449686 0)
(-0.147448 -0.466579 0)
(-0.143765 -0.476228 0)
(-0.136218 -0.475387 0)
(-0.124454 -0.461123 0)
(-0.108655 -0.431543 0)
(-0.0896597 -0.386539 0)
(-0.0689373 -0.328282 0)
(-0.0483796 -0.261148 0)
(-0.0299168 -0.19095 0)
(-0.0150897 -0.12372 0)
(-0.004953 -0.0645656 0)
(-0.000584418 -0.0170236 0)
(-0.0864254 0.0401049 0)
(-0.0875134 0.0288669 0)
(-0.0885923 0.0175761 0)
(-0.089662 0.00624131 0)
(-0.0907227 -0.00512808 0)
(-0.0917743 -0.0165227 0)
(-0.0928167 -0.0279332 0)
(-0.0938497 -0.0393508 0)
(-0.0948725 -0.0507667 0)
(-0.0958843 -0.0621725 0)
(-0.0968838 -0.0735604 0)
(-0.0978689 -0.0849223 0)
(-0.0988375 -0.0962502 0)
(-0.0997864 -0.107536 0)
(-0.100712 -0.118772 0)
(-0.10161 -0.129947 0)
(-0.102476 -0.141053 0)
(-0.103305 -0.152078 0)
(-0.104092 -0.163012 0)
(-0.104834 -0.173843 0)
(-0.105527 -0.184561 0)
(-0.106172 -0.19516 0)
(-0.106774 -0.205641 0)
(-0.107343 -0.216012 0)
(-0.1079 -0.2263 0)
(-0.108474 -0.236558 0)
(-0.10911 -0.246868 0)
(-0.109868 -0.257357 0)
(-0.110826 -0.268207 0)
(-0.112073 -0.279657 0)
(-0.113712 -0.29201 0)
(-0.115839 -0.305614 0)
(-0.11853 -0.320836 0)
(-0.121814 -0.338006 0)
(-0.125636 -0.357328 0)
(-0.129821 -0.37876 0)
(-0.134037 -0.401869 0)
(-0.13777 -0.425675 0)
(-0.140327 -0.448521 0)
(-0.140874 -0.46801 0)
(-0.138526 -0.481074 0)
(-0.132496 -0.484246 0)
(-0.122291 -0.474175 0)
(-0.107915 -0.448367 0)
(-0.0900315 -0.406043 0)
(-0.0699873 -0.348794 0)
(-0.0496459 -0.280715 0)
(-0.0310181 -0.207734 0)
(-0.0158039 -0.136347 0)
(-0.00524794 -0.0722727 0)
(-0.000635238 -0.0195772 0)
(-0.0762982 0.0411948 0)
(-0.0773824 0.0299512 0)
(-0.0784646 0.0186547 0)
(-0.079545 0.00731449 0)
(-0.0806239 -0.00406022 0)
(-0.0817013 -0.0154602 0)
(-0.0827773 -0.0268762 0)
(-0.0838516 -0.0382997 0)
(-0.0849237 -0.0497222 0)
(-0.0859927 -0.0611359 0)
(-0.0870574 -0.072533 0)
(-0.0881159 -0.0839063 0)
(-0.089166 -0.0952484 0)
(-0.0902047 -0.106552 0)
(-0.0912282 -0.117809 0)
(-0.0922324 -0.12901 0)
(-0.0932123 -0.140147 0)
(-0.0941624 -0.151208 0)
(-0.0950774 -0.162183 0)
(-0.0959519 -0.173059 0)
(-0.0967818 -0.183825 0)
(-0.0975648 -0.194472 0)
(-0.0983022 -0.204993 0)
(-0.0990003 -0.215393 0)
(-0.099673 -0.225689 0)
(-0.100344 -0.23592 0)
(-0.10105 -0.246155 0)
(-0.101844 -0.256505 0)
(-0.102794 -0.267134 0)
(-0.103988 -0.278268 0)
(-0.105524 -0.290204 0)
(-0.107506 -0.303296 0)
(-0.110026 -0.317943 0)
(-0.11314 -0.33453 0)
(-0.116834 -0.353357 0)
(-0.120987 -0.374516 0)
(-0.12533 -0.397741 0)
(-0.129411 -0.422237 0)
(-0.13259 -0.446521 0)
(-0.134056 -0.468311 0)
(-0.13291 -0.484547 0)
(-0.128296 -0.491596 0)
(-0.119596 -0.485734 0)
(-0.106648 -0.463896 0)
(-0.0899379 -0.424604 0)
(-0.0706746 -0.368807 0)
(-0.0506677 -0.300207 0)
(-0.0319819 -0.224753 0)
(-0.0164588 -0.149346 0)
(-0.00552785 -0.0803134 0)
(-0.000685454 -0.0222808 0)
(-0.0660626 0.0422763 0)
(-0.0671407 0.0310341 0)
(-0.0682244 0.0197395 0)
(-0.0693138 0.00840139 0)
(-0.0704095 -0.00297096 0)
(-0.0715117 -0.0143684 0)
(-0.0726203 -0.0257821 0)
(-0.0737353 -0.0372036 0)
(-0.0748562 -0.0486247 0)
(-0.0759821 -0.0600381 0)
(-0.0771119 -0.0714364 0)
(-0.0782438 -0.0828128 0)
(-0.0793757 -0.0941607 0)
(-0.0805045 -0.105473 0)
(-0.0816267 -0.116743 0)
(-0.082738 -0.127962 0)
(-0.0838334 -0.139122 0)
(-0.0849071 -0.150212 0)
(-0.0859533 -0.161222 0)
(-0.0869658 -0.172138 0)
(-0.0879391 -0.182948 0)
(-0.0888691 -0.19364 0)
(-0.0897543 -0.204205 0)
(-0.0905972 -0.214641 0)
(-0.0914069 -0.224958 0)
(-0.092201 -0.235182 0)
(-0.0930092 -0.24537 0)
(-0.0938755 -0.255617 0)
(-0.0948615 -0.266068 0)
(-0.0960464 -0.276934 0)
(-0.0975262 -0.288499 0)
(-0.0994062 -0.301119 0)
(-0.101789 -0.315209 0)
(-0.104751 -0.331203 0)
(-0.108314 -0.34948 0)
(-0.112404 -0.370255 0)
(-0.116812 -0.393422 0)
(-0.12115 -0.418375 0)
(-0.124832 -0.443818 0)
(-0.127088 -0.467619 0)
(-0.127015 -0.486767 0)
(-0.12371 -0.49752 0)
(-0.116448 -0.495836 0)
(-0.104912 -0.478105 0)
(-0.0894148 -0.442151 0)
(-0.0710145 -0.388215 0)
(-0.051446 -0.319516 0)
(-0.032803 -0.241916 0)
(-0.0170488 -0.162656 0)
(-0.00579005 -0.0886562 0)
(-0.000734543 -0.0251264 0)
(-0.0557269 0.043347 0)
(-0.0567967 0.0321138 0)
(-0.0578799 0.0208286 0)
(-0.0589768 0.0095005 0)
(-0.060088 -0.00186153 0)
(-0.0612137 -0.0132485 0)
(-0.0623541 -0.0246517 0)
(-0.063509 -0.036063 0)
(-0.0646781 -0.0474746 0)
(-0.0658606 -0.0588793 0)
(-0.0670553 -0.0702705 0)
(-0.0682606 -0.0816417 0)
(-0.0694744 -0.0929869 0)
(-0.0706937 -0.1043 0)
(-0.071915 -0.115574 0)
(-0.0731342 -0.126803 0)
(-0.0743462 -0.137977 0)
(-0.0755452 -0.149088 0)
(-0.0767249 -0.160124 0)
(-0.0778789 -0.171073 0)
(-0.0790006 -0.181921 0)
(-0.0800845 -0.192656 0)
(-0.0811269 -0.203265 0)
(-0.0821275 -0.213741 0)
(-0.0830909 -0.224086 0)
(-0.0840297 -0.234319 0)
(-0.0849667 -0.244483 0)
(-0.0859384 -0.254656 0)
(-0.086998 -0.264967 0)
(-0.0882171 -0.27561 0)
(-0.0896856 -0.286851 0)
(-0.0915077 -0.299042 0)
(-0.0937909 -0.312606 0)
(-0.0966282 -0.328012 0)
(-0.100069 -0.345706 0)
(-0.104083 -0.366012 0)
(-0.108513 -0.388978 0)
(-0.113034 -0.414183 0)
(-0.117122 -0.44053 0)
(-0.120049 -0.466059 0)
(-0.12093 -0.487851 0)
(-0.118825 -0.502111 0)
(-0.112924 -0.504528 0)
(-0.102769 -0.490993 0)
(-0.0885036 -0.458631 0)
(-0.0710291 -0.406934 0)
(-0.051988 -0.338545 0)
(-0.0334799 -0.259137 0)
(-0.0175704 -0.176215 0)
(-0.00603233 -0.0972677 0)
(-0.000782008 -0.0281048 0)
(-0.0452995 0.0444044 0)
(-0.0463589 0.033188 0)
(-0.0474396 0.0219203 0)
(-0.0485423 0.0106103 0)
(-0.0496675 -0.000733213 0)
(-0.0508156 -0.0121014 0)
(-0.0519868 -0.0234859 0)
(-0.0531809 -0.0348787 0)
(-0.0543977 -0.0462723 0)
(-0.0556363 -0.0576601 0)
(-0.0568956 -0.0690356 0)
(-0.0581742 -0.080393 0)
(-0.0594698 -0.0917269 0)
(-0.0607797 -0.103032 0)
(-0.0621005 -0.114302 0)
(-0.0634281 -0.12553 0)
(-0.0647574 -0.13671 0)
(-0.0660829 -0.147833 0)
(-0.067398 -0.158887 0)
(-0.0686959 -0.169861 0)
(-0.0699696 -0.180741 0)
(-0.0712126 -0.191513 0)
(-0.0724196 -0.202162 0)
(-0.0735877 -0.212677 0)
(-0.0747183 -0.223056 0)
(-0.0758194 -0.233308 0)
(-0.0769079 -0.243464 0)
(-0.0780132 -0.253588 0)
(-0.0791802 -0.263793 0)
(-0.0804724 -0.274252 0)
(-0.0819725 -0.285215 0)
(-0.0837805 -0.297022 0)
(-0.0860057 -0.310097 0)
(-0.0887515 -0.324932 0)
(-0.0920897 -0.34203 0)
(-0.0960251 -0.361809 0)
(-0.100451 -0.384458 0)
(-0.1051 -0.409737 0)
(-0.109512 -0.436755 0)
(-0.113008 -0.463745 0)
(-0.114729 -0.487914 0)
(-0.11372 -0.505463 0)
(-0.109098 -0.511871 0)
(-0.100281 -0.502573 0)
(-0.0872494 -0.47401 0)
(-0.0707458 -0.424895 0)
(-0.0523057 -0.357208 0)
(-0.0340148 -0.276336 0)
(-0.0180217 -0.189962 0)
(-0.00625299 -0.106113 0)
(-0.00082738 -0.0312058 0)
(-0.0347889 0.0454462 0)
(-0.0358356 0.0342547 0)
(-0.0369119 0.0230128 0)
(-0.0380186 0.0117292 0)
(-0.0391563 0.000412666 0)
(-0.0403255 -0.0109283 0)
(-0.0415263 -0.0222855 0)
(-0.0427587 -0.0336513 0)
(-0.0440224 -0.0450184 0)
(-0.0453166 -0.0563805 0)
(-0.0466403 -0.0677317 0)
(-0.0479918 -0.0790668 0)
(-0.0493692 -0.0903806 0)
(-0.0507698 -0.101668 0)
(-0.0521902 -0.112925 0)
(-0.0536265 -0.124145 0)
(-0.0550738 -0.135321 0)
(-0.0565265 -0.146446 0)
(-0.0579781 -0.15751 0)
(-0.0594219 -0.1685 0)
(-0.0608503 -0.179404 0)
(-0.0622563 -0.190205 0)
(-0.0636333 -0.200889 0)
(-0.0649768 -0.211441 0)
(-0.0662854 -0.221854 0)
(-0.0675632 -0.23213 0)
(-0.0688221 -0.24229 0)
(-0.0700849 -0.252386 0)
(-0.071389 -0.262512 0)
(-0.0727893 -0.272822 0)
(-0.0743606 -0.283549 0)
(-0.0761969 -0.295016 0)
(-0.0784059 -0.307643 0)
(-0.081097 -0.321935 0)
(-0.0843587 -0.338438 0)
(-0.0882251 -0.357652 0)
(-0.0926332 -0.379893 0)
(-0.0973727 -0.405098 0)
(-0.102041 -0.432579 0)
(-0.106019 -0.460778 0)
(-0.108479 -0.487062 0)
(-0.108465 -0.50767 0)
(-0.105038 -0.51793 0)
(-0.0975072 -0.51287 0)
(-0.085699 -0.488272 0)
(-0.0701958 -0.442042 0)
(-0.0524158 -0.375432 0)
(-0.0344136 -0.293437 0)
(-0.0184029 -0.20384 0)
(-0.00645096 -0.115158 0)
(-0.000870248 -0.0344184 0)
(-0.0242034 0.0464703 0)
(-0.0252351 0.035312 0)
(-0.0263049 0.0241042 0)
(-0.0274137 0.0128556 0)
(-0.0285622 0.00157463 0)
(-0.0297509 -0.00973047 0)
(-0.0309801 -0.0210517 0)
(-0.0322497 -0.0323816 0)
(-0.0335594 -0.0437135 0)