/*--------------------------------*- C++ -*----------------------------------*\
  =========                 |
  \\      /  F ield         | OpenFOAM: The Open Source CFD Toolbox
   \\    /   O peration     | Website:  https://openfoam.org
    \\  /    A nd           | Version:  9
     \\/     M anipulation  |
\*---------------------------------------------------------------------------*/
FoamFile
{
    format      ascii;
    class       volScalarField;
    location    "3";
    object      p;
}
// * * * * * * * * * * * * * * * * * * * * * * * * * * * * * * * * * * * * * //

dimensions      [0 2 -2 0 0 0 0];

internalField   nonuniform List<scalar> 
1250
(
-0.0616924
-0.0641573
-0.0665998
-0.0690075
-0.07137
-0.0736776
-0.0759225
-0.0780977
-0.0801972
-0.0822159
-0.0841493
-0.0859934
-0.0877447
-0.0893999
-0.0909559
-0.09241
-0.0937593
-0.0950014
-0.0294089
-0.0291707
-0.0290028
-0.0288833
-0.0288184
-0.0288314
-0.0289434
-0.029172
-0.0295319
-0.0300339
-0.0306857
-0.0314919
-0.0324549
-0.0335755
-0.0348528
-0.0362845
-0.0378667
-0.0395933
-0.0414563
-0.0434454
-0.0455481
-0.0477502
-0.0500362
-0.0523893
-0.0547926
-0.057229
-0.0596821
-0.0621363
-0.0645772
-0.0669915
-0.0693676
-0.0716949
-0.0739644
-0.0761681
-0.0782992
-0.0803516
-0.0823201
-0.0842
-0.0859873
-0.0876782
-0.0892692
-0.0907572
-0.0921392
-0.0934124
-0.0290942
-0.028867
-0.028702
-0.0285771
-0.0284967
-0.0284814
-0.0285507
-0.0287214
-0.0290087
-0.0294249
-0.0299795
-0.0306794
-0.0315295
-0.0325328
-0.0336906
-0.0350028
-0.0364674
-0.0380803
-0.0398352
-0.0417235
-0.0437344
-0.0458549
-0.0480702
-0.0503643
-0.0527204
-0.0551215
-0.0575507
-0.0599917
-0.0624293
-0.0648492
-0.0672387
-0.0695861
-0.0718813
-0.0741151
-0.0762798
-0.0783683
-0.0803746
-0.0822934
-0.0841198
-0.0858496
-0.0874789
-0.0890041
-0.090422
-0.0917293
-0.0287678
-0.0285528
-0.028392
-0.0282635
-0.0281695
-0.0281278
-0.0281555
-0.0282686
-0.0284821
-0.0288097
-0.0292627
-0.0298506
-0.0305808
-0.031459
-0.0324892
-0.0336735
-0.035012
-0.0365029
-0.0381419
-0.0399221
-0.0418341
-0.0438662
-0.0460048
-0.0482344
-0.0505386
-0.0529002
-0.055302
-0.0577272
-0.0601596
-0.062584
-0.0649864
-0.0673541
-0.0696758
-0.0719411
-0.0741413
-0.0762683
-0.0783151
-0.0802756
-0.0821443
-0.0839163
-0.0855872
-0.087153
-0.08861
-0.0899548
-0.0284333
-0.0282315
-0.0280763
-0.0279459
-0.0278403
-0.027774
-0.0277616
-0.0278174
-0.0279564
-0.0281929
-0.0285403
-0.0290105
-0.029614
-0.0303595
-0.0312537
-0.0323015
-0.0335056
-0.0348664
-0.0363815
-0.038046
-0.0398521
-0.0417894
-0.0438452
-0.0460049
-0.0482523
-0.0505702
-0.0529412
-0.0553477
-0.0577727
-0.0602002
-0.0626149
-0.065003
-0.0673517
-0.0696499
-0.0718872
-0.0740548
-0.0761447
-0.0781498
-0.0800638
-0.0818812
-0.083597
-0.0852068
-0.0867063
-0.0880919
-0.0280938
-0.0279062
-0.027758
-0.0276273
-0.027512
-0.0274231
-0.027372
-0.0273713
-0.027435
-0.0275783
-0.0278162
-0.0281635
-0.0286337
-0.0292388
-0.0299889
-0.0308919
-0.0319531
-0.0331755
-0.034559
-0.0361004
-0.0377937
-0.0396299
-0.0415972
-0.0436816
-0.0458675
-0.0481376
-0.0504742
-0.0528592
-0.0552747
-0.0577037
-0.0601299
-0.0625381
-0.0649144
-0.0672463
-0.0695224
-0.0717325
-0.0738678
-0.0759201
-0.0778824
-0.0797484
-0.0815124
-0.0831694
-0.0847148
-0.0861445
-0.0277519
-0.0275796
-0.0274397
-0.0273105
-0.0271874
-0.0270775
-0.0269892
-0.0269325
-0.0269205
-0.0269686
-0.0270936
-0.0273129
-0.0276434
-0.0281009
-0.0286989
-0.0294488
-0.0303591
-0.0314352
-0.0326795
-0.0340908
-0.0356648
-0.0373937
-0.039267
-0.0412713
-0.0433911
-0.0456095
-0.0479083
-0.050269
-0.0526729
-0.0551018
-0.0575385
-0.0599664
-0.0623706
-0.0647369
-0.067053
-0.0693075
-0.0714903
-0.0735923
-0.0756056
-0.0775231
-0.0793384
-0.0810459
-0.0826405
-0.0841177
-0.02741
-0.0272541
-0.0271238
-0.0269977
-0.0268685
-0.0267393
-0.026615
-0.0265029
-0.0264146
-0.0263656
-0.0263743
-0.0264609
-0.0266458
-0.0269486
-0.0273871
-0.0279761
-0.0287276
-0.02965
-0.030748
-0.0320227
-0.0334713
-0.0350876
-0.0368618
-0.0387814
-0.0408312
-0.0429943
-0.0452523
-0.047586
-0.0499761
-0.0524035
-0.0548495
-0.0572968
-0.0597287
-0.0621301
-0.0644873
-0.0667875
-0.0690197
-0.0711737
-0.0732405
-0.0752123
-0.0770818
-0.0788428
-0.0804897
-0.0820175
-0.0270697
-0.0269316
-0.0268124
-0.0266909
-0.0265571
-0.02641
-0.0262505
-0.0260831
-0.0259178
-0.0257698
-0.0256591
-0.0256085
-0.0256423
-0.0257841
-0.0260559
-0.0264769
-0.0270625
-0.0278243
-0.0287697
-0.0299019
-0.0312199
-0.0327187
-0.0343896
-0.0362206
-0.0381969
-0.0403017
-0.0425161
-0.0448206
-0.047195
-0.0496193
-0.0520738
-0.0545397
-0.0569993
-0.0594362
-0.0618351
-0.0641824
-0.0664655
-0.0686733
-0.0707959
-0.0728244
-0.0747508
-0.0765683
-0.0782705
-0.0798519
-0.0267323
-0.0266136
-0.0265072
-0.0263918
-0.0262548
-0.0260907
-0.0258964
-0.0256734
-0.0254297
-0.0251806
-0.0249473
-0.0247554
-0.0246329
-0.0246079
-0.0247069
-0.0249535
-0.025367
-0.0259623
-0.0267497
-0.0277346
-0.0289175
-0.030295
-0.0318591
-0.0335985
-0.0354987
-0.0375427
-0.0397115
-0.0419849
-0.0443421
-0.046762
-0.0492239
-0.0517079
-0.054195
-0.0566674
-0.0591087
-0.0615038
-0.0638392
-0.0661025
-0.0682827
-0.07037
-0.0723557
-0.0742321
-0.0759923
-0.0776302
-0.0263986
-0.0263017
-0.0262098
-0.026102
-0.0259627
-0.0257819
-0.0255525
-0.0252727
-0.024949
-0.0245962
-0.024237
-0.0238998
-0.0236165
-0.0234197
-0.0233408
-0.0234077
-0.023644
-0.0240682
-0.0246934
-0.0255271
-0.0265719
-0.0278253
-0.0292803
-0.0309262
-0.0327484
-0.03473
-0.0368517
-0.0390928
-0.0414316
-0.0438461
-0.0463148
-0.0488163
-0.0513306
-0.0538385
-0.0563224
-0.0587661
-0.0611546
-0.0634745
-0.0657139
-0.0678618
-0.0699088
-0.0718463
-0.0736668
-0.0753636
-0.0260692
-0.0259971
-0.0259219
-0.025823
-0.0256819
-0.025484
-0.0252181
-0.0248795
-0.0244731
-0.0240135
-0.0235249
-0.0230386
-0.0225906
-0.022218
-0.0219571
-0.0218405
-0.0218961
-0.022146
-0.0226062
-0.0232866
-0.0241915
-0.0253194
-0.0266644
-0.0282157
-0.0299594
-0.031878
-0.033952
-0.03616
-0.0384798
-0.0408885
-0.0433633
-0.0458819
-0.0484231
-0.0509665
-0.0534931
-0.0559856
-0.0584278
-0.0608053
-0.0631048
-0.0653147
-0.0674245
-0.0694249
-0.0713076
-0.0730654
-0.0257442
-0.0257013
-0.0256452
-0.0255564
-0.0254134
-0.025197
-0.0248921
-0.0244915
-0.0239986
-0.0234284
-0.0228067
-0.0221678
-0.0215517
-0.0210003
-0.0205548
-0.0202525
-0.0201256
-0.0201998
-0.0204942
-0.0210208
-0.0217856
-0.0227884
-0.0240236
-0.025481
-0.0271465
-0.0290026
-0.0310292
-0.0332044
-0.0355052
-0.0379078
-0.0403886
-0.0429241
-0.0454919
-0.0480705
-0.0506399
-0.0531812
-0.0556774
-0.0581128
-0.0604732
-0.0627459
-0.0649196
-0.0669841
-0.0689306
-0.0707511
-0.0254239
-0.0254163
-0.0253825
-0.0253045
-0.0251586
-0.024921
-0.0245732
-0.0241059
-0.0235216
-0.022836
-0.022077
-0.0212821
-0.0204954
-0.0197636
-0.0191325
-0.0186442
-0.018335
-0.0182343
-0.018364
-0.0187385
-0.019365
-0.0202445
-0.021372
-0.0227374
-0.0243266
-0.0261217
-0.0281022
-0.0302456
-0.0325281
-0.0349251
-0.037412
-0.0399644
-0.0425586
-0.0451723
-0.047784
-0.0503741
-0.0529241
-0.0554175
-0.0578389
-0.0601749
-0.062413
-0.0645425
-0.0665536
-0.0684379
-0.0251095
-0.0251459
-0.0251373
-0.0250703
-0.0249196
-0.0246565
-0.0242601
-0.0237197
-0.0230377
-0.0222311
-0.0213302
-0.0203762
-0.0194172
-0.0185045
-0.0176886
-0.0170161
-0.0165272
-0.0162548
-0.0162234
-0.0164494
-0.0169416
-0.0177017
-0.0187252
-0.0200022
-0.0215182
-0.0232551
-0.0251919
-0.0273053
-0.0295709
-0.0319633
-0.0344568
-0.0370263
-0.039647
-0.0422954
-0.0449492
-0.0475875
-0.050191
-0.0527419
-0.0552242
-0.0576232
-0.0599258
-0.0621204
-0.0641967
-0.0661455
-0.0248041
-0.0248955
-0.0249164
-0.0248597
-0.0246996
-0.0244048
-0.0239521
-0.0233303
-0.0225428
-0.0216085
-0.0205609
-0.0194449
-0.0183127
-0.0172203
-0.0162225
-0.0153698
-0.0147064
-0.0142679
-0.0140814
-0.0141652
-0.0145292
-0.0151758
-0.0161009
-0.0172945
-0.0187419
-0.0204246
-0.022321
-0.0244072
-0.026658
-0.0290472
-0.0315483
-0.0341353
-0.0367825
-0.0394654
-0.0421607
-0.0448466
-0.0475028
-0.0501105
-0.0526529
-0.0551143
-0.0574809
-0.0597404
-0.0618816
-0.0638949
-0.0245139
-0.0246756
-0.0247301
-0.0246809
-0.0245053
-0.0241698
-0.0236504
-0.0229367
-0.0220343
-0.0209644
-0.0197649
-0.0184843
-0.0171793
-0.0159099
-0.0147349
-0.0137086
-0.0128782
-0.012282
-0.0119491
-0.0118993
-0.0121434
-0.0126846
-0.0135186
-0.0146355
-0.0160203
-0.0176539
-0.0195142
-0.0215767
-0.0238153
-0.0262033
-0.0287134
-0.0313185
-0.0339923
-0.0367094
-0.0394456
-0.0421782
-0.044886
-0.0475494
-0.0501506
-0.0526732
-0.0551028
-0.0574262
-0.0596316
-0.0617088
-0.0242519
-0.0245039
-0.0245955
-0.0245485
-0.0243475
-0.0239587
-0.0233591
-0.0225406
-0.0215116
-0.0202979
-0.0189407
-0.0174933
-0.0160165
-0.0145745
-0.0132294
-0.0120383
-0.011051
-0.010308
-0.00983985
-0.00966745
-0.00980239
-0.0102479
-0.011
-0.0120484
-0.0133778
-0.0149685
-0.0167979
-0.0188408
-0.0210706
-0.0234597
-0.0259802
-0.0286043
-0.0313049
-0.0340558
-0.036832
-0.0396101
-0.0423681
-0.0450855
-0.0477439
-0.0503261
-0.052817
-0.0552026
-0.0574709
-0.0596108
-0.024042
-0.0244103
-0.0245408
-0.024486
-0.0242446
-0.0237855
-0.0230883
-0.0221486
-0.0209795
-0.0196115
-0.0180907
-0.0164752
-0.0148282
-0.0132196
-0.0117131
-0.0103682
-0.00923653
-0.00835997
-0.00777008
-0.0074883
-0.00752657
-0.0078882
-0.008569
-0.0095584
-0.0108406
-0.0123955
-0.0141998
-0.0162279
-0.0184525
-0.0208454
-0.0233779
-0.0260219
-0.0287493
-0.0315335
-0.0343488
-0.0371709
-0.0399772
-0.0427466
-0.04546
-0.0480995
-0.0506494
-0.0530952
-0.0554241
-0.0576247
-0.0239276
-0.0244443
-0.0246115
-0.0245311
-0.0242272
-0.0236742
-0.0228567
-0.0217757
-0.0204499
-0.0189155
-0.017224
-0.0154378
-0.0136253
-0.0118561
-0.0101983
-0.00871246
-0.00745085
-0.00645595
-0.00575964
-0.00538347
-0.00533926
-0.00563009
-0.00625144
-0.00719232
-0.00843644
-0.00996324
-0.0117489
-0.0137673
-0.0159905
-0.0183898
-0.0209362
-0.0236007
-0.026355
-0.0291717
-0.0320246
-0.0348888
-0.0377412
-0.0405601
-0.0433256
-0.0460196
-0.0486256
-0.0511286
-0.0535153
-0.055774
-0.0239845
-0.0246874
-0.0248798
-0.0247439
-0.0243441
-0.0236647
-0.0226969
-0.0214486
-0.0199454
-0.0182299
-0.0163591
-0.0143997
-0.0124235
-0.0105023
-0.00870434
-0.00709124
-0.00571526
-0.00461849
-0.00383236
-0.00337791
-0.00326644
-0.0035005
-0.00407502
-0.00497849
-0.00619411
-0.00770084
-0.00947439
-0.0114881
-0.0137138
-0.0161222
-0.0186839
-0.0213695
-0.0241503
-0.0269983
-0.029887
-0.032791
-0.0356866
-0.0385518
-0.0413661
-0.0441109
-0.0467692
-0.0493257
-0.0517666
-0.0540797
-0.0243446
-0.0252722
-0.0254597
-0.025217
-0.0246711
-0.0238195
-0.0226609
-0.0212114
-0.0195041
-0.0175884
-0.0155268
-0.0133898
-0.0112516
-0.00918507
-0.00725832
-0.00553189
-0.00405729
-0.00287539
-0.00201632
-0.0015
-0.00133674
-0.00152821
-0.00206862
-0.00294581
-0.00414244
-0.00563699
-0.00740477
-0.00941875
-0.0116504
-0.0140701
-0.0166481
-0.0193548
-0.0221611
-0.0250387
-0.0279607
-0.0309013
-0.0338366
-0.036744
-0.0396028
-0.0423939
-0.0450998
-0.047705
-0.0501952
-0.052558
-0.0252377
-0.0264147
-0.0265264
-0.0260887
-0.0253199
-0.0242304
-0.0228256
-0.0211296
-0.019183
-0.017042
-0.0147737
-0.0124516
-0.0101508
-0.00794382
-0.00589753
-0.00407061
-0.00251177
-0.00126036
-0.000344176
0.000218608
0.00041914
0.000256946
-0.0002612
-0.00112239
-0.00230868
-0.0037981
-0.00556559
-0.00758381
-0.00982395
-0.0122563
-0.0148508
-0.0175776
-0.0204075
-0.0233119
-0.0262637
-0.029237
-0.0322073
-0.0351518
-0.0380496
-0.0408812
-0.0436289
-0.0462768
-0.0488103
-0.0512168
-0.0270707
-0.0284639
-0.0283381
-0.0275499
-0.0264384
-0.025016
-0.0232887
-0.021286
-0.0190547
-0.0166559
-0.0141599
-0.0116412
-0.00917393
-0.00682872
-0.00466944
-0.00275152
-0.00112056
0.000187702
0.00114795
0.00174442
0.00197021
0.00182639
0.00132092
0.000467575
-0.000715031
-0.00220447
-0.00397534
-0.0060001
-0.00824974
-0.0106944
-0.0133041
-0.0160487
-0.0188988
-0.021826
-0.0248028
-0.0278031
-0.0308025
-0.0337779
-0.0367081
-0.0395733
-0.0423558
-0.0450392
-0.0476089
-0.0500518
-0.0305978
-0.0319774
-0.0312323
-0.0298129
-0.0281707
-0.0262776
-0.024124
-0.0217381
-0.0191678
-0.0164749
-0.0137289
-0.0110018
-0.00836432
-0.00588261
-0.00361594
-0.00161496
7.895e-05
0.00143415
0.00242867
0.00304957
0.00329222
0.00315945
0.00266055
0.00181027
0.000627884
-0.000863722
-0.00263887
-0.00466985
-0.00692758
-0.00938218
-0.0120035
-0.0147616
-0.0176271
-0.0205714
-0.023567
-0.0265878
-0.0296092
-0.0326081
-0.0355631
-0.0384543
-0.0412637
-0.0439749
-0.046573
-0.0490449
-0.0373669
-0.0378064
-0.0355191
-0.0329745
-0.0305145
-0.027957
-0.0252452
-0.0223911
-0.019433
-0.016423
-0.0134211
-0.0104907
-0.00769422
-0.00509013
-0.00273121
-0.00066199
0.00108133
0.00247149
0.00349008
0.00412705
0.00438001
0.00425348
0.00375796
0.00290904
0.00172653
0.000233652
-0.00154378
-0.003578
-0.00583995
-0.00829985
-0.0109276
-0.0136934
-0.0165679
-0.0195226
-0.02253
-0.0255641
-0.0286001
-0.0316149
-0.0345871
-0.0374968
-0.0403257
-0.0430573
-0.0456768
-0.0481706
-0.0508945
-0.0469826
-0.0412055
-0.036734
-0.0330106
-0.0295385
-0.0261474
-0.0227873
-0.0194547
-0.0161696
-0.0129673
-0.00989217
-0.00699294
-0.00431765
-0.00191067
0.000189636
0.00195203
0.00335306
0.00437718
0.00501643
0.00526994
0.0051432
0.00464734
0.00379827
0.0026159
0.00112339
-0.000653559
-0.0026874
-0.0049493
-0.0074097
-0.0100388
-0.0128068
-0.0156847
-0.018644
-0.0216574
-0.0246989
-0.0277437
-0.0307688
-0.0337526
-0.0366752
-0.0395183
-0.0422652
-0.0449009
-0.0474119
-0.0787375
-0.058843
-0.0461839
-0.0386616
-0.0332992
-0.0289533
-0.0251241
-0.0215656
-0.018157
-0.0148588
-0.0116781
-0.00864378
-0.00579426
-0.00317104
-0.000814486
0.0012393
0.00296034
0.00432579
0.00532019
0.00593533
0.00616984
0.0060286
0.00552202
0.00466526
0.00347754
0.00198134
0.00020172
-0.00183431
-0.00409841
-0.00656142
-0.00919383
-0.0119662
-0.0148496
-0.0178158
-0.0208376
-0.0238889
-0.026945
-0.0299829
-0.0329808
-0.0359187
-0.0387784
-0.041543
-0.0441973
-0.0467277
-0.165862
-0.0649829
-0.0351321
-0.0281759
-0.0243424
-0.0210403
-0.018295
-0.0158257
-0.0133571
-0.0108134
-0.00823148
-0.00567474
-0.00320662
-0.000887258
0.00122789
0.00309038
0.0046603
0.00590678
0.00680784
0.00734991
0.00752719
0.00734092
0.00679848
0.00591259
0.00470044
0.00318289
0.00138373
-0.000671053
-0.00295388
-0.00543618
-0.00808887
-0.0108828
-0.0137892
-0.0167799
-0.0198276
-0.0229064
-0.0259914
-0.0290593
-0.0320884
-0.0350585
-0.0379511
-0.0407491
-0.0434374
-0.0460019
)
;

boundaryField
{
    movingWall
    {
        type            zeroGradient;
    }
    fixedWalls
    {
        type            zeroGradient;
    }
    frontAndBack
    {
        type            empty;
    }
    procBoundary2to3
    {
        type            processor;
        value           nonuniform List<scalar> 
45
(
-0.0635784
-0.0660518
-0.0684944
-0.0708949
-0.0732437
-0.0755323
-0.0777538
-0.0799022
-0.0819723
-0.0839598
-0.0858609
-0.0876722
-0.0893906
-0.0910132
-0.0925375
-0.0939607
-0.0952806
-0.0964947
-0.029708
-0.02946
-0.0292908
-0.0291783
-0.0291308
-0.0291737
-0.0293294
-0.0296157
-0.0300466
-0.0306314
-0.0313758
-0.0322822
-0.0333511
-0.0345813
-0.03597
-0.037513
-0.0392046
-0.041037
-0.0430004
-0.0450827
-0.0472703
-0.0495477
-0.0518983
-0.0543051
-0.0567508
-0.0592186
-0.0592186
)
;
    }
    procBoundary2to5
    {
        type            processor;
        value           nonuniform List<scalar> 
29
(
-0.0961339
-0.0945741
-0.0929234
-0.0911844
-0.0893602
-0.0874549
-0.0854733
-0.0834217
-0.0813077
-0.0791404
-0.0769308
-0.0746919
-0.0724386
-0.070188
-0.0679588
-0.0657717
-0.0636487
-0.0616128
-0.0596871
-0.0578942
-0.0562542
-0.0547821
-0.0534847
-0.0523564
-0.0513787
-0.0505269
-0.0497861
-0.0491221
-0.0484305
)
;
    }
}


// ************************************************************************* //
