/*--------------------------------*- C++ -*----------------------------------*\
  =========                 |
  \\      /  F ield         | OpenFOAM: The Open Source CFD Toolbox
   \\    /   O peration     | Website:  https://openfoam.org
    \\  /    A nd           | Version:  9
     \\/     M anipulation  |
\*---------------------------------------------------------------------------*/
FoamFile
{
    format      ascii;
    class       surfaceScalarField;
    location    "3";
    object      phi;
}
// * * * * * * * * * * * * * * * * * * * * * * * * * * * * * * * * * * * * * //

dimensions      [0 3 -1 0 0 0 0];

internalField   nonuniform List<scalar> 
2427
(
1.4517e-06
2.78137e-06
1.47235e-06
2.68374e-06
1.49075e-06
2.58227e-06
1.50715e-06
2.47808e-06
1.52181e-06
2.37216e-06
1.53496e-06
2.26536e-06
1.5468e-06
2.15837e-06
1.5575e-06
2.05173e-06
1.5672e-06
1.94587e-06
1.576e-06
1.84108e-06
1.58398e-06
1.73758e-06
1.59116e-06
1.6355e-06
1.59757e-06
1.53488e-06
1.6032e-06
1.43574e-06
1.60801e-06
1.33806e-06
1.61195e-06
1.24176e-06
1.61498e-06
1.14678e-06
1.05303e-06
1.01663e-08
1.05627e-07
3.91391e-08
3.47836e-07
8.50726e-08
6.15387e-07
1.45539e-07
9.00431e-07
2.17519e-07
1.19352e-06
2.97616e-07
1.48463e-06
3.82399e-07
1.76434e-06
4.68774e-07
2.02484e-06
5.54265e-07
2.26054e-06
6.37157e-07
2.46829e-06
7.16477e-07
2.64706e-06
7.91855e-07
2.79747e-06
8.6333e-07
2.92112e-06
9.3115e-07
3.02004e-06
9.95613e-07
3.09628e-06
1.05696e-06
3.15169e-06
1.11532e-06
3.18784e-06
1.17073e-06
3.20604e-06
1.22314e-06
3.20744e-06
1.27245e-06
3.19312e-06
1.31855e-06
3.1642e-06
1.36135e-06
3.12182e-06
1.40083e-06
3.06726e-06
1.437e-06
3.00185e-06
1.46995e-06
2.92696e-06
1.4998e-06
2.84402e-06
1.52675e-06
2.75442e-06
1.551e-06
2.65949e-06
1.57281e-06
2.56046e-06
1.59241e-06
2.45848e-06
1.61006e-06
2.35452e-06
1.62597e-06
2.24945e-06
1.64036e-06
2.14398e-06
1.65341e-06
2.03869e-06
1.66526e-06
1.93402e-06
1.67603e-06
1.83031e-06
1.6858e-06
1.72781e-06
1.69463e-06
1.62667e-06
1.70254e-06
1.52697e-06
1.70954e-06
1.42874e-06
1.71561e-06
1.33199e-06
1.72071e-06
1.23666e-06
1.7248e-06
1.14269e-06
1.05001e-06
9.56664e-09
9.60608e-08
3.71312e-08
3.20272e-07
8.12593e-08
5.71259e-07
1.39951e-07
8.41739e-07
2.10595e-07
1.12288e-06
2.90122e-07
1.40511e-06
3.75301e-07
1.67916e-06
4.63088e-07
1.93705e-06
5.50929e-07
2.1727e-06
6.36933e-07
2.38228e-06
7.19913e-07
2.56408e-06
7.99293e-07
2.71809e-06
8.74948e-07
2.84546e-06
9.47019e-07
2.94797e-06
1.01575e-06
3.02755e-06
1.08135e-06
3.08608e-06
1.14399e-06
3.1252e-06
1.20371e-06
3.14632e-06
1.26047e-06
3.15068e-06
1.31417e-06
3.13942e-06
1.36471e-06
3.11366e-06
1.41198e-06
3.07455e-06
1.45592e-06
3.02332e-06
1.49652e-06
2.96125e-06
1.53381e-06
2.88966e-06
1.56791e-06
2.80993e-06
1.59896e-06
2.72337e-06
1.62715e-06
2.6313e-06
1.6527e-06
2.53492e-06
1.67583e-06
2.43534e-06
1.69679e-06
2.33357e-06
1.71578e-06
2.23046e-06
1.73303e-06
2.12673e-06
1.74871e-06
2.023e-06
1.76298e-06
1.91975e-06
1.77597e-06
1.81732e-06
1.78778e-06
1.71601e-06
1.79846e-06
1.61598e-06
1.80807e-06
1.51736e-06
1.81662e-06
1.4202e-06
1.8241e-06
1.32451e-06
1.83049e-06
1.23027e-06
1.83576e-06
1.13742e-06
1.04591e-06
8.93819e-09
8.71226e-08
3.49697e-08
2.9424e-07
7.70412e-08
5.29187e-07
1.33566e-07
7.85214e-07
2.02342e-07
1.0541e-06
2.80657e-07
1.32679e-06
3.6553e-07
1.59429e-06
4.54031e-07
1.84855e-06
5.43579e-07
2.08315e-06
6.32153e-07
2.29371e-06
7.18374e-07
2.47786e-06
8.01467e-07
2.635e-06
8.81128e-07
2.7658e-06
9.57369e-07
2.87173e-06
1.03035e-06
2.95457e-06
1.10027e-06
3.01617e-06
1.16726e-06
3.05821e-06
1.23138e-06
3.0822e-06
1.29262e-06
3.08945e-06
1.35087e-06
3.08117e-06
1.40602e-06
3.0585e-06
1.45796e-06
3.02261e-06
1.50659e-06
2.97469e-06
1.55187e-06
2.91597e-06
1.5938e-06
2.84773e-06
1.63244e-06
2.77128e-06
1.66792e-06
2.6879e-06
1.70037e-06
2.59884e-06
1.73e-06
2.50529e-06
1.75701e-06
2.40834e-06
1.78161e-06
2.30896e-06
1.80403e-06
2.20804e-06
1.82446e-06
2.1063e-06
1.84309e-06
2.00437e-06
1.86008e-06
1.90275e-06
1.87557e-06
1.80183e-06
1.88967e-06
1.70191e-06
1.90245e-06
1.6032e-06
1.91397e-06
1.50584e-06
1.92427e-06
1.4099e-06
1.93334e-06
1.31544e-06
1.94118e-06
1.22242e-06
1.94777e-06
1.13084e-06
1.04062e-06
8.28516e-09
7.88375e-08
3.26692e-08
2.69856e-07
7.24475e-08
4.89409e-07
1.26426e-07
7.31236e-07
1.92813e-07
9.87713e-07
2.69275e-07
1.25033e-06
3.53122e-07
1.51044e-06
4.41595e-07
1.76008e-06
5.32147e-07
1.9926e-06
6.22679e-07
2.20318e-06
7.11651e-07
2.38889e-06
7.98096e-07
2.54856e-06
8.8153e-07
2.68237e-06
9.61817e-07
2.79144e-06
1.03902e-06
2.87737e-06
1.11327e-06
2.94192e-06
1.18468e-06
2.98679e-06
1.25332e-06
3.01356e-06
1.31915e-06
3.02361e-06
1.38211e-06
3.01821e-06
1.44205e-06
2.99856e-06
1.49886e-06
2.96581e-06
1.5524e-06
2.92114e-06
1.60261e-06
2.86576e-06
1.64945e-06
2.8009e-06
1.69293e-06
2.72779e-06
1.73315e-06
2.64769e-06
1.7702e-06
2.56179e-06
1.80425e-06
2.47124e-06
1.83549e-06
2.3771e-06
1.8641e-06
2.28035e-06
1.89029e-06
2.18185e-06
1.91424e-06
2.08234e-06
1.93616e-06
1.98246e-06
1.95619e-06
1.88272e-06
1.97449e-06
1.78354e-06
1.99116e-06
1.68524e-06
2.00631e-06
1.58805e-06
2.01999e-06
1.49215e-06
2.03225e-06
1.39764e-06
2.04312e-06
1.30457e-06
2.0526e-06
1.21295e-06
2.06067e-06
1.12276e-06
1.03397e-06
7.61017e-09
7.12273e-08
3.02385e-08
2.47228e-07
6.74968e-08
4.52151e-07
1.18562e-07
6.8017e-07
1.82048e-07
9.24227e-07
2.56014e-07
1.17636e-06
3.38101e-07
1.42836e-06
4.25773e-07
1.6724e-06
5.16578e-07
1.90179e-06
6.08388e-07
2.11137e-06
6.99546e-07
2.29773e-06
7.88912e-07
2.45919e-06
8.75823e-07
2.59546e-06
9.59981e-07
2.70728e-06
1.04133e-06
2.79602e-06
1.11991e-06
2.86333e-06
1.19581e-06
2.9109e-06
1.26905e-06
2.94031e-06
1.33962e-06
2.95304e-06
1.40743e-06
2.95041e-06
1.47234e-06
2.93365e-06
1.5342e-06
2.90395e-06
1.59288e-06
2.86247e-06
1.64826e-06
2.81038e-06
1.70027e-06
2.74889e-06
1.7489e-06
2.67917e-06
1.79416e-06
2.60242e-06
1.83614e-06
2.5198e-06
1.87497e-06
2.43241e-06
1.91078e-06
2.34129e-06
1.94375e-06
2.24738e-06
1.97407e-06
2.15153e-06
2.00192e-06
2.0545e-06
2.02747e-06
1.95691e-06
2.05088e-06
1.85931e-06
2.0723e-06
1.76211e-06
2.09186e-06
1.66568e-06
2.10966e-06
1.57026e-06
2.12577e-06
1.47604e-06
2.14025e-06
1.38316e-06
2.15315e-06
1.29167e-06
2.16446e-06
1.20163e-06
2.17421e-06
1.11302e-06
1.02581e-06
6.9136e-09
6.43137e-08
2.76783e-08
2.26463e-07
6.21914e-08
4.17638e-07
1.09981e-07
6.3238e-07
1.7006e-07
8.64148e-07
2.4089e-07
1.10553e-06
3.20475e-07
1.34877e-06
4.06548e-07
1.58633e-06
4.96812e-07
1.81153e-06
5.89165e-07
2.01901e-06
6.81876e-07
2.20502e-06
7.73663e-07
2.3674e-06
8.63689e-07
2.50543e-06
9.51488e-07
2.61948e-06
1.03686e-06
2.71065e-06
1.11975e-06
2.78044e-06
1.20018e-06
2.83047e-06
1.27813e-06
2.86236e-06
1.35356e-06
2.87761e-06
1.42637e-06
2.8776e-06
1.49641e-06
2.8636e-06
1.56353e-06
2.83683e-06
1.62756e-06
2.79844e-06
1.68835e-06
2.74959e-06
1.74579e-06
2.69144e-06
1.79983e-06
2.62514e-06
1.85044e-06
2.55181e-06
1.89767e-06
2.47257e-06
1.9416e-06
2.38848e-06
1.98235e-06
2.30054e-06
2.02005e-06
2.20968e-06
2.05486e-06
2.11672e-06
2.08695e-06
2.02241e-06
2.11649e-06
1.92737e-06
2.14364e-06
1.83216e-06
2.16853e-06
1.73722e-06
2.1913e-06
1.64291e-06
2.21205e-06
1.5495e-06
2.23088e-06
1.45721e-06
2.24786e-06
1.36618e-06
2.26302e-06
1.27651e-06
2.27641e-06
1.18824e-06
2.28804e-06
1.10139e-06
1.01595e-06
6.19244e-09
5.81213e-08
2.49772e-08
2.07678e-07
5.65107e-08
3.86104e-07
1.00657e-07
5.88234e-07
1.56819e-07
8.07986e-07
2.23874e-07
1.03848e-06
3.00211e-07
1.27243e-06
3.83875e-07
1.50267e-06
4.72773e-07
1.72263e-06
5.64889e-07
1.9269e-06
6.58463e-07
2.11145e-06
7.52105e-07
2.27376e-06
8.4482e-07
2.41272e-06
9.35975e-07
2.52833e-06
1.02521e-06
2.62141e-06
1.11236e-06
2.69329e-06
1.19733e-06
2.7455e-06
1.28007e-06
2.77963e-06
1.36048e-06
2.7972e-06
1.43844e-06
2.79963e-06
1.5138e-06
2.78824e-06
1.58637e-06
2.76426e-06
1.65595e-06
2.72886e-06
1.72237e-06
2.68317e-06
1.78549e-06
2.62832e-06
1.84521e-06
2.56542e-06
1.90146e-06
2.49555e-06
1.95425e-06
2.41978e-06
2.00361e-06
2.33912e-06
2.04962e-06
2.25453e-06
2.09239e-06
2.16691e-06
2.13206e-06
2.07706e-06
2.16876e-06
1.9857e-06
2.20265e-06
1.89348e-06
2.23388e-06
1.80093e-06
2.26259e-06
1.70851e-06
2.28891e-06
1.61659e-06
2.31295e-06
1.52546e-06
2.3348e-06
1.43535e-06
2.35456e-06
1.34643e-06
2.37227e-06
1.2588e-06
2.38798e-06
1.17253e-06
2.40171e-06
1.08766e-06
1.00418e-06
5.43885e-09
5.26824e-08
2.21064e-08
1.91011e-07
5.04008e-08
3.5781e-07
9.05138e-08
5.48121e-07
1.4224e-07
7.56259e-07
2.04876e-07
9.75844e-07
2.77217e-07
1.20009e-06
3.57656e-07
1.42223e-06
4.4435e-07
1.63594e-06
5.35418e-07
1.83583e-06
6.29123e-07
2.01774e-06
7.24002e-07
2.17888e-06
8.18925e-07
2.31779e-06
9.13095e-07
2.43416e-06
1.00599e-06
2.52852e-06
1.0973e-06
2.60198e-06
1.18682e-06
2.65598e-06
1.2744e-06
2.69204e-06
1.35991e-06
2.71169e-06
1.44318e-06
2.71636e-06
1.52402e-06
2.7074e-06
1.60222e-06
2.68606e-06
1.67756e-06
2.65351e-06
1.74984e-06
2.61089e-06
1.81888e-06
2.55929e-06
1.88452e-06
2.49977e-06
1.94669e-06
2.43339e-06
2.00532e-06
2.36115e-06
2.06041e-06
2.28403e-06
2.11201e-06
2.20293e-06
2.16019e-06
2.11873e-06
2.20505e-06
2.0322e-06
2.24671e-06
1.94404e-06
2.28531e-06
1.85489e-06
2.32097e-06
1.76527e-06
2.35385e-06
1.67564e-06
2.38405e-06
1.58639e-06
2.4117e-06
1.49781e-06
2.4369e-06
1.41016e-06
2.45973e-06
1.3236e-06
2.48027e-06
1.23826e-06
2.49856e-06
1.15423e-06
2.51466e-06
1.07156e-06
9.90259e-07
4.63786e-09
4.80446e-08
1.90127e-08
1.76636e-07
4.37614e-08
3.33061e-07
7.941e-08
5.12473e-07
1.26152e-07
7.09517e-07
1.83713e-07
9.18283e-07
2.51313e-07
1.13249e-06
3.27716e-07
1.34582e-06
4.11369e-07
1.55229e-06
5.00571e-07
1.74663e-06
5.93651e-07
1.92466e-06
6.89114e-07
2.08342e-06
7.85719e-07
2.22119e-06
8.82518e-07
2.33736e-06
9.78824e-07
2.43221e-06
1.07416e-06
2.50665e-06
1.1682e-06
2.56195e-06
1.26068e-06
2.59956e-06
1.35139e-06
2.62098e-06
1.44011e-06
2.62765e-06
1.5266e-06
2.62091e-06
1.61062e-06
2.60204e-06
1.69192e-06
2.57221e-06
1.77027e-06
2.53255e-06
1.84544e-06
2.48412e-06
1.91725e-06
2.42796e-06
1.98557e-06
2.36507e-06
2.05031e-06
2.29641e-06
2.11142e-06
2.22292e-06
2.1689e-06
2.14545e-06
2.2228e-06
2.06484e-06
2.27317e-06
1.98182e-06
2.32012e-06
1.89709e-06
2.36376e-06
1.81125e-06
2.40421e-06
1.72482e-06
2.44158e-06
1.63827e-06
2.476e-06
1.55196e-06
2.50759e-06
1.46622e-06
2.53645e-06
1.3813e-06
2.56267e-06
1.29738e-06
2.58632e-06
1.21461e-06
2.60748e-06
1.13308e-06
2.62619e-06
1.05285e-06
9.73965e-07
3.76415e-09
4.42804e-08
1.56083e-08
1.64792e-07
3.64281e-08
3.12242e-07
6.71122e-08
4.81789e-07
1.08274e-07
6.68355e-07
1.60084e-07
8.66473e-07
2.22197e-07
1.07038e-06
2.9377e-07
1.27425e-06
3.73565e-07
1.47249e-06
4.60097e-07
1.6601e-06
5.51802e-07
1.83296e-06
6.47184e-07
1.98804e-06
7.44925e-07
2.12345e-06
8.43935e-07
2.23835e-06
9.43364e-07
2.33278e-06
1.04257e-06
2.40744e-06
1.14107e-06
2.46345e-06
1.23848e-06
2.50215e-06
1.33448e-06
2.52498e-06
1.42878e-06
2.53335e-06
1.52109e-06
2.52861e-06
1.61111e-06
2.51202e-06
1.69856e-06
2.48476e-06
1.78317e-06
2.44794e-06
1.86468e-06
2.40261e-06
1.94288e-06
2.34976e-06
2.01758e-06
2.29036e-06
2.08867e-06
2.22533e-06
2.15605e-06
2.15554e-06
2.21968e-06
2.08182e-06
2.27957e-06
2.00495e-06
2.33575e-06
1.92564e-06
2.38829e-06
1.84455e-06
2.43728e-06
1.76226e-06
2.48282e-06
1.67928e-06
2.52502e-06
1.59607e-06
2.56398e-06
1.513e-06
2.59983e-06
1.43038e-06
2.63265e-06
1.34847e-06
2.66255e-06
1.26748e-06
2.68961e-06
1.18754e-06
2.71391e-06
1.10879e-06
2.73549e-06
1.03127e-06
9.55048e-07
2.7775e-09
4.15029e-08
1.17569e-08
1.55812e-07
2.81495e-08
2.95849e-07
5.32657e-08
4.56672e-07
8.81796e-08
6.33441e-07
1.33528e-07
8.21124e-07
1.89412e-07
1.0145e-06
2.55389e-07
1.20827e-06
3.30552e-07
1.39733e-06
4.13654e-07
1.57699e-06
5.03266e-07
1.74334e-06
5.97924e-07
1.89338e-06
6.96255e-07
2.02512e-06
7.97049e-07
2.13755e-06
8.99297e-07
2.23053e-06
1.00218e-06
2.30455e-06
1.10506e-06
2.36057e-06
1.20741e-06
2.39981e-06
1.30878e-06
2.42361e-06
1.40878e-06
2.43335e-06
1.50705e-06
2.43033e-06
1.60325e-06
2.41582e-06
1.69703e-06
2.39097e-06
1.78809e-06
2.35688e-06
1.87613e-06
2.31456e-06
1.96091e-06
2.26499e-06
2.0422e-06
2.20907e-06
2.11984e-06
2.14769e-06
2.19371e-06
2.08167e-06
2.26372e-06
2.01181e-06
2.32985e-06
1.93882e-06
2.39209e-06
1.86339e-06
2.45049e-06
1.78615e-06
2.50511e-06
1.70764e-06
2.55603e-06
1.62837e-06
2.60334e-06
1.54876e-06
2.64714e-06
1.4692e-06
2.68753e-06
1.38999e-06
2.72462e-06
1.31139e-06
2.75849e-06
1.2336e-06
2.78923e-06
1.1568e-06
2.81693e-06
1.08109e-06
2.84164e-06
1.00656e-06
9.33264e-07
1.61816e-09
3.98848e-08
7.25573e-09
1.50175e-07
1.85572e-08
2.84547e-07
3.73574e-08
4.37872e-07
6.52554e-08
6.05543e-07
1.03386e-07
7.82994e-07
1.52302e-07
9.65581e-07
2.11961e-07
1.14861e-06
2.81785e-07
1.3275e-06
3.60773e-07
1.49801e-06
4.47645e-07
1.65647e-06
5.40993e-07
1.80003e-06
6.39407e-07
1.9267e-06
7.41575e-07
2.03539e-06
8.46338e-07
2.12577e-06
9.52712e-07
2.19818e-06
1.05987e-06
2.25341e-06
1.16714e-06
2.29254e-06
1.27393e-06
2.31682e-06
1.37974e-06
2.32754e-06
1.48411e-06
2.32596e-06
1.58663e-06
2.3133e-06
1.68692e-06
2.29069e-06
1.7846e-06
2.2592e-06
1.87934e-06
2.21981e-06
1.97087e-06
2.17346e-06
2.05892e-06
2.12102e-06
2.1433e-06
2.06332e-06
2.22383e-06
2.00114e-06
2.30042e-06
1.93522e-06
2.37299e-06
1.86625e-06
2.44151e-06
1.79487e-06
2.506e-06
1.72166e-06
2.56648e-06
1.64716e-06
2.62302e-06
1.57183e-06
2.67569e-06
1.49609e-06
2.72459e-06
1.42031e-06
2.76979e-06
1.34478e-06
2.8114e-06
1.26978e-06
2.8495e-06
1.1955e-06
2.88419e-06
1.12211e-06
2.91555e-06
1.04973e-06
2.94364e-06
9.7847e-07
9.08376e-07
1.87371e-10
3.96974e-08
1.80043e-09
1.48562e-07
7.12531e-09
2.79223e-07
1.86726e-08
4.26325e-07
3.86575e-08
5.85559e-07
6.87554e-08
7.52896e-07
1.09975e-07
9.24361e-07
1.62656e-07
1.09593e-06
2.26531e-07
1.26363e-06
3.00833e-07
1.4237e-06
3.84433e-07
1.57287e-06
4.7598e-07
1.70848e-06
5.74047e-07
1.82864e-06
6.77232e-07
1.9322e-06
7.84237e-07
2.01877e-06
8.93909e-07
2.08851e-06
1.00525e-06
2.14207e-06
1.11741e-06
2.18038e-06
1.22965e-06
2.20458e-06
1.34135e-06
2.21584e-06
1.45195e-06
2.21537e-06
1.56093e-06
2.20431e-06
1.66786e-06
2.18377e-06
1.77231e-06
2.15475e-06
1.87391e-06
2.11821e-06
1.97233e-06
2.07504e-06
2.06728e-06
2.02606e-06
2.15853e-06
1.97207e-06
2.24588e-06
1.91379e-06
2.32919e-06
1.85191e-06
2.40835e-06
1.78708e-06
2.48332e-06
1.7199e-06
2.55407e-06
1.65092e-06
2.6206e-06
1.58062e-06
2.68297e-06
1.50946e-06
2.74121e-06
1.43784e-06
2.79541e-06
1.36611e-06
2.84565e-06
1.29455e-06
2.89201e-06
1.22342e-06
2.93458e-06
1.15293e-06
2.97344e-06
1.08324e-06
3.00868e-06
1.0145e-06
3.04037e-06
9.4678e-07
8.80168e-07
-1.64699e-09
4.13444e-08
-4.99506e-09
1.5191e-07
-6.85284e-09
2.8108e-07
-3.76618e-09
4.23238e-07
7.25799e-09
5.74534e-07
2.84535e-08
7.317e-07
6.12706e-08
8.91544e-07
1.064e-07
1.0508e-06
1.63846e-07
1.20618e-06
2.33044e-07
1.35451e-06
3.12992e-07
1.49292e-06
4.02395e-07
1.61908e-06
4.99806e-07
1.73123e-06
6.03742e-07
1.82827e-06
7.12775e-07
1.90973e-06
8.25594e-07
1.97569e-06
9.41025e-07
2.02664e-06
1.05805e-06
2.06336e-06
1.17576e-06
2.08686e-06
1.29341e-06
2.09819e-06
1.41031e-06
2.09847e-06
1.52587e-06
2.08876e-06
1.63955e-06
2.07008e-06
1.75089e-06
2.04341e-06
1.85946e-06
2.00964e-06
1.96488e-06
1.96961e-06
2.06685e-06
1.9241e-06
2.16507e-06
1.87384e-06
2.25934e-06
1.81952e-06
2.34948e-06
1.76178e-06
2.43535e-06
1.70121e-06
2.51687e-06
1.63838e-06
2.594e-06
1.57379e-06
2.66672e-06
1.5079e-06
2.73505e-06
1.44114e-06
2.79902e-06
1.37387e-06
2.8587e-06
1.30643e-06
2.91414e-06
1.2391e-06
2.96543e-06
1.17213e-06
3.01265e-06
1.10571e-06
3.05588e-06
1.04002e-06
3.09519e-06
9.75177e-07
3.13068e-06
9.11295e-07
8.48446e-07
-4.07094e-09
4.54153e-08
-1.3729e-08
1.61568e-07
-2.43362e-08
2.91688e-07
-3.11786e-08
4.30081e-07
-3.03641e-08
5.7372e-07
-1.90175e-08
7.20354e-07
4.731e-09
8.67796e-07
4.18547e-08
1.01368e-06
9.25615e-08
1.15548e-06
1.56436e-07
1.29063e-06
2.32556e-07
1.4168e-06
3.1966e-07
1.53198e-06
4.16271e-07
1.63461e-06
5.20826e-07
1.72371e-06
6.31773e-07
1.79878e-06
7.47647e-07
1.85982e-06
8.6711e-07
1.90717e-06
9.88967e-07
1.94151e-06
1.11217e-06
1.96365e-06
1.2358e-06
1.97456e-06
1.35907e-06
1.9752e-06
1.48127e-06
1.96655e-06
1.60179e-06
1.94956e-06
1.7201e-06
1.92511e-06
1.83571e-06
1.89403e-06
1.94821e-06
1.85711e-06
2.05724e-06
1.81507e-06
2.16251e-06
1.76858e-06
2.26375e-06
1.71828e-06
2.36076e-06
1.66476e-06
2.45339e-06
1.60858e-06
2.54153e-06
1.55024e-06
2.62511e-06
1.49021e-06
2.70409e-06
1.42892e-06
2.77847e-06
1.36676e-06
2.84827e-06
1.30407e-06
2.91353e-06
1.24118e-06
2.9743e-06
1.17834e-06
3.03065e-06
1.11578e-06
3.08265e-06
1.05371e-06
3.13039e-06
9.9228e-07
3.17394e-06
9.31629e-07
3.21337e-06
8.7186e-07
8.1305e-07
-7.37644e-09
5.27918e-08
-2.51923e-08
1.79384e-07
-4.66262e-08
3.13121e-07
-6.52442e-08
4.48699e-07
-7.60414e-08
5.84517e-07
-7.55037e-08
7.19816e-07
-6.14061e-08
8.53698e-07
-3.25753e-08
9.84849e-07
1.13111e-08
1.11159e-06
6.98741e-08
1.23207e-06
1.42239e-07
1.34444e-06
2.27124e-07
1.44709e-06
3.23e-07
1.53874e-06
4.28214e-07
1.6185e-06
5.41092e-07
1.68591e-06
6.60025e-07
1.74088e-06
7.83516e-07
1.78368e-06
9.1021e-07
1.81481e-06
1.0389e-06
1.83496e-06
1.16854e-06
1.84492e-06
1.2982e-06
1.84554e-06
1.42707e-06
1.83768e-06
1.55447e-06
1.82217e-06
1.67977e-06
1.79981e-06
1.80245e-06
1.77135e-06
1.92204e-06
1.73751e-06
2.03816e-06
1.69895e-06
2.15047e-06
1.65627e-06
2.25868e-06
1.61007e-06
2.36257e-06
1.56087e-06
2.46196e-06
1.50919e-06
2.55672e-06
1.45548e-06
2.64676e-06
1.40017e-06
2.73201e-06
1.34366e-06
2.81247e-06
1.2863e-06
2.88813e-06
1.22842e-06
2.95901e-06
1.17029e-06
3.02517e-06
1.11218e-06
3.08665e-06
1.0543e-06
3.14353e-06
9.96829e-07
3.19588e-06
9.39934e-07
3.24376e-06
8.83741e-07
3.28727e-06
8.28353e-07
7.73851e-07
-1.19639e-08
6.47557e-08
-4.04597e-08
2.07879e-07
-7.53834e-08
3.48045e-07
-1.07988e-07
4.81303e-07
-1.31967e-07
6.08496e-07
-1.43188e-07
7.31037e-07
-1.39182e-07
8.49692e-07
-1.18717e-07
9.64385e-07
-8.14887e-08
1.07436e-06
-2.78977e-08
1.17848e-06
4.10826e-08
1.27546e-06
1.24095e-07
1.36408e-06
2.19552e-07
1.44328e-06
3.25671e-07
1.51238e-06
4.4066e-07
1.57092e-06
5.62773e-07
1.61877e-06
6.90366e-07
1.65609e-06
8.21935e-07
1.68324e-06
9.56135e-07
1.70076e-06
1.09177e-06
1.70928e-06
1.22781e-06
1.7095e-06
1.36335e-06
1.70215e-06
1.49759e-06
1.68793e-06
1.62986e-06
1.66754e-06
1.75958e-06
1.64164e-06
1.88623e-06
1.61086e-06
2.00938e-06
1.57579e-06
2.12867e-06
1.53698e-06
2.2438e-06
1.49495e-06
2.3545e-06
1.45017e-06
2.46059e-06
1.4031e-06
2.56191e-06
1.35416e-06
2.65835e-06
1.30373e-06
2.74983e-06
1.25217e-06
2.83633e-06
1.1998e-06
2.91783e-06
1.14692e-06
2.99433e-06
1.09379e-06
3.06588e-06
1.04063e-06
3.13252e-06
9.87653e-07
3.19432e-06
9.35035e-07
3.25133e-06
8.82921e-07
3.30364e-06
8.31435e-07
3.35131e-06
7.80679e-07
7.30733e-07
-1.84145e-08
8.31702e-08
-6.09883e-08
2.50453e-07
-1.12747e-07
3.99804e-07
-1.61909e-07
5.30465e-07
-2.0072e-07
6.47308e-07
-2.24536e-07
7.54853e-07
-2.30833e-07
8.55989e-07
-2.18502e-07
9.52053e-07
-1.87417e-07
1.04328e-06
-1.38169e-07
1.12923e-06
-7.18709e-08
1.20916e-06
9.97825e-09
1.28223e-06
1.05561e-07
1.3477e-06
2.13057e-07
1.40488e-06
3.30522e-07
1.45345e-06
4.56073e-07
1.49322e-06
5.87933e-07
1.52423e-06
7.24468e-07
1.54671e-06
8.64205e-07
1.56102e-06
1.00584e-06
1.56765e-06
1.14822e-06
1.56712e-06
1.29035e-06
1.56002e-06
1.43136e-06
1.54691e-06
1.57051e-06
1.52839e-06
1.70715e-06
1.50499e-06
1.84075e-06
1.47727e-06
1.97082e-06
1.44572e-06
2.09698e-06
1.41083e-06
2.21889e-06
1.37304e-06
2.33628e-06
1.33277e-06
2.44895e-06
1.29044e-06
2.55671e-06
1.2464e-06
2.65944e-06
1.201e-06
2.75706e-06
1.15455e-06
2.84952e-06
1.10735e-06
2.93679e-06
1.05965e-06
3.01888e-06
1.0117e-06
3.0958e-06
9.63704e-07
3.16761e-06
9.15848e-07
3.23435e-06
8.68294e-07
3.29609e-06
8.21181e-07
3.3529e-06
7.74623e-07
3.40486e-06
7.28718e-07
6.83544e-07
-2.75763e-08
1.10746e-07
-8.87442e-08
3.11621e-07
-1.61412e-07
4.72472e-07
-2.29956e-07
5.99008e-07
-2.85162e-07
7.02513e-07
-3.22131e-07
7.91822e-07
-3.38566e-07
8.72425e-07
-3.33732e-07
9.47219e-07
-3.07878e-07
1.01742e-06
-2.61927e-07
1.08328e-06
-1.9728e-07
1.14451e-06
-1.15675e-07
1.20063e-06
-1.90321e-08
1.25105e-06
9.05448e-08
1.29531e-06
2.11031e-07
1.33297e-06
3.40415e-07
1.36384e-06
4.76803e-07
1.38784e-06
6.1845e-07
1.40506e-06
7.63778e-07
1.41569e-06
9.11383e-07
1.42004e-06
1.06003e-06
1.41848e-06
1.20864e-06
1.41141e-06
1.35628e-06
1.39927e-06
1.50215e-06
1.38251e-06
1.64557e-06
1.36158e-06
1.78593e-06
1.33691e-06
1.92274e-06
1.30891e-06
2.05559e-06
1.27798e-06
2.18412e-06
1.24451e-06
2.30804e-06
1.20885e-06
2.42713e-06
1.17135e-06
2.54119e-06
1.13233e-06
2.6501e-06
1.09209e-06
2.75376e-06
1.05089e-06
2.85211e-06
1.009e-06
2.94511e-06
9.6665e-07
3.03276e-06
9.24046e-07
3.11509e-06
8.81379e-07
3.19212e-06
8.38814e-07
3.26392e-06
7.96499e-07
3.33054e-06
7.54559e-07
3.39206e-06
7.13102e-07
3.44856e-06
6.72217e-07
6.31978e-07
-4.07101e-08
1.51457e-07
-1.26377e-07
3.97288e-07
-2.24681e-07
5.70776e-07
-3.15397e-07
6.89725e-07
-3.88125e-07
7.75241e-07
-4.38199e-07
8.41896e-07
-4.63973e-07
8.98199e-07
-4.65394e-07
9.4864e-07
-4.43312e-07
9.95341e-07
-3.99145e-07
1.03911e-06
-3.34691e-07
1.08006e-06
-2.51989e-07
1.11792e-06
-1.53223e-07
1.15229e-06
-4.06118e-08
1.18269e-06
8.36154e-08
1.20874e-06
2.17354e-07
1.2301e-06
3.58617e-07
1.24658e-06
5.05574e-07
1.2581e-06
6.56569e-07
1.2647e-06
8.10129e-07
1.26648e-06
9.64956e-07
1.26365e-06
1.11991e-06
1.25645e-06
1.27402e-06
1.24516e-06
1.42643e-06
1.23011e-06
1.57641e-06
1.2116e-06
1.72335e-06
1.18997e-06
1.86673e-06
1.16553e-06
2.0061e-06
1.13861e-06
2.1411e-06
1.10951e-06
2.27143e-06
1.07852e-06
2.39684e-06
1.04594e-06
2.51716e-06
1.01202e-06
2.63222e-06
9.7702e-07
2.74194e-06
9.41174e-07
2.84624e-06
9.04698e-07
2.9451e-06
8.67795e-07
3.0385e-06
8.30646e-07
3.12646e-06
7.93416e-07
3.20902e-06
7.56252e-07
3.28624e-06
7.19282e-07
3.35818e-06
6.82621e-07
3.42492e-06
6.46364e-07
3.48654e-06
6.10593e-07
5.75376e-07
-5.97481e-08
2.11205e-07
-1.77461e-07
5.15001e-07
-3.06401e-07
6.99715e-07
-4.21345e-07
8.04669e-07
-5.11535e-07
8.65432e-07
-5.7338e-07
9.03741e-07
-6.06473e-07
9.31292e-07
-6.11828e-07
9.53995e-07
-5.91144e-07
9.74657e-07
-5.46498e-07
9.94466e-07
-4.80182e-07
1.01374e-06
-3.94603e-07
1.03234e-06
-2.922e-07
1.04989e-06
-1.75387e-07
1.06588e-06
-4.64884e-08
1.07984e-06
9.22786e-08
1.09133e-06
2.38875e-07
1.09998e-06
3.91421e-07
1.10556e-06
5.48223e-07
1.1079e-06
7.07771e-07
1.10693e-06
8.68735e-07
1.10269e-06
1.02995e-06
1.09523e-06
1.1904e-06
1.08471e-06
1.34923e-06
1.07128e-06
1.50568e-06
1.05515e-06
1.65912e-06
1.03653e-06
1.809e-06
1.01564e-06
1.95489e-06
9.92719e-07
2.09641e-06
9.67993e-07
2.23324e-06
9.41691e-07
2.36514e-06
9.14035e-07
2.49192e-06
8.85238e-07
2.61344e-06
8.55506e-07
2.72958e-06
8.25031e-07
2.84028e-06
7.93995e-07
2.94551e-06
7.62565e-07
3.04526e-06
7.30895e-07
3.13955e-06
6.99127e-07
3.22842e-06
6.67384e-07
3.31192e-06
6.35781e-07
3.39013e-06
6.04414e-07
3.46312e-06
5.7337e-07
3.53099e-06
5.42721e-07
5.12528e-07
-8.77832e-08
2.98988e-07
-2.46809e-07
6.74027e-07
-4.10525e-07
8.63431e-07
-5.49378e-07
9.43522e-07
-6.54104e-07
9.70158e-07
-7.23529e-07
9.73165e-07
-7.59288e-07
9.67051e-07
-7.63935e-07
9.58641e-07
-7.403e-07
9.51023e-07
-6.91276e-07
9.45442e-07
-6.19724e-07
9.42192e-07
-5.28434e-07
9.41055e-07
-4.20084e-07
9.41536e-07
-2.97225e-07
9.43021e-07
-1.62252e-07
9.44868e-07
-1.73913e-08
9.46469e-07
1.35295e-07
9.47296e-07
2.93955e-07
9.46898e-07
4.56911e-07
9.44941e-07
6.22669e-07
9.41176e-07
7.8991e-07
9.35445e-07
9.57479e-07
9.27666e-07
1.12437e-06
9.17819e-07
1.28971e-06
9.05938e-07
1.45277e-06
8.92097e-07
1.61289e-06
8.76402e-07
1.76955e-06
8.58981e-07
1.92229e-06
8.39977e-07
2.07074e-06
8.19545e-07
2.21459e-06
7.97845e-07
2.35358e-06
7.75039e-07
2.48754e-06
7.51287e-07
2.61629e-06
7.26747e-07
2.73976e-06
7.01569e-07
2.85785e-06
6.75898e-07
2.97055e-06
6.4987e-07
3.07783e-06
6.2361e-07
3.17973e-06
5.97234e-07
3.27626e-06
5.70847e-07
3.3675e-06
5.44543e-07
3.45351e-06
5.18408e-07
3.53436e-06
4.92514e-07
3.61016e-06
4.66924e-07
4.41694e-07
-1.30065e-07
4.29052e-07
-3.40826e-07
8.84788e-07
-5.39532e-07
1.06214e-06
-6.95733e-07
1.09972e-06
-8.05335e-07
1.07976e-06
-8.71647e-07
1.03948e-06
-8.99447e-07
9.94852e-07
-8.93447e-07
9.52642e-07
-8.57949e-07
9.15524e-07
-7.9681e-07
8.84303e-07
-7.13487e-07
8.58869e-07
-6.11089e-07
8.38657e-07
-4.92432e-07
8.22879e-07
-3.60074e-07
8.10663e-07
-2.16346e-07
8.0114e-07
-6.33708e-08
7.93494e-07
9.69299e-08
7.86995e-07
2.62814e-07
7.81014e-07
4.32724e-07
7.75031e-07
6.05267e-07
7.68633e-07
7.79212e-07
7.61501e-07
9.53471e-07
7.53406e-07
1.1271e-06
7.44193e-07
1.29926e-06
7.33772e-07
1.46926e-06
7.22104e-07
1.63646e-06
7.09195e-07
1.80036e-06
6.95081e-07
1.96052e-06
6.79826e-07
2.11655e-06
6.63512e-07
2.26816e-06
6.46236e-07
2.4151e-06
6.28101e-07
2.55716e-06
6.09218e-07
2.69421e-06
5.89699e-07
2.82613e-06
5.69653e-07
2.95284e-06
5.4919e-07
3.07429e-06
5.28414e-07
3.19048e-06
5.07424e-07
3.3014e-06
4.86311e-07
3.40709e-06
4.6516e-07
3.50758e-06
4.44049e-07
3.60294e-06
4.23047e-07
3.69324e-06
4.02216e-07
3.77856e-06
3.8161e-07
3.61276e-07
-1.96238e-07
6.25291e-07
-4.67421e-07
1.15597e-06
-6.88916e-07
1.28363e-06
-8.40298e-07
1.25111e-06
-9.29594e-07
1.16906e-06
-9.67733e-07
1.07762e-06
-9.64197e-07
9.91316e-07
-9.26656e-07
9.151e-07
-8.61209e-07
8.50077e-07
-7.72698e-07
7.95792e-07
-6.65004e-07
7.51175e-07
-5.41298e-07
7.14951e-07
-4.04232e-07
6.85813e-07
-2.56073e-07
6.62505e-07
-9.8805e-08
6.43872e-07
6.58201e-08
6.28868e-07
2.36236e-07
6.16579e-07
4.11036e-07
6.06214e-07
5.88951e-07
5.97116e-07
7.68843e-07
5.88741e-07
9.4969e-07
5.80654e-07
1.13058e-06
5.72514e-07
1.31071e-06
5.64067e-07
1.48935e-06
5.55127e-07
1.66589e-06
5.4557e-07
1.83976e-06
5.3532e-07
2.0105e-06
5.24343e-07
2.17769e-06
5.12636e-07
2.34098e-06
5.00221e-07
2.50008e-06
4.87139e-07
2.65473e-06
4.73445e-07
2.80475e-06
4.59204e-07
2.94996e-06
4.44487e-07
3.09024e-06
4.2937e-07
3.22551e-06
4.13926e-07
3.35569e-06
3.98232e-07
3.48075e-06
3.8236e-07
3.60068e-06
3.6638e-07
3.71549e-06
3.50355e-07
3.82519e-06
3.34347e-07
3.92983e-06
3.1841e-07
4.02945e-06
3.02594e-07
4.12412e-06
2.86942e-07
2.71492e-07
-3.05808e-07
9.31099e-07
-6.30683e-07
1.48084e-06
-8.25404e-07
1.47835e-06
-9.11504e-07
1.33721e-06
-9.21672e-07
1.17922e-06
-8.78844e-07
1.03479e-06
-7.98603e-07
9.11076e-07
-6.91691e-07
8.08188e-07
-5.65475e-07
7.23862e-07
-4.24957e-07
6.55273e-07
-2.73555e-07
5.99772e-07
-1.13669e-07
5.55065e-07
5.29438e-08
5.192e-07
2.24934e-07
4.90514e-07
4.01222e-07
4.67584e-07
5.80884e-07
4.49206e-07
7.63101e-07
4.34362e-07
9.47119e-07
4.22195e-07
1.13224e-06
4.11994e-07
1.31781e-06
4.03174e-07
1.5032e-06
3.9526e-07
1.68784e-06
3.87877e-07
1.87118e-06
3.80729e-07
2.05271e-06
3.73593e-07
2.23198e-06
3.66304e-07
2.40855e-06
3.58747e-07
2.58205e-06
3.50848e-07
2.75212e-06
3.42563e-07
2.91846e-06
3.33877e-07
3.08081e-06
3.24792e-07
3.23892e-06
3.1533e-07
3.39261e-06
3.05519e-07
3.5417e-06
2.954e-07
3.68605e-06
2.85017e-07
3.82556e-06
2.74417e-07
3.96014e-06
2.63649e-07
4.08974e-06
2.52762e-07
4.21432e-06
2.41803e-07
4.33385e-06
2.30818e-07
4.44835e-06
2.19849e-07
4.55783e-06
2.08935e-07
4.66231e-06
1.98111e-07
4.76184e-06
1.8741e-07
1.7686e-07
-4.99522e-07
1.43062e-06
-7.78367e-07
1.75969e-06
-7.85799e-07
1.48579e-06
-6.62346e-07
1.21375e-06
-4.797e-07
9.96578e-07
-2.70243e-07
8.2533e-07
-4.99818e-08
6.90814e-07
1.72245e-07
5.85961e-07
3.9186e-07
5.04247e-07
6.06901e-07
4.40233e-07
8.16825e-07
3.89848e-07
1.02179e-06
3.50103e-07
1.22226e-06
3.18727e-07
1.41883e-06
2.93949e-07
1.61205e-06
2.74358e-07
1.80243e-06
2.58828e-07
1.99035e-06
2.46446e-07
2.17607e-06
2.36474e-07
2.35975e-06
2.28314e-07
2.54144e-06
2.2148e-07
2.72111e-06
2.15586e-07
2.89867e-06
2.10323e-07
3.07395e-06
2.05451e-07
3.24675e-06
2.00784e-07
3.41688e-06
1.96182e-07
3.58408e-06
1.91545e-07
3.74812e-06
1.86803e-07
3.90878e-06
1.8191e-07
4.06581e-06
1.76842e-07
4.21902e-06
1.71587e-07
4.3682e-06
1.66148e-07
4.51318e-06
1.60537e-07
4.65381e-06
1.54772e-07
4.78995e-06
1.48876e-07
4.92149e-06
1.42873e-07
5.04835e-06
1.36791e-07
5.17046e-06
1.30657e-07
5.28776e-06
1.24499e-07
5.40024e-06
1.18343e-07
5.50787e-06
1.12213e-07
5.61068e-06
1.06131e-07
5.70867e-06
1.0012e-07
5.80188e-06
9.41968e-08
8.83776e-08
-6.7166e-07
2.10228e-06
-3.74675e-07
1.4627e-06
1.88739e-07
9.22373e-07
7.22511e-07
6.7998e-07
1.19689e-06
5.22194e-07
1.61842e-06
4.03807e-07
1.99246e-06
3.16773e-07
2.32448e-06
2.53942e-07
2.62068e-06
2.08043e-07
2.88708e-06
1.73833e-07
3.12894e-06
1.47987e-07
3.35073e-06
1.28321e-07
3.55616e-06
1.13289e-07
3.74836e-06
1.01752e-07
3.92986e-06
9.28619e-08
4.10271e-06
8.59773e-08
4.26854e-06
8.0609e-08
4.42864e-06
7.63776e-08
4.58397e-06
7.2988e-08
4.73524e-06
7.02096e-08
4.88296e-06
6.78634e-08
5.02747e-06
6.58107e-08
5.16898e-06
6.39456e-08
5.30758e-06
6.21882e-08
5.44328e-06
6.04794e-08
5.57605e-06
5.8777e-08
5.7058e-06
5.70521e-08
5.83242e-06
5.52862e-08
5.95579e-06
5.34691e-08
6.07578e-06
5.1597e-08
6.19226e-06
4.96709e-08
6.3051e-06
4.76953e-08
6.4142e-06
4.5677e-08
6.51945e-06
4.3625e-08
6.62077e-06
4.15487e-08
6.71811e-06
3.94584e-08
6.8114e-06
3.73643e-08
6.90062e-06
3.52763e-08
6.98576e-06
3.32037e-08
7.06682e-06
3.11551e-08
7.14381e-06
2.91385e-08
7.21677e-06
2.71606e-08
7.28574e-06
2.52274e-08
2.33439e-08
2.10228e-06
3.56499e-06
4.48736e-06
5.16734e-06
5.68953e-06
6.09334e-06
6.41011e-06
6.66405e-06
6.8721e-06
7.04593e-06
7.19392e-06
7.32224e-06
7.43553e-06
7.53728e-06
7.63014e-06
7.71612e-06
7.79673e-06
7.8731e-06
7.94609e-06
8.0163e-06
8.08417e-06
8.14998e-06
8.21392e-06
8.27611e-06
8.33659e-06
8.39537e-06
8.45242e-06
8.5077e-06
8.56117e-06
8.61277e-06
8.66244e-06
8.71014e-06
8.75581e-06
8.79944e-06
8.84099e-06
8.88045e-06
8.91781e-06
8.95309e-06
8.98629e-06
9.01745e-06
9.04658e-06
9.07374e-06
9.09897e-06
)
;

boundaryField
{
    movingWall
    {
        type            calculated;
        value           uniform 0;
    }
    fixedWalls
    {
        type            calculated;
        value           uniform 0;
    }
    frontAndBack
    {
        type            empty;