/*--------------------------------*- C++ -*----------------------------------*\
  =========                 |
  \\      /  F ield         | OpenFOAM: The Open Source CFD Toolbox
   \\    /   O peration     | Website:  https://openfoam.org
    \\  /    A nd           | Version:  9
     \\/     M anipulation  |
\*---------------------------------------------------------------------------*/
FoamFile
{
    format      ascii;
    class       volVectorField;
    location    "3";
    object      U;
}
// * * * * * * * * * * * * * * * * * * * * * * * * * * * * * * * * * * * * * //

dimensions      [0 1 -1 0 0 0 0];

internalField   nonuniform List<vector> 
1250
(
(0.144069 0.279387 0)
(0.146254 0.269495 0)
(0.148201 0.259229 0)
(0.149935 0.248705 0)
(0.151484 0.238021 0)
(0.152869 0.22726 0)
(0.154115 0.21649 0)
(0.155238 0.205764 0)
(0.156256 0.195123 0)
(0.157179 0.184595 0)
(0.158017 0.1742 0)
(0.158774 0.163948 0)
(0.159454 0.153845 0)
(0.160057 0.143889 0)
(0.160579 0.134077 0)
(0.161018 0.124402 0)
(0.161369 0.114856 0)
(0.161624 0.105429 0)
(0.000265491 0.0110585 0)
(0.00199468 0.0362012 0)
(0.00580612 0.063796 0)
(0.0112163 0.0930296 0)
(0.0179203 0.122927 0)
(0.0256096 0.152464 0)
(0.0339356 0.180695 0)
(0.0425624 0.206849 0)
(0.0512061 0.230398 0)
(0.0596563 0.251061 0)
(0.067781 0.268772 0)
(0.0755175 0.283623 0)
(0.0828544 0.295796 0)
(0.0898106 0.305505 0)
(0.0964166 0.312961 0)
(0.102701 0.318346 0)
(0.108683 0.321811 0)
(0.114371 0.323484 0)
(0.119763 0.323474 0)
(0.12485 0.321888 0)
(0.129622 0.318836 0)
(0.134068 0.314435 0)
(0.138182 0.308812 0)
(0.141963 0.302103 0)
(0.145416 0.294451 0)
(0.148553 0.286 0)
(0.151388 0.27689 0)
(0.153943 0.267258 0)
(0.156241 0.257228 0)
(0.158306 0.246914 0)
(0.160164 0.236414 0)
(0.161837 0.225815 0)
(0.163348 0.215186 0)
(0.164716 0.204584 0)
(0.165958 0.194052 0)
(0.167087 0.183623 0)
(0.168113 0.173319 0)
(0.169042 0.163153 0)
(0.169879 0.153133 0)
(0.170625 0.143262 0)
(0.171279 0.133537 0)
(0.171839 0.123953 0)
(0.1723 0.114503 0)
(0.172657 0.105179 0)
(0.000246032 0.0100709 0)
(0.00188019 0.0333708 0)
(0.00551906 0.0592862 0)
(0.0107383 0.0870614 0)
(0.0172777 0.115782 0)
(0.0248655 0.144467 0)
(0.0331802 0.172179 0)
(0.0418986 0.198124 0)
(0.0507345 0.221716 0)
(0.0594633 0.242603 0)
(0.0679321 0.260647 0)
(0.0760565 0.275879 0)
(0.0838059 0.288435 0)
(0.0911855 0.298509 0)
(0.0982179 0.306302 0)
(0.104929 0.311999 0)
(0.111337 0.315763 0)
(0.117454 0.31773 0)
(0.123278 0.318019 0)
(0.128802 0.316742 0)
(0.134016 0.314009 0)
(0.138907 0.309936 0)
(0.143468 0.304647 0)
(0.147695 0.298271 0)
(0.151587 0.290947 0)
(0.155154 0.28281 0)
(0.158408 0.273999 0)
(0.161366 0.264644 0)
(0.164048 0.254869 0)
(0.166476 0.244786 0)
(0.168676 0.234494 0)
(0.170669 0.224079 0)
(0.172477 0.213613 0)
(0.174119 0.203156 0)
(0.175614 0.192754 0)
(0.176975 0.182442 0)
(0.178213 0.172246 0)
(0.179336 0.162183 0)
(0.180351 0.152263 0)
(0.181259 0.14249 0)
(0.182061 0.132864 0)
(0.182755 0.123382 0)
(0.18334 0.114039 0)
(0.183809 0.104826 0)
(0.00022638 0.0091448 0)
(0.00175949 0.0306878 0)
(0.00520754 0.0549699 0)
(0.0102036 0.0812907 0)
(0.0165316 0.108798 0)
(0.0239582 0.136559 0)
(0.0321932 0.163658 0)
(0.0409317 0.189291 0)
(0.0498914 0.212829 0)
(0.0588387 0.233859 0)
(0.0676036 0.252175 0)
(0.0760806 0.267746 0)
(0.0842198 0.280664 0)
(0.0920107 0.291091 0)
(0.0994657 0.299215 0)
(0.106605 0.305224 0)
(0.113446 0.309283 0)
(0.12 0.31154 0)
(0.126268 0.312123 0)
(0.132243 0.311148 0)
(0.137916 0.308729 0)
(0.143272 0.304981 0)
(0.148301 0.300024 0)
(0.152997 0.293984 0)
(0.157356 0.286993 0)
(0.161383 0.279181 0)
(0.165085 0.270682 0)
(0.168478 0.261621 0)
(0.171578 0.25212 0)
(0.174405 0.242288 0)
(0.176981 0.232225 0)
(0.179327 0.222018 0)
(0.181466 0.211739 0)
(0.183415 0.201449 0)
(0.185193 0.191199 0)
(0.186815 0.181026 0)
(0.188292 0.170959 0)
(0.189635 0.161017 0)
(0.190849 0.151213 0)
(0.19194 0.141554 0)
(0.192909 0.132041 0)
(0.193755 0.122675 0)
(0.194478 0.11345 0)
(0.195073 0.10436 0)
(0.00020667 0.00828285 0)
(0.00163339 0.0281641 0)
(0.00487367 0.0508714 0)
(0.00961597 0.075756 0)
(0.0156872 0.102026 0)
(0.0228936 0.128803 0)
(0.0309794 0.155204 0)
(0.0396634 0.180423 0)
(0.0486735 0.203805 0)
(0.0577728 0.224887 0)
(0.066778 0.243402 0)
(0.0755651 0.259259 0)
(0.0840648 0.272502 0)
(0.0922497 0.28326 0)
(0.10012 0.291704 0)
(0.107687 0.298015 0)
(0.114966 0.302364 0)
(0.121967 0.304905 0)
(0.12869 0.305773 0)
(0.135131 0.305092 0)
(0.141278 0.302979 0)
(0.147117 0.299549 0)
(0.152636 0.294921 0)
(0.157824 0.289217 0)
(0.162676 0.282562 0)
(0.167191 0.275083 0)
(0.171374 0.266906 0)
(0.175234 0.258155 0)
(0.178786 0.248945 0)
(0.182046 0.239386 0)
(0.185034 0.229575 0)
(0.18777 0.219597 0)
(0.190273 0.209529 0)
(0.192563 0.199432 0)
(0.194657 0.189357 0)
(0.196571 0.179346 0)
(0.198318 0.169429 0)
(0.199907 0.159628 0)
(0.201347 0.14996 0)
(0.202644 0.140432 0)
(0.203801 0.13105 0)
(0.204818 0.121815 0)
(0.205697 0.112722 0)
(0.206433 0.103768 0)
(0.000186993 0.00748733 0)
(0.00150237 0.0258105 0)
(0.00451874 0.0470138 0)
(0.00897785 0.0704945 0)
(0.0147482 0.0955196 0)
(0.0216759 0.121266 0)
(0.0295425 0.146888 0)
(0.0380953 0.171595 0)
(0.047078 0.194718 0)
(0.0562566 0.215752 0)
(0.0654393 0.23438 0)
(0.0744867 0.250456 0)
(0.0833107 0.263976 0)
(0.0918666 0.275033 0)
(0.10014 0.283774 0)
(0.108132 0.290373 0)
(0.115853 0.295 0)
(0.123308 0.297813 0)
(0.130499 0.298956 0)
(0.137419 0.298558 0)
(0.144056 0.29674 0)
(0.150397 0.293621 0)
(0.156426 0.289316 0)
(0.162131 0.283944 0)
(0.167501 0.277626 0)
(0.172532 0.270485 0)
(0.177225 0.262641 0)
(0.181585 0.254212 0)
(0.185622 0.245311 0)
(0.189351 0.236043 0)
(0.192786 0.226505 0)
(0.195947 0.216782 0)
(0.198852 0.206949 0)
(0.201518 0.197069 0)
(0.203963 0.187195 0)
(0.206202 0.177369 0)
(0.208249 0.167626 0)
(0.210115 0.15799 0)
(0.211809 0.148478 0)
(0.213338 0.139102 0)
(0.214706 0.129869 0)
(0.215917 0.120781 0)
(0.216971 0.111837 0)
(0.217866 0.103033 0)
(0.000167373 0.00676035 0)
(0.00136646 0.0236379 0)
(0.00414285 0.0434193 0)
(0.00828964 0.0655425 0)
(0.0137156 0.0893285 0)
(0.0203067 0.11401 0)
(0.0278839 0.138785 0)
(0.0362272 0.162887 0)
(0.0451016 0.185643 0)
(0.0542818 0.206524 0)
(0.0635729 0.225169 0)
(0.0728234 0.241384 0)
(0.0819287 0.255119 0)
(0.0908262 0.266428 0)
(0.0994856 0.275435 0)
(0.107897 0.282298 0)
(0.116061 0.287184 0)
(0.123978 0.290255 0)
(0.131646 0.291659 0)
(0.139059 0.291531 0)
(0.146204 0.289997 0)
(0.153065 0.287177 0)
(0.159625 0.283186 0)
(0.165868 0.278142 0)
(0.171781 0.272161 0)
(0.177355 0.26536 0)
(0.182587 0.257855 0)
(0.187478 0.24976 0)
(0.192034 0.241183 0)
(0.196265 0.232225 0)
(0.200184 0.222982 0)
(0.203806 0.213536 0)
(0.207148 0.203962 0)
(0.210227 0.194324 0)
(0.213058 0.184677 0)
(0.215657 0.175063 0)
(0.218038 0.165519 0)
(0.220212 0.156071 0)
(0.22219 0.146739 0)
(0.223979 0.137537 0)
(0.225586 0.128474 0)
(0.227013 0.119553 0)
(0.228264 0.110775 0)
(0.229339 0.102138 0)
(0.000147743 0.00610413 0)
(0.001225 0.0216571 0)
(0.00374431 0.0401108 0)
(0.00754885 0.0609361 0)
(0.0125865 0.0835034 0)
(0.0187832 0.107099 0)
(0.026001 0.13097 0)
(0.0340557 0.15438 0)
(0.0427387 0.176664 0)
(0.051839 0.19728 0)
(0.0611639 0.215836 0)
(0.0705543 0.232097 0)
(0.0798911 0.245969 0)
(0.089095 0.257471 0)
(0.0981188 0.266699 0)
(0.106939 0.273794 0)
(0.115544 0.278915 0)
(0.123928 0.282223 0)
(0.132086 0.28387 0)
(0.140006 0.283996 0)
(0.147674 0.282732 0)
(0.155073 0.280198 0)
(0.162184 0.276511 0)
(0.168987 0.271788 0)
(0.175466 0.266139 0)
(0.181609 0.25968 0)
(0.187408 0.252519 0)
(0.19286 0.244767 0)
(0.197966 0.236527 0)
(0.202733 0.227897 0)
(0.20717 0.218968 0)
(0.211289 0.209822 0)
(0.215104 0.200532 0)
(0.218631 0.191163 0)
(0.221884 0.181768 0)
(0.224878 0.172393 0)
(0.227627 0.163074 0)
(0.230143 0.153841 0)
(0.232436 0.144714 0)
(0.234516 0.13571 0)
(0.236388 0.126838 0)
(0.238058 0.118105 0)
(0.239531 0.109514 0)
(0.240806 0.101062 0)
(0.000127893 0.00552139 0)
(0.00107642 0.0198805 0)
(0.00331901 0.0371123 0)
(0.00674885 0.0567129 0)
(0.0113526 0.0780955 0)
(0.0170964 0.100598 0)
(0.0238844 0.123517 0)
(0.0315713 0.146154 0)
(0.039979 0.167862 0)
(0.0489158 0.188099 0)
(0.0581964 0.206452 0)
(0.0676584 0.222654 0)
(0.0771716 0.236574 0)
(0.0866408 0.248195 0)
(0.096002 0.257586 0)
(0.105216 0.264868 0)
(0.114258 0.27019 0)
(0.123114 0.273708 0)
(0.13177 0.275577 0)
(0.140211 0.275938 0)
(0.148419 0.274926 0)
(0.156374 0.272665 0)
(0.164055 0.269271 0)
(0.171439 0.264858 0)
(0.178508 0.259538 0)
(0.185244 0.253418 0)
(0.191636 0.246606 0)
(0.197676 0.239204 0)
(0.203362 0.231313 0)
(0.208696 0.223025 0)
(0.213683 0.21443 0)
(0.218333 0.205605 0)
(0.222656 0.196624 0)
(0.226667 0.187549 0)
(0.230377 0.178434 0)
(0.233802 0.169324 0)
(0.236953 0.160258 0)
(0.239844 0.151266 0)
(0.242485 0.142371 0)
(0.244885 0.133589 0)
(0.247052 0.124934 0)
(0.248993 0.116413 0)
(0.250713 0.10803 0)
(0.252213 0.0997846 0)
(0.000107394 0.00501592 0)
(0.000917739 0.0183233 0)
(0.00285928 0.0344517 0)
(0.00587724 0.0529133 0)
(0.00999801 0.0731578 0)
(0.0152284 0.0945715 0)
(0.0215161 0.116501 0)
(0.0287566 0.138291 0)
(0.0368054 0.159324 0)
(0.0454947 0.179065 0)
(0.0546514 0.197093 0)
(0.0641138 0.21312 0)
(0.0737441 0.226983 0)
(0.0834329 0.238636 0)
(0.0931 0.248118 0)
(0.102689 0.255531 0)
(0.112162 0.261011 0)
(0.12149 0.264706 0)
(0.130652 0.266768 0)
(0.139627 0.267343 0)
(0.14839 0.266564 0)
(0.15692 0.264559 0)
(0.16519 0.261444 0)
(0.173176 0.257333 0)
(0.180856 0.252334 0)
(0.188208 0.246552 0)
(0.195217 0.240089 0)
(0.201871 0.233043 0)
(0.208165 0.22551 0)
(0.214094 0.21758 0)
(0.219662 0.209335 0)
(0.224874 0.200853 0)
(0.229738 0.192203 0)
(0.234266 0.183447 0)
(0.238468 0.174638 0)
(0.242356 0.165822 0)
(0.245944 0.157037 0)
(0.249243 0.148314 0)
(0.252263 0.139677 0)
(0.255016 0.131146 0)
(0.257508 0.122733 0)
(0.259748 0.114449 0)
(0.26174 0.106297 0)
(0.26349 0.0982814 0)
(8.54775e-05 0.00459345 0)
(0.000743989 0.0170055 0)
(0.00235259 0.0321626 0)
(0.00491375 0.0495831 0)
(0.00849633 0.0687469 0)
(0.0131494 0.0890854 0)
(0.0188654 0.109997 0)
(0.0255819 0.130872 0)
(0.0331907 0.151131 0)
(0.0415505 0.170257 0)
(0.0505044 0.187835 0)
(0.0598958 0.20356 0)
(0.0695819 0.217251 0)
(0.079442 0.228834 0)
(0.0893799 0.238324 0)
(0.0993224 0.245799 0)
(0.109215 0.251382 0)
(0.119015 0.255212 0)
(0.12869 0.257435 0)
(0.138209 0.258195 0)
(0.147544 0.257629 0)
(0.156665 0.255861 0)
(0.165543 0.253012 0)
(0.174151 0.249191 0)
(0.182461 0.244506 0)
(0.190451 0.239058 0)
(0.198099 0.232944 0)
(0.205391 0.226259 0)
(0.212316 0.219093 0)
(0.218867 0.211531 0)
(0.225043 0.203654 0)
(0.230846 0.195533 0)
(0.236281 0.187237 0)
(0.241356 0.178824 0)
(0.24608 0.170348 0)
(0.250465 0.161852 0)
(0.254521 0.153376 0)
(0.25826 0.144951 0)
(0.261692 0.136602 0)
(0.264826 0.128349 0)
(0.267673 0.120206 0)
(0.27024 0.112185 0)
(0.272533 0.104291 0)
(0.274557 0.0965283 0)
(6.08653e-05 0.00426288 0)
(0.000547371 0.0159547 0)
(0.00177968 0.0302881 0)
(0.00382746 0.0467767 0)
(0.00680761 0.0649255 0)
(0.0108143 0.0842092 0)
(0.0158857 0.104078 0)
(0.0220026 0.123975 0)
(0.0290937 0.143363 0)
(0.0370467 0.161757 0)
(0.0457232 0.178751 0)
(0.0549747 0.194042 0)
(0.0646568 0.207434 0)
(0.0746393 0.218833 0)
(0.0848113 0.228232 0)
(0.0950828 0.23569 0)
(0.105382 0.241311 0)
(0.115651 0.245224 0)
(0.125843 0.247568 0)
(0.135917 0.248484 0)
(0.145837 0.248104 0)
(0.155566 0.246556 0)
(0.16507 0.243955 0)
(0.174318 0.240414 0)
(0.183278 0.236034 0)
(0.191924 0.230915 0)
(0.200231 0.22515 0)
(0.208181 0.218829 0)
(0.215759 0.212037 0)
(0.222954 0.204856 0)
(0.229762 0.19736 0)
(0.236181 0.189619 0)
(0.242213 0.181697 0)
(0.247863 0.173652 0)
(0.253138 0.165533 0)
(0.258048 0.157385 0)
(0.262602 0.149247 0)
(0.26681 0.141148 0)
(0.270682 0.133115 0)
(0.274228 0.125168 0)
(0.277458 0.117324 0)
(0.280379 0.109593 0)
(0.282998 0.101984 0)
(0.285322 0.0945006 0)
(3.15608e-05 0.00403794 0)
(0.000316132 0.0152104 0)
(0.00111212 0.0288849 0)
(0.00257351 0.0445605 0)
(0.00487435 0.0617645 0)
(0.00815799 0.0800157 0)
(0.0125101 0.0988197 0)
(0.0179545 0.117676 0)
(0.0244564 0.136097 0)
(0.0319327 0.153636 0)
(0.0402647 0.169911 0)
(0.0493141 0.184627 0)
(0.0589369 0.197584 0)
(0.0689956 0.208674 0)
(0.0793661 0.217873 0)
(0.0899416 0.225222 0)
(0.100633 0.230806 0)
(0.111366 0.234743 0)
(0.122077 0.237162 0)
(0.132715 0.238196 0)
(0.143232 0.237976 0)
(0.153584 0.236624 0)
(0.16373 0.234257 0)
(0.173635 0.230982 0)
(0.183262 0.226899 0)
(0.192582 0.222105 0)
(0.201565 0.216688 0)
(0.210191 0.210734 0)
(0.218439 0.204323 0)
(0.226298 0.197531 0)
(0.233757 0.190431 0)
(0.240812 0.183087 0)
(0.247463 0.175559 0)
(0.253711 0.167903 0)
(0.259561 0.160167 0)
(0.265021 0.152394 0)
(0.270098 0.144619 0)
(0.274801 0.136875 0)
(0.279141 0.129188 0)
(0.283125 0.121577 0)
(0.286763 0.11406 0)
(0.290064 0.106648 0)
(0.293035 0.0993508 0)
(0.295684 0.092174 0)
(-5.36475e-06 0.00394021 0)
(3.30012e-05 0.0148291 0)
(0.000309062 0.0280292 0)
(0.00108889 0.0430178 0)
(0.00261701 0.0593468 0)
(0.0050917 0.0765836 0)
(0.00864776 0.094295 0)
(0.0133506 0.112043 0)
(0.0192002 0.129398 0)
(0.0261407 0.145959 0)
(0.0340728 0.161376 0)
(0.0428685 0.175372 0)
(0.0523857 0.187751 0)
(0.0624809 0.198399 0)
(0.073018 0.207279 0)
(0.0838747 0.214415 0)
(0.0949438 0.219879 0)
(0.106134 0.223772 0)
(0.117366 0.226212 0)
(0.128574 0.227324 0)
(0.139698 0.227231 0)
(0.150685 0.226053 0)
(0.161489 0.223901 0)
(0.172065 0.22088 0)
(0.182374 0.217086 0)
(0.192381 0.212612 0)
(0.202056 0.207542 0)
(0.211371 0.201957 0)
(0.220305 0.195933 0)
(0.228841 0.189541 0)
(0.236967 0.182849 0)
(0.244675 0.175917 0)
(0.251961 0.168803 0)
(0.258826 0.161557 0)
(0.26527 0.154228 0)
(0.2713 0.146853 0)
(0.276921 0.139471 0)
(0.282142 0.13211 0)
(0.286971 0.124796 0)
(0.291416 0.11755 0)
(0.295486 0.110388 0)
(0.29919 0.103325 0)
(0.302535 0.0963682 0)
(0.305529 0.0895255 0)
(-5.4719e-05 0.00400238 0)
(-0.000327591 0.01489 0)
(-0.000686992 0.0278237 0)
(-0.000712299 0.0422545 0)
(-7.07358e-05 0.0577691 0)
(0.00149806 0.0739972 0)
(0.00417949 0.0905765 0)
(0.00807773 0.10714 0)
(0.0132232 0.123323 0)
(0.0195837 0.138776 0)
(0.0270763 0.153192 0)
(0.0355821 0.166318 0)
(0.0449607 0.177971 0)
(0.0550633 0.188038 0)
(0.065743 0.196473 0)
(0.0768624 0.203288 0)
(0.0882972 0.208539 0)
(0.0999385 0.212313 0)
(0.111691 0.214715 0)
(0.123473 0.215859 0)
(0.135212 0.215859 0)
(0.146845 0.214829 0)
(0.158317 0.212874 0)
(0.169576 0.210094 0)
(0.180579 0.206582 0)
(0.191286 0.202423 0)
(0.201662 0.197699 0)
(0.211677 0.192486 0)
(0.221306 0.186855 0)
(0.23053 0.180872 0)
(0.239333 0.1746 0)
(0.247705 0.168096 0)
(0.255639 0.161412 0)
(0.263133 0.154598 0)
(0.270186 0.147697 0)
(0.2768 0.140747 0)
(0.282982 0.133782 0)
(0.288737 0.12683 0)
(0.294073 0.119918 0)
(0.298997 0.113066 0)
(0.303518 0.106289 0)
(0.307644 0.0996023 0)
(0.311383 0.0930149 0)
(0.314743 0.0865345 0)
(-0.00012452 0.00427274 0)
(-0.000801354 0.0155049 0)
(-0.00195313 0.0284051 0)
(-0.00294527 0.0424036 0)
(-0.00332844 0.0571461 0)
(-0.00277277 0.0723478 0)
(-0.00104444 0.0877338 0)
(0.00199482 0.103019 0)
(0.0063994 0.117911 0)
(0.0121543 0.132121 0)
(0.0191883 0.145388 0)
(0.0273881 0.157493 0)
(0.0366132 0.16827 0)
(0.0467093 0.177614 0)
(0.0575189 0.185474 0)
(0.0688905 0.191854 0)
(0.0806836 0.196795 0)
(0.092772 0.20037 0)
(0.105044 0.20267 0)
(0.117402 0.203796 0)
(0.129761 0.203853 0)
(0.142047 0.202944 0)
(0.154195 0.201167 0)
(0.166146 0.198615 0)
(0.177851 0.195375 0)
(0.189264 0.191529 0)
(0.200348 0.187152 0)
(0.211069 0.182314 0)
(0.2214 0.177081 0)
(0.231317 0.171517 0)
(0.240803 0.165676 0)
(0.249844 0.159614 0)
(0.258432 0.153379 0)
(0.266561 0.147015 0)
(0.27423 0.140564 0)
(0.281439 0.134061 0)
(0.288192 0.127538 0)
(0.294492 0.121023 0)
(0.300348 0.11454 0)
(0.305764 0.108108 0)
(0.31075 0.101745 0)
(0.315314 0.095463 0)
(0.319462 0.0892731 0)
(0.323202 0.083183 0)
(-0.000225869 0.0048231 0)
(-0.00143907 0.0168308 0)
(-0.00359483 0.0299539 0)
(-0.00575865 0.0436305 0)
(-0.00733121 0.0576113 0)
(-0.00790678 0.0717322 0)
(-0.00720682 0.0858308 0)
(-0.00506765 0.0997189 0)
(-0.00142115 0.113184 0)
(0.00372638 0.126005 0)
(0.0103079 0.137971 0)
(0.0182099 0.148901 0)
(0.0272892 0.158652 0)
(0.037384 0.167131 0)
(0.0483263 0.174287 0)
(0.0599509 0.180117 0)
(0.0721021 0.18465 0)
(0.0846374 0.187945 0)
(0.0974292 0.190077 0)
(0.110365 0.191135 0)
(0.123347 0.191209 0)
(0.136288 0.190392 0)
(0.149114 0.188773 0)
(0.16176 0.186436 0)
(0.17417 0.183462 0)
(0.186292 0.179925 0)
(0.198086 0.175894 0)
(0.209514 0.171436 0)
(0.220546 0.166609 0)
(0.231156 0.161471 0)
(0.241324 0.156075 0)
(0.251035 0.150469 0)
(0.260277 0.144698 0)
(0.269044 0.138803 0)
(0.277331 0.132823 0)
(0.285137 0.126789 0)
(0.292464 0.120732 0)
(0.299316 0.114678 0)
(0.305697 0.10865 0)
(0.311615 0.102666 0)
(0.317075 0.096743 0)
(0.322086 0.0908939 0)
(0.326654 0.0851291 0)
(0.330789 0.0794565 0)
(-0.000375754 0.00575913 0)
(-0.00231221 0.0190831 0)
(-0.0057527 0.0327055 0)
(-0.00934335 0.0461386 0)
(-0.0122958 0.0593151 0)
(-0.0141265 0.0722483 0)
(-0.0145213 0.0849212 0)
(-0.0133045 0.0972595 0)
(-0.0104071 0.10914 0)
(-0.00584011 0.120412 0)
(0.000323877 0.13092 0)
(0.00796525 0.140522 0)
(0.0169326 0.1491 0)
(0.0270546 0.156576 0)
(0.0381508 0.162903 0)
(0.0500432 0.168072 0)
(0.0625619 0.172101 0)
(0.0755495 0.175035 0)
(0.0888636 0.176935 0)
(0.102378 0.177873 0)
(0.115981 0.177925 0)
(0.129577 0.177172 0)
(0.14308 0.175691 0)
(0.156419 0.173557 0)
(0.16953 0.170842 0)
(0.182358 0.167612 0)
(0.194857 0.16393 0)
(0.206987 0.159854 0)
(0.218714 0.155441 0)
(0.230011 0.15074 0)
(0.240855 0.145799 0)
(0.251229 0.140663 0)
(0.26112 0.135372 0)
(0.270518 0.129965 0)
(0.279419 0.124474 0)
(0.28782 0.11893 0)
(0.29572 0.113362 0)
(0.303123 0.107792 0)
(0.310032 0.102243 0)
(0.316454 0.096733 0)
(0.322393 0.0912762 0)
(0.327858 0.0858859 0)
(0.332856 0.0805723 0)
(0.337394 0.0753435 0)
(-0.000600458 0.00723472 0)
(-0.00352143 0.0225543 0)
(-0.00861228 0.0369601 0)
(-0.0139387 0.0501693 0)
(-0.0184817 0.0624222 0)
(-0.0216877 0.0739892 0)
(-0.023225 0.0850409 0)
(-0.0229254 0.0956358 0)
(-0.0207369 0.105747 0)
(-0.0166893 0.115296 0)
(-0.0108729 0.124183 0)
(-0.00342432 0.132304 0)
(0.00549365 0.13957 0)
(0.0156966 0.145914 0)
(0.0269888 0.151296 0)
(0.0391799 0.1557 0)
(0.0520869 0.159137 0)
(0.0655391 0.161636 0)
(0.0793813 0.163242 0)
(0.0934747 0.164011 0)
(0.107697 0.164004 0)
(0.121941 0.163288 0)
(0.136115 0.161927 0)
(0.150137 0.159984 0)
(0.163939 0.157521 0)
(0.177462 0.154596 0)
(0.190655 0.151265 0)
(0.203475 0.147578 0)
(0.215885 0.143585 0)
(0.227857 0.139331 0)
(0.239365 0.134858 0)
(0.25039 0.130206 0)
(0.260918 0.12541 0)
(0.270938 0.120506 0)
(0.280444 0.115523 0)
(0.289432 0.11049 0)
(0.2979 0.10543 0)
(0.305851 0.100368 0)
(0.313287 0.0953207 0)
(0.320214 0.0903067 0)
(0.326637 0.0853398 0)
(0.332564 0.0804321 0)
(0.338001 0.0755936 0)
(0.342958 0.0708322 0)
(-0.000941143 0.00947389 0)
(-0.0052093 0.0276371 0)
(-0.0124161 0.0430907 0)
(-0.0198367 0.0559983 0)
(-0.026186 0.0671003 0)
(-0.0308659 0.0770312 0)
(-0.0335588 0.0861975 0)
(-0.0341311 0.0948084 0)
(-0.0325701 0.102937 0)
(-0.0289415 0.110575 0)
(-0.0233663 0.117673 0)
(-0.0160053 0.124166 0)
(-0.00704458 0.129989 0)
(0.00331572 0.135086 0)
(0.0148671 0.139419 0)
(0.027404 0.142969 0)
(0.0407318 0.145736 0)
(0.0546686 0.147734 0)
(0.0690483 0.148993 0)
(0.0837221 0.14955 0)
(0.0985583 0.149453 0)
(0.113442 0.148749 0)
(0.128272 0.147491 0)
(0.142964 0.145729 0)
(0.157441 0.143514 0)
(0.171642 0.140894 0)
(0.185511 0.137916 0)
(0.199003 0.134623 0)
(0.212079 0.131058 0)
(0.224708 0.12726 0)
(0.236864 0.123266 0)
(0.248526 0.11911 0)
(0.259678 0.114824 0)
(0.27031 0.110439 0)
(0.280412 0.105981 0)
(0.289981 0.101475 0)
(0.299014 0.0969428 0)
(0.307514 0.0924056 0)
(0.315481 0.0878804 0)
(0.322922 0.0833828 0)
(0.329843 0.0789259 0)
(0.336249 0.074521 0)
(0.342149 0.0701775 0)
(0.347551 0.065903 0)
(-0.00146396 0.0128042 0)
(-0.00757988 0.034851 0)
(-0.0174774 0.0515449 0)
(-0.027379 0.0639188 0)
(-0.03572 0.0734968 0)
(-0.0419162 0.0814112 0)
(-0.0457135 0.0883524 0)
(-0.0470493 0.0946903 0)
(-0.0459763 0.100595 0)
(-0.0426152 0.106123 0)
(-0.0371308 0.111268 0)
(-0.0297182 0.115995 0)
(-0.0205907 0.120258 0)
(-0.0099699 0.124009 0)
(0.00192136 0.127209 0)
(0.0148658 0.129832 0)
(0.0286574 0.131867 0)
(0.0431053 0.133313 0)
(0.0580356 0.134181 0)
(0.0732923 0.134494 0)
(0.0887368 0.134278 0)
(0.104248 0.133568 0)
(0.11972 0.132399 0)
(0.135063 0.13081 0)
(0.150196 0.128839 0)
(0.165055 0.126523 0)
(0.179582 0.123901 0)
(0.193728 0.121008 0)
(0.207455 0.117878 0)
(0.220728 0.114544 0)
(0.233521 0.111038 0)
(0.245812 0.10739 0)
(0.257584 0.103625 0)
(0.268827 0.0997708 0)
(0.27953 0.0958503 0)
(0.289689 0.0918852 0)
(0.299303 0.0878952 0)
(0.308371 0.083898 0)
(0.316897 0.0799091 0)
(0.324886 0.0759426 0)
(0.332343 0.0720102 0)
(0.339276 0.0681223 0)
(0.345692 0.0642875 0)
(0.351602 0.0605128 0)
(-0.0022793 0.0177102 0)
(-0.0109309 0.044872 0)
(-0.0241929 0.0628272 0)
(-0.0369304 0.074198 0)
(-0.0473418 0.0816903 0)
(-0.0549667 0.0870825 0)
(-0.0596892 0.0913833 0)
(-0.0615641 0.0951194 0)
(-0.0607398 0.0985442 0)
(-0.0574113 0.101763 0)
(-0.0518004 0.104802 0)
(-0.044144 0.107643 0)
(-0.0346859 0.110251 0)
(-0.0236696 0.11258 0)
(-0.0113329 0.114586 0)
(0.00209747 0.116232 0)
(0.0164086 0.117492 0)
(0.031404 0.11835 0)
(0.0469051 0.118799 0)
(0.0627523 0.118842 0)
(0.078804 0.11849 0)
(0.0949357 0.117759 0)
(0.111039 0.11667 0)
(0.12702 0.115246 0)
(0.142799 0.113515 0)
(0.158306 0.111503 0)
(0.173483 0.109237 0)
(0.188282 0.106745 0)
(0.20266 0.104053 0)
(0.216584 0.101189 0)
(0.230026 0.0981768 0)
(0.242965 0.0950409 0)
(0.255384 0.0918041 0)
(0.26727 0.0884878 0)
(0.278614 0.0851121 0)
(0.289412 0.0816952 0)
(0.299662 0.0782541 0)
(0.309364 0.074804 0)
(0.318522 0.0713585 0)
(0.32714 0.0679298 0)
(0.335225 0.0645284 0)
(0.342783 0.0611634 0)
(0.349825 0.0578425 0)
(0.35636 0.0545722 0)
(-0.00358062 0.0249232 0)
(-0.0157089 0.0585557 0)
(-0.0330452 0.077435 0)
(-0.0487913 0.0869726 0)
(-0.0610714 0.09158 0)
(-0.0697426 0.0938132 0)
(-0.0749331 0.0949967 0)
(-0.0768737 0.0957827 0)
(-0.0758435 0.0964776 0)
(-0.0721328 0.0972117 0)
(-0.0660308 0.0980222 0)
(-0.0578206 0.0988958 0)
(-0.0477758 0.0997922 0)
(-0.0361579 0.100659 0)
(-0.0232142 0.101442 0)
(-0.00917595 0.102089 0)
(0.00574382 0.102556 0)
(0.0213496 0.10281 0)
(0.037464 0.102825 0)
(0.0539293 0.102586 0)
(0.0706052 0.102086 0)
(0.0873684 0.101324 0)
(0.104111 0.100305 0)
(0.12074 0.0990404 0)
(0.137175 0.0975428 0)
(0.153347 0.0958284 0)
(0.169197 0.0939146 0)
(0.184677 0.0918202 0)
(0.199745 0.0895642 0)
(0.214366 0.0871662 0)
(0.228514 0.0846453 0)
(0.242166 0.0820201 0)
(0.255305 0.0793087 0)
(0.267919 0.0765283 0)
(0.28 0.0736951 0)
(0.291541 0.0708244 0)
(0.302541 0.06793 0)
(0.313 0.0650247 0)
(0.322921 0.0621202 0)
(0.33231 0.0592267 0)
(0.341171 0.0563534 0)
(0.349513 0.0535081 0)
(0.357344 0.0506978 0)
(0.364674 0.0479281 0)
(-0.00572667 0.0355939 0)
(-0.0226087 0.0769294 0)
(-0.0445586 0.0956681 0)
(-0.0629319 0.101995 0)
(-0.0761994 0.102631 0)
(-0.0848602 0.100946 0)
(-0.0894322 0.0985057 0)
(-0.0903988 0.0960173 0)
(-0.0882146 0.0937876 0)
(-0.0832876 0.0919324 0)
(-0.0759817 0.0904704 0)
(-0.0666232 0.0893691 0)
(-0.0555069 0.088569 0)
(-0.0428999 0.0879986 0)
(-0.0290459 0.0875841 0)
(-0.0141667 0.0872553 0)
(0.00153646 0.0869495 0)
(0.0178809 0.0866128 0)
(0.0347016 0.086202 0)
(0.0518517 0.0856836 0)
(0.0692004 0.0850334 0)
(0.086632 0.0842353 0)
(0.104045 0.08328 0)
(0.121351 0.0821644 0)
(0.138474 0.0808899 0)
(0.155346 0.0794616 0)
(0.171912 0.0778877 0)
(0.188124 0.0761781 0)
(0.203942 0.0743446 0)
(0.219331 0.0723999 0)
(0.234264 0.0703571 0)
(0.248719 0.0682296 0)
(0.262679 0.0660308 0)
(0.27613 0.0637738 0)
(0.289063 0.0614711 0)
(0.301473 0.0591346 0)
(0.313357 0.0567756 0)
(0.324713 0.0544043 0)
(0.335543 0.0520303 0)
(0.345852 0.0496622 0)
(0.355644 0.0473075 0)
(0.364926 0.0449731 0)
(0.373706 0.0426649 0)
(0.381991 0.0403879 0)
(-0.00942809 0.0516663 0)
(-0.0327584 0.101062 0)
(-0.0590612 0.117143 0)
(-0.0781684 0.11807 0)
(-0.0899263 0.113319 0)
(-0.0960045 0.106877 0)
(-0.0975069 0.100357 0)
(-0.0952725 0.0943928 0)
(-0.0899817 0.0892058 0)
(-0.0821735 0.0848333 0)
(-0.0722762 0.0812292 0)
(-0.0606365 0.0783089 0)
(-0.0475408 0.0759721 0)
(-0.0332318 0.0741148 0)
(-0.0179199 0.0726367 0)
(-0.00179009 0.0714447 0)
(0.0149931 0.0704562 0)
(0.0322816 0.0695993 0)
(0.0499419 0.0688141 0)
(0.0678542 0.0680516 0)
(0.0859109 0.0672731 0)
(0.104016 0.0664492 0)
(0.122082 0.0655582 0)
(0.140035 0.0645857 0)
(0.157807 0.0635228 0)
(0.175338 0.0623654 0)
(0.192579 0.061113 0)
(0.209484 0.0597682 0)
(0.226016 0.058336 0)
(0.242142 0.0568227 0)
(0.257836 0.0552363 0)
(0.273074 0.0535851 0)
(0.28784 0.0518783 0)
(0.302118 0.0501249 0)
(0.315898 0.048334 0)
(0.329172 0.0465146 0)
(0.341936 0.0446751 0)
(0.354187 0.0428235 0)
(0.365925 0.0409674 0)
(0.37715 0.0391135 0)
(0.387867 0.0372681 0)
(0.39808 0.0354368 0)
(0.407794 0.0336245 0)
(0.417015 0.0318355 0)
(-0.0161653 0.0765826 0)
(-0.0479422 0.131388 0)
(-0.0754139 0.139592 0)
(-0.0892449 0.131778 0)
(-0.0932821 0.119925 0)
(-0.0911229 0.108011 0)
(-0.0846307 0.0972855 0)
(-0.0750425 0.0880638 0)
(-0.0632306 0.0803224 0)
(-0.0497897 0.0739173 0)
(-0.0351231 0.0686727 0)
(-0.0195103 0.064414 0)
(-0.0031514 0.0609787 0)
(0.0138041 0.0582202 0)
(0.031238 0.0560076 0)
(0.0490515 0.0542266 0)
(0.0671593 0.0527779 0)
(0.0854838 0.051577 0)
(0.103953 0.050553 0)
(0.122499 0.0496472 0)
(0.141058 0.0488123 0)
(0.15957 0.0480104 0)
(0.177979 0.0472125 0)
(0.196232 0.0463968 0)
(0.214281 0.0455475 0)
(0.232082 0.0446541 0)
(0.249593 0.0437101 0)
(0.266779 0.0427127 0)
(0.283607 0.0416614 0)
(0.300048 0.040558 0)
(0.316077 0.0394058 0)
(0.331672 0.0382093 0)
(0.346815 0.0369737 0)
(0.36149 0.0357047 0)
(0.375687 0.0344084 0)
(0.389394 0.0330908 0)
(0.402605 0.0317579 0)
(0.415316 0.0304156 0)
(0.427523 0.0290692 0)
(0.439225 0.027724 0)
(0.450424 0.0263845 0)
(0.461122 0.0250552 0)
(0.471323 0.0237398 0)
(0.48103 0.0224417 0)
(-0.02877 0.116254 0)
(-0.0691605 0.163964 0)
(-0.0829556 0.153552 0)
(-0.0748864 0.132782 0)
(-0.0581899 0.113135 0)
(-0.0379608 0.0965041 0)
(-0.0161499 0.0829084 0)
(0.00614903 0.0719539 0)
(0.028325 0.0631623 0)
(0.0500908 0.0561076 0)
(0.0713449 0.0504491 0)
(0.0920807 0.0459171 0)
(0.112337 0.042294 0)
(0.132171 0.0394018 0)
(0.151642 0.0370936 0)
(0.170807 0.0352479 0)
(0.189708 0.0337642 0)
(0.20838 0.0325589 0)
(0.226843 0.0315629 0)
(0.245107 0.03072 0)
(0.263174 0.0299842 0)
(0.281035 0.0293189 0)
(0.298678 0.0286954 0)
(0.316086 0.0280912 0)
(0.333236 0.0274898 0)
(0.350107 0.0268789 0)
(0.366674 0.0262501 0)
(0.382914 0.0255982 0)
(0.398804 0.0249202 0)
(0.414321 0.0242152 0)
(0.429445 0.0234837 0)
(0.444158 0.0227274 0)
(0.458443 0.0219488 0)
(0.472285 0.021151 0)
(0.485672 0.0203373 0)
(0.498595 0.0195114 0)
(0.511046 0.0186769 0)
(0.523018 0.0178376 0)
(0.534509 0.016997 0)
(0.545516 0.0161582 0)
(0.556038 0.0153244 0)
(0.566078 0.0144984 0)
(0.575638 0.0136827 0)
(0.584723 0.0128795 0)
(-0.049759 0.201154 0)
(-0.0660389 0.178692 0)
(-0.0111731 0.128362 0)
(0.0461887 0.0991519 0)
(0.0969486 0.0787636 0)
(0.141814 0.0630359 0)
(0.181564 0.0510453 0)
(0.216777 0.0420473 0)
(0.248069 0.0352526 0)
(0.276076 0.0300462 0)
(0.301377 0.0260135 0)
(0.32446 0.022873 0)
(0.345737 0.0204204 0)
(0.365547 0.0185011 0)
(0.384171 0.0169957 0)
(0.401838 0.0158116 0)
(0.418732 0.0148753 0)
(0.434996 0.0141287 0)
(0.450742 0.0135251 0)
(0.466053 0.0130274 0)
(0.480989 0.012606 0)
(0.495591 0.0122375 0)
(0.509885 0.0119036 0)
(0.523887 0.0115904 0)
(0.5376 0.0112874 0)
(0.551024 0.0109867 0)
(0.564151 0.010683 0)
(0.576973 0.0103726 0)
(0.589475 0.0100534 0)
(0.601647 0.00972443 0)
(0.613473 0.00938554 0)
(0.624943 0.00903729 0)
(0.636043 0.0086807 0)
(0.646763 0.00831714 0)
(0.657094 0.00794819 0)
(0.667029 0.00757554 0)
(0.676563 0.00720094 0)
(0.68569 0.00682611 0)
(0.694409 0.00645269 0)
(0.70272 0.00608222 0)
(0.710623 0.00571614 0)
(0.71812 0.00535571 0)
(0.725216 0.00500205 0)
(0.731916 0.00465614 0)
(0.229879 0.140401 0)
(0.278946 0.113652 0)
(0.394634 0.0764235 0)
(0.484555 0.0534053 0)
(0.546346 0.038708 0)
(0.591586 0.0283999 0)
(0.626802 0.0210207 0)
(0.654946 0.0157851 0)
(0.677789 0.0120729 0)
(0.696667 0.00941601 0)
(0.712583 0.00749415 0)
(0.726264 0.00609308 0)
(0.738243 0.00506584 0)
(0.748917 0.00430896 0)
(0.758587 0.00374856 0)
(0.767481 0.00333145 0)
(0.775773 0.00301893 0)
(0.783594 0.00278253 0)
(0.79104 0.00260113 0)
(0.798184 0.00245898 0)
(0.805075 0.00234433 0)
(0.81175 0.00224839 0)
(0.818232 0.00216467 0)
(0.824535 0.00208837 0)
(0.830666 0.00201606 0)
(0.836628 0.00194532 0)
(0.842419 0.00187451 0)
(0.848037 0.0018026 0)
(0.853476 0.001729 0)
(0.85873 0.0016535 0)
(0.863795 0.0015761 0)
(0.868665 0.00149702 0)
(0.873335 0.00141656 0)
(0.877801 0.00133515 0)
(0.882061 0.00125323 0)
(0.886112 0.00117127 0)
(0.889954 0.00108973 0)
(0.893586 0.00100905 0)
(0.897011 0.000929633 0)
(0.900229 0.00085186 0)
(0.903243 0.000776049 0)
(0.906058 0.000702477 0)
(0.908677 0.000631371 0)
(0.911105 0.000562911 0)
)
;

boundaryField
{
    movingWall
    {
        type            fixedValue;
        value           uniform (1 0 0);
    }
    fixedWalls
    {
        type            noSlip;
    }
    frontAndBack
    {
        type            empty;
    }
    procBoundary2to3
    {
        type            processor;
        value           nonuniform List<vector> 
45
(
(0.136491 0.281521 0)
(0.138337 0.271387 0)
(0.139964 0.260906 0)
(0.1414 0.250194 0)
(0.14267 0.239346 0)
(0.143799 0.228444 0)
(0.144808 0.217553 0)
(0.145714 0.206723 0)
(0.146532 0.195991 0)
(0.147273 0.185383 0)
(0.147945 0.174913 0)
(0.14855 0.164589 0)
(0.14909 0.154415 0)
(0.149564 0.144386 0)
(0.149969 0.134498 0)
(0.1503 0.124741 0)
(0.15055 0.115108 0)
(0.150714 0.105587 0)
(0.00028459 0.0121045 0)
(0.00210195 0.0391658 0)