/*--------------------------------*- C++ -*----------------------------------*\
  =========                 |
  \\      /  F ield         | OpenFOAM: The Open Source CFD Toolbox
   \\    /   O peration     | Website:  https://openfoam.org
    \\  /    A nd           | Version:  9
     \\/     M anipulation  |
\*---------------------------------------------------------------------------*/
FoamFile
{
    format      ascii;
    class       volScalarField;
    location    "3";
    object      p;
}
// * * * * * * * * * * * * * * * * * * * * * * * * * * * * * * * * * * * * * //

dimensions      [0 2 -2 0 0 0 0];

internalField   nonuniform List<scalar> 
1250
(
-4.49942e-08
2.04103e-05
3.26264e-05
3.21283e-05
1.52083e-05
-1.92725e-05
-7.07112e-05
-0.000137694
-0.000218516
-0.000311475
-0.00041505
-0.000528008
-0.000649449
-0.000778825
-0.000915906
-0.00106075
-0.00121362
-0.00137494
-0.00154519
-0.00172487
-0.00191438
-0.00211404
-0.00232399
-0.00254415
-0.00277421
-0.0030136
-0.00326146
-0.0035166
-0.00377753
-2.00759e-05
3.2348e-07
7.83095e-06
2.60485e-06
-1.65206e-05
-5.05481e-05
-9.92814e-05
-0.000161813
-0.000236941
-0.000323394
-0.000419991
-0.000525745
-0.000639889
-0.000761981
-0.000891804
-0.00102938
-0.00117492
-0.00132875
-0.00149127
-0.00166289
-0.00184397
-0.00203476
-0.0022354
-0.00244581
-0.00266574
-0.00289468
-0.00313187
-0.00337625
-0.00362646
-3.21944e-05
-7.03638e-06
3.79804e-07
-6.27714e-06
-2.61961e-05
-5.99515e-05
-0.000107283
-0.000167358
-0.000239125
-0.000321485
-0.000413411
-0.00051404
-0.000622753
-0.000739131
-0.00086302
-0.000994475
-0.00113371
-0.00128106
-0.00143693
-0.0016017
-0.00177577
-0.00195939
-0.00215274
-0.0023558
-0.0025684
-0.00279011
-0.0030203
-0.00325803
-0.00350211
-3.18716e-05
-1.89157e-06
6.54016e-06
-5.70699e-07
-2.09965e-05
-5.48327e-05
-0.000101577
-0.000160284
-0.000229891
-0.00030934
-0.000397673
-0.00049411
-0.000598095
-0.000709309
-0.000827668
-0.000953294
-0.00108647
-0.00122758
-0.00137708
-0.00153544
-0.0017031
-0.0018804
-0.0020676
-0.00226479
-0.0024719
-0.00268866
-0.00291456
-0.00314884
-0.00339045
-1.50585e-05
1.71457e-05
2.56385e-05
1.7658e-05
-3.72245e-06
-3.82002e-05
-8.5017e-05
-0.000143073
-0.000211237
-0.000288443
-0.000373766
-0.000466481
-0.000566111
-0.000672434
-0.000785465
-0.000905429
-0.00103271
-0.00116782
-0.00131131
-0.00146378
-0.00162578
-0.00179779
-0.00198021
-0.0021733
-0.00237713
-0.00259163
-0.00281647
-0.00305107
-0.00329456
2.01115e-05
5.15889e-05
5.86872e-05
4.89753e-05
2.59008e-05
-9.92726e-06
-5.75243e-05
-0.00011564
-0.00018306
-0.000258689
-0.000341618
-0.000431179
-0.000526983
-0.000628917
-0.000737124
-0.000851973
-0.000974002
-0.00110388
-0.00124234
-0.00139015
-0.00154805
-0.00171673
-0.00189677
-0.00208866
-0.0022927
-0.00250902
-0.00273753
-0.00297783
-0.00322924
7.40413e-05
0.000102007
0.000106136
9.36461e-05
6.80095e-05
3.00678e-05
-1.90139e-05
-7.78663e-05
-0.000145204
-0.000219911
-0.000301102
-0.000388178
-0.000480853
-0.00057915
-0.000683376
-0.000794082
-0.000912015
-0.00103806
-0.00117319
-0.00131841
-0.00147472
-0.00164307
-0.00182433
-0.00201924
-0.0022284
-0.00245218
-0.00269071
-0.00294381
-0.00321091
0.000146471
0.000168381
0.000167985
0.00015163
0.000122548
8.17539e-05
3.05352e-05
-2.96699e-05
-9.75435e-05
-0.000171976
-0.000252135
-0.000337515
-0.000427962
-0.00052367
-0.000625149
-0.000733187
-0.000848788
-0.000973122
-0.00110746
-0.00125312
-0.00141144
-0.0015837
-0.0017711
-0.00197472
-0.00219546
-0.00243395
-0.00269056
-0.00296524
-0.00325749
0.000236786
0.000250324
0.000243953
0.000222709
0.000189369
0.000145064
9.11288e-05
2.9011e-05
-3.99963e-05
-0.000114839
-0.000194776
-0.000279432
-0.000368828
-0.000463371
-0.000563827
-0.000671271
-0.000787032
-0.000912625
-0.00104969
-0.00119995
-0.00136512
-0.00154689
-0.00174686
-0.00196645
-0.00220687
-0.00246903
-0.00275344
-0.00306012
-0.00338853
0.000344071
0.000347105
0.000333445
0.000306419
0.000268118
0.000219751
0.00016261
9.80583e-05
2.73021e-05
-4.87163e-05
-0.000129399
-0.000214554
-0.000304425
-0.000399688
-0.000501423
-0.000611055
-0.000730302
-0.000861097
-0.00100553
-0.00116577
-0.001344
-0.00154237
-0.00176286
-0.0020073
-0.00227716
-0.00257354
-0.00289701
-0.00324754
-0.0036244
0.000467066
0.000457601
0.000435487
0.000401929
0.000358141
0.000305261
0.000244483
0.00017699
0.000103819
2.573e-05
-5.68846e-05
-0.000144075
-0.00023637
-0.00033478
-0.000440759
-0.000556155
-0.000683142
-0.000824147
-0.00098177
-0.0011587
-0.00135762
-0.00158114
-0.00183168
-0.00211137
-0.00242191
-0.00276448
-0.00313958
-0.00354696
-0.00398552
0.000604109
0.00058024
0.000548669
0.000507995
0.000458302
0.000400574
0.000335777
0.000264813
0.000188462
0.000107224
2.12145e-05
-6.99301e-05
-0.000167094
-0.000271688
-0.000385614
-0.000511213
-0.000651193
-0.000808535
-0.000986406
-0.00118805
-0.00141668
-0.00167536
-0.00196688
-0.0022936
-0.00265734
-0.00305919
-0.00349944
-0.00397743
-0.0044915
0.000752962
0.000712955
0.000671051
0.000622824
0.000566942
0.000504102
0.00043491
0.000359881
0.000279435
0.00019373
0.000102521
5.05886e-06
-9.99718e-05
-0.000214458
-0.000340826
-0.000481985
-0.000641237
-0.000822175
-0.00102857
-0.00126423
-0.00153289
-0.001838
-0.00218263
-0.00256927
-0.00299967
-0.00347468
-0.00399416
-0.00455687
-0.00516044
0.000910802
0.000853036
0.000800081
0.000744007
0.000681755
0.000613572
0.000539578
0.000459771
0.000374112
0.000282323
0.000183718
7.70788e-05
-3.94197e-05
-0.00016822
-0.000312349
-0.000475348
-0.000661169
-0.000874054
-0.00111838
-0.00139852
-0.00171863
-0.00208248
-0.00249329
-0.00295349
-0.00346458
-0.00402698
-0.00463993
-0.00530143
-0.00600823
0.00107409
0.000997104
0.000932533
0.000868443
0.000799692
0.000725941
0.000646656
0.000561193
0.000468945
0.00036911
0.000260473
0.000141263
9.06369e-06
-0.000139201
-0.000307227
-0.000499244
-0.00071989
-0.000974062
-0.00126673
-0.00160274
-0.00198659
-0.00242223
-0.00291284
-0.0034606
-0.00406656
-0.00473051
-0.00545088
-0.00622474
-0.00704782
0.00123852
0.00114106
0.00106446
0.000992254
0.000916929
0.000837336
0.00075214
0.000659925
0.000559415
0.000449187
0.000327414
0.000191686
3.8917e-05
-0.000134675
-0.000333511
-0.000562545
-0.000827115
-0.00113274
-0.00148493
-0.00188889
-0.00234932
-0.00287017
-0.00345437
-0.00410364
-0.00481837
-0.00559751
-0.0064385
-0.00733734
-0.00828864
0.00139899
0.00128005
0.00119112
0.0011108
0.00102882
0.000943021
0.000851119
0.000750801
0.000640022
0.00051665
0.000378157
0.000221418
4.26012e-05
-0.000162839
-0.000400089
-0.000674843
-0.00099311
-0.00136098
-0.00178437
-0.00226874
-0.00281878
-0.00343823
-0.00412954
-0.00489378
-0.00573043
-0.00663742
-0.00761105
-0.0086461
-0.00973595
0.00154967
0.00140843
0.00130706
0.00121868
0.0011299
0.00103741
0.000937792
0.00082774
0.000704338
0.00056466
0.000405399
0.00022264
1.17475e-05
-0.000232632
-0.000516467
-0.000846174
-0.00122837
-0.00166963
-0.00217612
-0.00275336
-0.00340584
-0.00413684
-0.00494812
-0.00583983
-0.00681038
-0.00785647
-0.00897311
-0.0101537
-0.0113904
0.00168384
0.0015199
0.00140612
0.00130972
0.00121395
0.0011141
0.00100554
0.000883824
0.000745097
0.000585559
0.000401055
0.000186819
-6.26346e-05
-0.000353487
-0.00069248
-0.0010867
-0.00154328
-0.00206911
-0.00267047
-0.00335269
-0.00411985
-0.0049745
-0.00591749
-0.00694783
-0.00806265
-0.00925725
-0.0105252
-0.0118585
-0.0132477
0.00179431
0.00160755
0.00148147
0.00137711
0.00127404
0.00116601
0.00104702
0.000911427
0.000754347
0.000571047
0.000356464
0.000104935
-0.0001899
-0.000535045
-0.000937968
-0.00140633
-0.00194767
-0.00256902
-0.00327653
-0.00407513
-0.00496821
-0.00595739
-0.00704233
-0.0082207
-0.00948816
-0.0108384
-0.0122635
-0.0137539
-0.0152986
0.00187327
0.00166393
0.00152581
0.00141351
0.00130272
0.00118548
0.00105434
0.000902389
0.000723647
0.000512397
0.000262626
-3.22507e-05
-0.00037947
-0.000786824
-0.00126243
-0.00181441
-0.00245052
-0.00317773
-0.00400184
-0.00492714
-0.00595606
-0.00708903
-0.00832431
-0.00965801
-0.0110841
-0.0125947
-0.01418
-0.0158289
0.0019126
0.00168126
0.00153144
0.00141119
0.00129212
0.00116448
0.00101926
0.000848232
0.000644297
0.00040071
0.000110483
-0.000233897
-0.000640515
-0.00111789
-0.00167467
-0.00231928
-0.00305951
-0.00390205
-0.00485208
-0.00591298
-0.00708598
-0.00837008
-0.00976193
-0.0112559
-0.0128441
-0.0145168
-0.0162624
-0.0180682
0.00190397
0.00165157
0.00149052
0.00136223
0.00123422
0.0010948
0.000933388
0.000740406
0.000507605
0.000227197
-0.000108788
-0.000508769
-0.000981625
-0.0015365
-0.00218244
-0.00292801
-0.00378077
-0.0047469
-0.00583073
-0.00703445
-0.00835785
-0.00979827
-0.0113505
-0.013007
-0.014758
-0.0165917
-0.0184949
-0.0204527
0.00183913
0.00156696
0.0013952
0.00125876
0.00112101
0.000968305
0.00078847
0.000570557
0.000305167
-1.65292e-05
-0.000403465
-0.000864923
-0.00141049
-0.00204981
-0.00279218
-0.00364605
-0.00461858
-0.00571514
-0.00693897
-0.0082908
-0.00976878
-0.0113683
-0.0130823
-0.014901
-0.0168126
-0.0188035
-0.0208583
-0.0229607
0.00171013
0.0014198
0.00123793
0.00109316
0.000944789
0.000777204
0.000576637
0.000330799
2.91501e-05
-0.000338161
-0.00078099
-0.00130941
-0.00193361
-0.00266359
-0.00350868
-0.00447704
-0.00557516
-0.00680736
-0.00817551
-0.00967869
-0.0113131
-0.0130722
-0.0149466
-0.0169245
-0.018992
-0.0211332
-0.0233313
-0.0255683
0.00150953
0.00120294
0.00101164
0.000858312
0.000698383
0.000514278
0.000290678
1.39893e-05
-0.000327433
-0.00074442
-0.00124769
-0.00184801
-0.00255605
-0.00338198
-0.00433497
-0.00542265
-0.00665059
-0.00802184
-0.00953666
-0.0111922
-0.0129827
-0.0148993
-0.0169304
-0.0190619
-0.0212778
-0.0235604
-0.025891
-0.0282505
0.00123065
0.000909991
0.000709975
0.000547855
0.000375401
0.000173149
-7.57123e-05
-0.000386018
-0.000770466
-0.00124081
-0.00180853
-0.002485
-0.0032812
-0.00420729
-0.00527208
-0.00648243
-0.00784275
-0.0093546
-0.0110164
-0.0128233
-0.0147671
-0.0168369
-0.0190185
-0.0212958
-0.0236506
-0.0260635
-0.0285142
-0.0309825
0.000867796
0.000535482
0.00032754
0.000156387
-2.95404e-05
-0.000251499
-0.000527702
-0.000874147
-0.00130451
-0.00183139
-0.00246695
-0.00322299
-0.00411067
-0.00513995
-0.00631905
-0.00765384
-0.00914736
-0.0107994
-0.0126065
-0.0145614
-0.0166539
-0.0188702
-0.0211942
-0.0236075
-0.0260899
-0.0286204
-0.0311776
-0.0337402
0.000416476
7.51045e-05
-0.000139925
-0.000320328
-0.000520617
-0.000763714
-0.00106912
-0.00145391
-0.00193263
-0.00251864
-0.00322466
-0.00406281
-0.0050442
-0.00617843
-0.0074729
-0.00893231
-0.0105581
-0.0123482
-0.0142969
-0.0163947
-0.0186289
-0.0209835
-0.0234399
-0.0259778
-0.0285752
-0.0312097
-0.0338589
-0.0365011
-0.000126474
-0.000474153
-0.000695373
-0.000885193
-0.00110063
-0.00136612
-0.00170232
-0.00212725
-0.00265627
-0.00330334
-0.00408163
-0.00500341
-0.00607962
-0.00731925
-0.00872872
-0.0103113
-0.0120668
-0.013991
-0.0160759
-0.0183097
-0.0206771
-0.02316
-0.0257376
-0.0283875
-0.0310864
-0.0338108
-0.0365375
-0.0392448
-0.000762738
-0.00111387
-0.00134033
-0.00153965
-0.00177089
-0.00205979
-0.00242804
-0.00289447
-0.00347513
-0.00418449
-0.00503601
-0.00604196
-0.00721291
-0.0085571
-0.0100798
-0.0117827
-0.0136636
-0.0157163
-0.0179304
-0.0202918
-0.0227827
-0.0253827
-0.0280691
-0.0308179
-0.0336045
-0.0364046
-0.0391946
-0.041953
-0.00149244
-0.0018441
-0.00207479
-0.00228361
-0.00253111
-0.00284419
-0.00324538
-0.0037542
-0.00438723
-0.00515936
-0.00608418
-0.00717382
-0.00843831
-0.00988497
-0.0115177
-0.0133366
-0.0153374
-0.0175117
-0.0198468
-0.022326
-0.0249295
-0.0276346
-0.0304171
-0.0332513
-0.0361118
-0.0389737
-0.0418136
-0.0446102
-0.0023141
-0.00266335
-0.0028972
-0.0031154
-0.00337944
-0.00371715
-0.00415177
-0.00470334
-0.00538887
-0.0062235
-0.00722083
-0.00839269
-0.00974844
-0.0112943
-0.0130328
-0.0149621
-0.017076
-0.0193638
-0.0218104
-0.024397
-0.0271015
-0.0298994
-0.0327648
-0.0356711
-0.0385922
-0.0415029
-0.0443801
-0.0472032
-0.00322467
-0.00356859
-0.00380448
-0.00403178
-0.00431241
-0.00467491
-0.00514304
-0.00573722
-0.00647474
-0.00737087
-0.00843909
-0.00969078
-0.0111345
-0.0127753
-0.0146141
-0.0166472
-0.0188664
-0.0212587
-0.0238067
-0.0264895
-0.0292831
-0.0321613
-0.0350968
-0.0380623
-0.0410313
-0.0439787
-0.0468819
-0.0497212
-0.00421953
-0.00455526
-0.00479201
-0.00502802
-0.00532505
-0.00571217
-0.00621347
-0.00684962
-0.00763804
-0.00859398
-0.00973069
-0.011059
-0.0125865
-0.014317
-0.0162497
-0.0183792
-0.0206951
-0.0231822
-0.0258211
-0.0285888
-0.0314594
-0.0344055
-0.0373988
-0.0404114
-0.0434166
-0.0463898
-0.049309
-0.0521556
-0.00529265
-0.00561742
-0.00585381
-0.00609795
-0.00641096
-0.00682223
-0.00735598
-0.00803296
-0.00887061
-0.00988405
-0.0110862
-0.0124871
-0.0140934
-0.0159076
-0.0179273
-0.0201451
-0.0225486
-0.0251204
-0.0278394
-0.0306805
-0.0336165
-0.0366187
-0.0396581
-0.0427064
-0.0457373
-0.0487265
-0.0516532
-0.0544996
-0.00643665
-0.00674783
-0.00698259
-0.00723415
-0.0075625
-0.0079971
-0.0085622
-0.00927845
-0.0101632
-0.0112313
-0.0124951
-0.013964
-0.0156437
-0.017535
-0.0196341
-0.0219316
-0.0244131
-0.0270596
-0.0298478
-0.0327512
-0.0357413
-0.0387884
-0.041863
-0.044937
-0.0479841
-0.0509811
-0.0539079
-0.056748
-0.00764302
-0.00793811
-0.00816996
-0.00842807
-0.00877088
-0.00922774
-0.00982274
-0.0105763
-0.0115055
-0.0126249
-0.0139462
-0.0154781
-0.017225
-0.0191865
-0.021357
-0.0237254
-0.0262756
-0.0289866
-0.0318335
-0.0347885
-0.0378219
-0.0409036
-0.0440037
-0.0470942
-0.0501495
-0.0531471
-0.056068
-0.058897
-0.00890227
-0.00917897
-0.00940659
-0.00967025
-0.0100264
-0.0105042
-0.0111274
-0.0119159
-0.0128867
-0.0140536
-0.0154279
-0.0170173
-0.018825
-0.0208494
-0.0230832
-0.0255137
-0.028123
-0.0308886
-0.0337842
-0.0367807
-0.0398477
-0.0429545
-0.0460713
-0.0491704
-0.0522269
-0.0552192
-0.0581295
-0.0609436
-0.0102041
-0.0104603
-0.0106824
-0.0109505
-0.0113187
-0.0118159
-0.0124652
-0.0132862
-0.0142952
-0.0155056
-0.016928
-0.0185691
-0.0204312
-0.022511
-0.0248
-0.0272839
-0.0299433
-0.0327541
-0.0356887
-0.0387174
-0.0418089
-0.0449324
-0.0480583
-0.0511592
-0.0542111
-0.0571933
-0.0600892
-0.0628856
-0.0115377
-0.0117716
-0.0119868
-0.012258
-0.0126369
-0.0131517
-0.0138249
-0.0146755
-0.0157193
-0.016969
-0.0184345
-0.0201215
-0.0220312
-0.0241592
-0.0264954
-0.0290243
-0.0317248
-0.0345718
-0.0375368
-0.040589
-0.043697
-0.0468298
-0.0499581
-0.0530551
-0.0560977
-0.0590661
-0.0619447
-0.0647217
-0.0128919
-0.0131018
-0.0133088
-0.0135819
-0.0139699
-0.0145002
-0.015195
-0.0160723
-0.0171472
-0.0184318
-0.0199352
-0.0216623
-0.0236131
-0.025782
-0.0281578
-0.0307234
-0.0334568
-0.0363318
-0.0393189
-0.042387
-0.0455043
-0.04864
-0.0517651
-0.0548536
-0.0578831
-0.0608349
-0.0636943
-0.0664506
-0.0142554
-0.0144398
-0.0146373
-0.0149109
-0.0153062
-0.0158502
-0.0165639
-0.0174648
-0.0185672
-0.0198823
-0.0214186
-0.0231799
-0.0251653
-0.0273682
-0.029776
-0.0323708
-0.0351294
-0.0380247
-0.0410267
-0.0441038
-0.0472242
-0.0503573
-0.0534746
-0.0565508
-0.0595643
-0.0624974
-0.0653364
-0.0680714
-0.0159615
-0.016234
-0.016635
-0.0171903
-0.0179204
-0.0188418
-0.0199678
-0.0213091
-0.0228732
-0.0246631
-0.0266769
-0.028907
-0.03134
-0.0339568
-0.0367335
-0.0396422
-0.0426525
-0.0457326
-0.0488508
-0.0519767
-0.0550825
-0.0581434
-0.0611389
-0.064052
-0.0668699
-0.0695833
)
;

boundaryField
{
    movingWall
    {
        type            zeroGradient;
    }
    fixedWalls
    {
        type            zeroGradient;
    }
    frontAndBack
    {
        type            empty;
    }
    procBoundary0to1
    {
        type            processor;
        value           nonuniform List<scalar> 
45
(
-0.00404239
-0.00388084
-0.00375101
-0.00363803
-0.00354574
-0.00349068
-0.00349102
-0.0035663
-0.00373748
-0.00402607
-0.00445323
-0.00503896
-0.00580135
-0.00675586
-0.00791463
-0.00928576
-0.0108727
-0.012674
-0.0146824
-0.0168857
-0.0175288
-0.0175288
-0.0199199
-0.0224498
-0.025094
-0.027826
-0.0306195
-0.0334483
-0.036288
-0.0391159
-0.0419123
-0.04466
-0.0473445
-0.0499541
-0.0524796
-0.0549138
-0.0572514
-0.0594885
-0.0616223
-0.0636509
-0.0655733
-0.0673885
-0.0690961
-0.0706955
-0.0721865
)
;
    }
    procBoundary0to3
    {
        type            processor;
        value           nonuniform List<scalar> 
29
(
-0.0156168
-0.0157747
-0.0157747
-0.0172705
-0.0175405
-0.0179452
-0.0185097
-0.0192535
-0.0201922
-0.0213382
-0.0227013
-0.0242883
-0.0261013
-0.0281376
-0.0303888
-0.0328404
-0.0354726
-0.0382609
-0.0411769
-0.0441897
-0.0472676
-0.050379
-0.053494
-0.0565852
-0.0596288
-0.0626047
-0.0654969
-0.0682935
-0.0709858
)
;
    }
}


// ************************************************************************* //
