/*--------------------------------*- C++ -*----------------------------------*\
  =========                 |
  \\      /  F ield         | OpenFOAM: The Open Source CFD Toolbox
   \\    /   O peration     | Website:  https://openfoam.org
    \\  /    A nd           | Version:  9
     \\/     M anipulation  |
\*---------------------------------------------------------------------------*/
FoamFile
{
    format      ascii;
    class       surfaceScalarField;
    location    "3";
    object      phi;
}
// * * * * * * * * * * * * * * * * * * * * * * * * * * * * * * * * * * * * * //

dimensions      [0 3 -1 0 0 0 0];

internalField   nonuniform List<scalar> 
2427
(
7.7044e-11
-7.66478e-11
9.28305e-10
-8.51293e-10
2.43444e-09
-1.50612e-09
4.31099e-09
-1.87654e-09
6.32018e-09
-2.0092e-09
8.28405e-09
-1.96387e-09
1.0077e-08
-1.79295e-09
1.16165e-08
-1.53946e-09
1.28533e-08
-1.23684e-09
1.37634e-08
-9.10126e-10
1.43406e-08
-5.77214e-10
1.45905e-08
-2.49832e-10
1.45251e-08
6.53566e-11
1.41587e-08
3.66389e-10
1.35041e-08
6.54585e-10
1.25703e-08
9.33855e-10
1.13605e-08
1.20981e-09
9.87158e-09
1.48889e-09
8.094e-09
1.77758e-09
6.01212e-09
2.08188e-09
3.6054e-09
2.40672e-09
8.49612e-10
2.75579e-09
-2.28168e-09
3.1313e-09
-5.8157e-09
3.53402e-09
-9.77903e-09
3.96333e-09
-1.41963e-08
4.41729e-09
-1.90891e-08
4.89277e-09
-2.44746e-08
5.38551e-09
5.8902e-09
8.49501e-10
-9.26178e-10
3.27085e-09
-3.27263e-09
6.84145e-09
-5.07669e-09
1.10883e-08
-6.12337e-09
1.55676e-08
-6.48849e-09
1.9909e-08
-6.30529e-09
2.38267e-08
-5.71062e-09
2.71146e-08
-4.82742e-09
2.96357e-08
-3.75788e-09
3.13079e-08
-2.5824e-09
3.20915e-08
-1.36075e-09
3.19747e-08
-1.3301e-10
3.09652e-08
1.07479e-09
2.90764e-08
2.25518e-09
2.63221e-08
3.40896e-09
2.27091e-08
4.54681e-09
1.82338e-08
5.68508e-09
1.28797e-08
6.84302e-09
6.61704e-09
8.04023e-09
-5.95752e-10
9.29467e-09
-8.80985e-09
1.06208e-08
-1.80828e-08
1.20287e-08
-2.84749e-08
1.35234e-08
-4.00454e-08
1.51046e-08
-5.2849e-08
1.67669e-08
-6.69317e-08
1.85e-08
-8.2328e-08
2.02891e-08
-9.90578e-08
2.21153e-08
2.39554e-08
1.51133e-09
-2.43749e-09
5.09668e-09
-6.85798e-09
1.00499e-08
-1.003e-08
1.57432e-08
-1.18167e-08
2.16128e-08
-1.23581e-08
2.71816e-08
-1.1874e-08
3.20687e-08
-1.05978e-08
3.59878e-08
-8.74643e-09
3.8736e-08
-6.50616e-09
4.01812e-08
-4.02755e-09
4.02454e-08
-1.42491e-09
3.88906e-08
1.22176e-09
3.61018e-08
3.86356e-09
3.18776e-08
6.47942e-09
2.62166e-08
9.06991e-09
1.91109e-08
1.16526e-08
1.05399e-08
1.4256e-08
4.68273e-10
1.69147e-08
-1.11549e-08
1.96634e-08
-2.43936e-08
2.25334e-08
-3.93217e-08
2.55489e-08
-5.60177e-08
2.87248e-08
-7.45598e-08
3.20655e-08
-9.50195e-08
3.55643e-08
-1.17456e-07
3.92037e-08
-1.41912e-07
4.29557e-08
-1.68406e-07
4.67827e-08
-1.96929e-07
5.06382e-08
5.44677e-08
1.90331e-09
-4.34078e-09
6.19934e-09
-1.1154e-08
1.19256e-08
-1.57562e-08
1.8312e-08
-1.82031e-08
2.4706e-08
-1.87521e-08
3.05648e-08
-1.77328e-08
3.54524e-08
-1.54854e-08
3.90328e-08
-1.23269e-08
4.10595e-08
-8.53281e-09
4.13608e-08
-4.3288e-09
3.98245e-08
1.11358e-10
3.63817e-08
4.66452e-09
3.0991e-08
9.25425e-09
2.36252e-08
1.38452e-08
1.42593e-08
1.84358e-08
2.86198e-09
2.30499e-08
-1.06099e-08
2.77279e-08
-2.62137e-08
3.25185e-08
-4.40209e-08
3.74706e-08
-6.41136e-08
4.26261e-08
-8.65797e-08
4.80149e-08
-1.11506e-07
5.36514e-08
-1.38973e-07
5.95319e-08
-1.69043e-07
6.56343e-08
-2.01757e-07
7.1918e-08
-2.37126e-07
7.83252e-08
-2.75126e-07
8.47819e-08
-3.15687e-07
9.12e-08
9.74787e-08
2.06906e-09
-6.40986e-09
6.63856e-09
-1.57235e-08
1.25666e-08
-2.16842e-08
1.89702e-08
-2.46067e-08
2.51309e-08
-2.49127e-08
3.04639e-08
-2.30658e-08
3.45019e-08
-1.95233e-08
3.68805e-08
-1.47055e-08
3.73249e-08
-8.97722e-09
3.56349e-08
-2.63883e-09
3.16691e-08
4.07714e-09
2.5329e-08
1.10047e-08
1.65436e-08
1.80396e-08
5.2563e-09
2.51325e-08
-8.58645e-09
3.22786e-08
-2.50432e-08
3.95066e-08
-4.41824e-08
4.6867e-08
-6.60833e-08
5.44195e-08
-9.08347e-08
6.2222e-08
-1.1853e-07
7.03212e-08
-1.4926e-07
7.87449e-08
-1.83106e-07
8.74973e-08
-2.20129e-07
9.65555e-08
-2.60364e-07
1.05869e-07
-3.03808e-07
1.15361e-07
-3.50412e-07
1.2493e-07
-4.00079e-07
1.34449e-07
-4.52655e-07
1.43775e-07
1.52747e-07
2.05787e-09
-8.46772e-09
6.51064e-09
-2.01763e-08
1.21161e-08
-2.72897e-08
1.792e-08
-3.04106e-08
2.31627e-08
-3.01555e-08
2.72373e-08
-2.71404e-08
2.96616e-08
-2.19476e-08
3.00577e-08
-1.51016e-08
2.81346e-08
-7.05411e-09
2.36719e-08
1.82383e-09
1.65042e-08
1.12448e-08
6.50578e-09
2.10031e-08
-6.42373e-09
3.09692e-08
-2.23713e-08
4.10801e-08
-4.14204e-08
5.13277e-08
-6.36575e-08
6.17437e-08
-8.91747e-08
7.23843e-08
-1.1807e-07
8.33147e-08
-1.50442e-07
9.45943e-08
-1.86386e-07
1.06265e-07
-2.25981e-07
1.1834e-07
-2.69286e-07
1.30801e-07
-3.16322e-07
1.43592e-07
-3.67071e-07
1.56618e-07
-4.21459e-07
1.6975e-07
-4.79355e-07
1.82826e-07
-5.40561e-07
1.95655e-07
-6.04811e-07
2.08025e-07
2.19703e-07
1.9057e-09
-1.03734e-08
5.90002e-09
-2.41706e-08
1.07068e-08
-3.20965e-08
1.53446e-08
-3.50484e-08
1.90414e-08
-3.38523e-08
2.11876e-08
-2.92865e-08
2.13012e-08
-2.20613e-08
1.90027e-08
-1.2803e-08
1.39937e-08
-2.04511e-09
6.04048e-09
9.77701e-09
-5.04176e-09
2.2327e-08
-1.94032e-08
3.53646e-08
-3.7172e-08
4.87379e-08
-5.8464e-08
6.23722e-08
-8.3391e-08
7.62547e-08
-1.12064e-07
9.04171e-08
-1.44596e-07
1.04916e-07
-1.81093e-07
1.19812e-07
-2.21657e-07
1.35158e-07
-2.66367e-07
1.50975e-07
-3.15275e-07
1.67249e-07
-3.68396e-07
1.83922e-07
-4.25691e-07
2.00887e-07
-4.87062e-07
2.17989e-07
-5.52343e-07
2.35031e-07
-6.21294e-07
2.51777e-07
-6.93599e-07
2.6796e-07
-7.68863e-07
2.83289e-07
2.97458e-07
1.63578e-09
-1.20092e-08
4.86869e-09
-2.74035e-08
8.44272e-09
-3.56705e-08
1.13921e-08
-3.79978e-08
1.29627e-08
-3.54229e-08
1.25634e-08
-2.88872e-08
9.72727e-09
-1.92251e-08
4.08304e-09
-7.15879e-09
-4.66705e-09
6.70497e-09
-1.67648e-08
2.18748e-08
-3.24106e-08
3.79729e-08
-5.17761e-08
5.47301e-08
-7.50141e-08
7.19759e-08
-1.02267e-07
8.96247e-08
-1.33669e-07
1.07657e-07
-1.69352e-07
1.261e-07
-2.09438e-07
1.45001e-07
-2.54035e-07
1.64409e-07
-3.03227e-07
1.8435e-07
-3.57065e-07
2.04813e-07
-4.15553e-07
2.25738e-07
-4.7864e-07
2.47008e-07
-5.46202e-07
2.68449e-07
-6.18043e-07
2.8983e-07
-6.93883e-07
3.10871e-07
-7.73358e-07
3.31252e-07
-8.56021e-07
3.50623e-07
-9.41347e-07
3.68615e-07
3.84852e-07
1.26096e-09
-1.32702e-08
3.45658e-09
-2.95992e-08
5.39764e-09
-3.76116e-08
6.17471e-09
-3.87749e-08
5.08221e-09
-3.43304e-08
1.56921e-09
-2.53742e-08
-4.80129e-09
-1.28547e-08
-1.43825e-08
2.42243e-09
-2.74655e-08
1.97879e-08
-4.42955e-08
3.87048e-08
-6.50852e-08
5.87625e-08
-9.00239e-08
7.96688e-08
-1.19286e-07
1.01238e-07
-1.53033e-07
1.23372e-07
-1.91419e-07
1.46044e-07
-2.34584e-07
1.69265e-07
-2.82648e-07
1.93066e-07
-3.35705e-07
2.17466e-07
-3.93808e-07
2.42452e-07
-4.56957e-07
2.67962e-07
-5.25089e-07
2.93869e-07
-5.98062e-07
3.19982e-07
-6.75653e-07
3.46039e-07
-7.57546e-07
3.71723e-07
-8.43337e-07
3.96662e-07
-9.32531e-07
4.20446e-07
-1.02455e-06
4.42646e-07
-1.11876e-06
4.62821e-07
4.80539e-07
7.87152e-10
-1.40573e-08
1.6872e-09
-3.04992e-08
1.6216e-09
-3.7546e-08
-2.23671e-10
-3.69296e-08
-4.47414e-09
-3.008e-08
-1.16201e-08
-1.82283e-08
-2.20546e-08
-2.42019e-09
-3.61032e-08
1.6471e-08
-5.40446e-08
3.77293e-08
-7.61239e-08
6.07841e-08
-1.02562e-07
8.52008e-08
-1.33563e-07
1.1067e-07
-1.69317e-07
1.36991e-07
-2.09999e-07
1.64055e-07
-2.55772e-07
1.91816e-07
-3.06771e-07
2.20264e-07
-3.63103e-07
2.49398e-07
-4.24829e-07
2.79191e-07
-4.91949e-07
3.09573e-07
-5.64396e-07
3.40409e-07
-6.42016e-07
3.71489e-07
-7.24564e-07
4.0253e-07
-8.11698e-07
4.33173e-07
-9.02977e-07
4.63002e-07
-9.97868e-07
4.91552e-07
-1.09575e-06
5.18331e-07
-1.19594e-06
5.42836e-07
-1.2977e-06
5.64574e-07
5.83078e-07
2.16872e-10
-1.42742e-08
-4.25241e-10
-2.98571e-08
-2.84842e-09
-3.51228e-08
-7.73282e-09
-3.20452e-08
-1.5596e-08
-2.22168e-08
-2.68446e-08
-6.97963e-09
-4.18144e-08
1.25496e-08
-6.07961e-08
3.54527e-08
-8.40508e-08
6.09841e-08
-1.1182e-07
8.85533e-08
-1.4433e-07
1.17711e-07
-1.81794e-07
1.48134e-07
-2.24411e-07
1.79608e-07
-2.72362e-07
2.12006e-07
-3.25804e-07
2.45258e-07
-3.84858e-07
2.79318e-07
-4.49596e-07
3.14136e-07
-5.20028e-07
3.49623e-07
-5.96087e-07
3.85632e-07
-6.77614e-07
4.21936e-07
-7.64351e-07
4.58227e-07
-8.55937e-07
4.94115e-07
-9.51903e-07
5.2914e-07
-1.05169e-06
5.62785e-07
-1.15463e-06
5.94498e-07
-1.26002e-06
6.23715e-07
-1.36706e-06
6.49883e-07
-1.47497e-06
6.72476e-07
6.91023e-07
-4.5088e-10
-1.38233e-08
-2.87155e-09
-2.74364e-08
-7.98271e-09
-3.00116e-08
-1.62911e-08
-2.37368e-08
-2.81763e-08
-1.03317e-08
-4.39432e-08
8.78725e-09
-6.38581e-08
3.24645e-08
-8.81694e-08
5.9764e-08
-1.17117e-07
8.99316e-08
-1.50935e-07
1.22371e-07
-1.89851e-07
1.56627e-07
-2.34081e-07
1.92364e-07
-2.83827e-07
2.29354e-07
-3.39263e-07
2.67442e-07
-4.00528e-07
3.06523e-07
-4.6771e-07
3.46501e-07
-5.40832e-07
3.87258e-07
-6.19834e-07
4.28625e-07
-7.0456e-07
4.70358e-07
-7.94749e-07
5.12125e-07
-8.90028e-07
5.53506e-07
-9.89912e-07
5.93999e-07
-1.09381e-06
6.3304e-07
-1.20105e-06
6.70022e-07
-1.31087e-06
7.04318e-07
-1.42247e-06
7.35314e-07
-1.53502e-06
7.6243e-07
-1.64768e-06
7.85138e-07
8.02987e-07
-1.21383e-09
-1.26095e-08
-5.64105e-09
-2.30092e-08
-1.3748e-08
-2.19047e-08
-2.58293e-08
-1.16554e-08
-4.20991e-08
5.93808e-09
-6.27422e-08
2.94304e-08
-8.79455e-08
5.76678e-08
-1.17909e-07
8.97277e-08
-1.52848e-07
1.24871e-07
-1.92987e-07
1.6251e-07
-2.38548e-07
2.02188e-07
-2.89746e-07
2.43562e-07
-3.46773e-07
2.8638e-07
-4.09785e-07
3.30454e-07
-4.78888e-07
3.75626e-07
-5.54121e-07
4.21734e-07
-6.3544e-07
4.68576e-07
-7.22698e-07
5.15883e-07
-8.15639e-07
5.63299e-07
-9.13887e-07
6.10373e-07
-1.01695e-06
6.56569e-07
-1.12423e-06
7.01275e-07
-1.23502e-06
7.4383e-07
-1.34854e-06
7.83549e-07
-1.46398e-06
8.19757e-07
-1.58048e-06
8.51811e-07
-1.69718e-06
8.79133e-07
-1.81327e-06
9.01223e-07
9.17674e-07
-2.07099e-09
-1.05385e-08
-8.71898e-09
-1.63612e-08
-2.0103e-08
-1.05207e-08
-3.62663e-08
4.50788e-09
-5.72306e-08
2.69024e-08
-8.30458e-08
5.52457e-08
-1.1381e-07
8.8432e-08
-1.49671e-07
1.25589e-07
-1.90816e-07
1.66016e-07
-2.37455e-07
2.09149e-07
-2.89803e-07
2.54535e-07
-3.48061e-07
3.0182e-07
-4.12402e-07
3.50722e-07
-4.82951e-07
4.01003e-07
-5.59767e-07
4.52442e-07
-6.42823e-07
5.0479e-07
-7.3199e-07
5.57743e-07
-8.27024e-07
6.10918e-07
-9.27559e-07
6.63834e-07
-1.0331e-06
7.15918e-07
-1.14305e-06
7.66515e-07
-1.25669e-06
8.14912e-07
-1.37322e-06
8.60368e-07
-1.49182e-06
9.02142e-07
-1.61159e-06
9.39534e-07
-1.73169e-06
9.71903e-07
-1.85125e-06
9.98699e-07
-1.9695e-06
1.01947e-06
1.03388e-06
-3.01813e-09
-7.52035e-09
-1.20841e-08
-7.29526e-09
-2.69947e-08
4.38993e-09
-4.75027e-08
2.50158e-08
-7.34147e-08
5.28144e-08
-1.04631e-07
8.64616e-08
-1.41153e-07
1.24955e-07
-1.83076e-07
1.67511e-07
-2.30553e-07
2.13494e-07
-2.83778e-07
2.62374e-07
-3.4295e-07
3.13707e-07
-4.0825e-07
3.6712e-07
-4.7982e-07
4.22291e-07
-5.57738e-07
4.78922e-07
-6.42001e-07
5.36705e-07
-7.32503e-07
5.95292e-07
-8.2902e-07
6.5426e-07
-9.31201e-07
7.13099e-07
-1.03857e-06
7.71199e-07
-1.15051e-06
8.27863e-07
-1.26633e-06
8.82329e-07
-1.38521e-06
9.33795e-07
-1.5063e-06
9.81461e-07
-1.62872e-06
1.02456e-06
-1.75157e-06
1.06238e-06
-1.87399e-06
1.09433e-06
-1.99519e-06
1.11989e-06
-2.11441e-06
1.13869e-06
1.15046e-06
-4.04845e-09
-3.4719e-09
-1.57068e-08
4.36313e-09
-3.43547e-08
2.30378e-08
-5.94197e-08
5.00809e-08
-9.04696e-08
8.38643e-08
-1.27244e-07
1.23236e-07
-1.69646e-07
1.67356e-07
-2.17709e-07
2.15574e-07
-2.71556e-07
2.67341e-07
-3.31357e-07
3.22175e-07
-3.97288e-07
3.79638e-07
-4.69501e-07
4.39333e-07
-5.48093e-07
5.00884e-07
-6.33086e-07
5.63915e-07
-7.244e-07
6.28019e-07
-8.21837e-07
6.92729e-07
-9.25072e-07
7.57495e-07
-1.03364e-06
8.2167e-07
-1.14696e-06
8.84517e-07
-1.26432e-06
9.45222e-07
-1.38492e-06
1.00293e-06
-1.50789e-06
1.05677e-06
-1.63233e-06
1.1059e-06
-1.75734e-06
1.14957e-06
-1.88204e-06
1.18708e-06
-2.00559e-06
1.21788e-06
-2.12723e-06
1.24153e-06
-2.24628e-06
1.25774e-06
1.26633e-06
-5.15174e-09
1.67984e-09
-1.95478e-08
1.87592e-08
-4.21006e-08
4.55906e-08
-7.1877e-08
7.98572e-08
-1.08188e-07
1.20175e-07
-1.50605e-07
1.65652e-07
-1.98925e-07
2.15677e-07
-2.53125e-07
2.69773e-07
-3.13289e-07
3.27506e-07
-3.7956e-07
3.88446e-07
-4.52085e-07
4.52162e-07
-5.30973e-07
5.18222e-07
-6.1627e-07
5.86181e-07
-7.07924e-07
6.55569e-07
-8.05771e-07
7.25865e-07
-9.09514e-07
7.96472e-07
-1.01872e-06
8.66703e-07
-1.13283e-06
9.35775e-07
-1.25114e-06
1.00283e-06
-1.37286e-06
1.06694e-06
-1.49712e-06
1.12719e-06
-1.62301e-06
1.18266e-06
-1.74961e-06
1.2325e-06
-1.87602e-06
1.27597e-06
-2.00137e-06
1.31243e-06
-2.12489e-06
1.34139e-06
-2.24585e-06
1.3625e-06
-2.36364e-06
1.37553e-06
1.38039e-06
-6.31408e-09
7.99392e-09
-2.35609e-08
3.6006e-08
-5.01347e-08
7.21645e-08
-8.47146e-08
1.14437e-07
-1.2634e-07
1.61801e-07
-1.74407e-07
2.13719e-07
-2.28607e-07
2.69878e-07
-2.88854e-07
3.3002e-07
-3.55195e-07
3.93847e-07
-4.27739e-07
4.60989e-07
-5.06593e-07
5.31016e-07
-5.91818e-07
6.03447e-07
-6.83394e-07
6.77757e-07
-7.8119e-07
7.53365e-07
-8.84947e-07
8.29622e-07
-9.94268e-07
9.05794e-07
-1.10862e-06
9.81051e-07
-1.22733e-06
1.05448e-06
-1.34961e-06
1.12512e-06
-1.47462e-06
1.19195e-06
-1.60142e-06
1.25399e-06
-1.72908e-06
1.31032e-06
-1.85668e-06
1.3601e-06
-1.98332e-06
1.40262e-06
-2.1082e-06
1.43731e-06
-2.23057e-06
1.46376e-06
-2.34975e-06
1.48169e-06
-2.46519e-06
1.49096e-06
1.49158e-06
-7.52149e-09
1.55154e-08
-2.76906e-08
5.61751e-08
-5.83461e-08
1.0282e-07
-9.77558e-08
1.53847e-07
-1.44677e-07
2.08723e-07
-1.98325e-07
2.67367e-07
-2.58287e-07
3.29839e-07
-3.24412e-07
3.96145e-07
-3.96704e-07
4.6614e-07
-4.75234e-07
5.39519e-07
-5.60063e-07
6.15845e-07
-6.51193e-07
6.94577e-07
-7.4853e-07
7.75093e-07
-8.51855e-07
8.5669e-07
-9.60814e-07
9.38581e-07
-1.07491e-06
1.01989e-06
-1.1935e-06
1.09965e-06
-1.31584e-06
1.17682e-06
-1.44107e-06
1.25035e-06
-1.56828e-06
1.31915e-06
-1.69651e-06
1.38222e-06
-1.82481e-06
1.43863e-06
-1.95229e-06
1.48758e-06
-2.07808e-06
1.52841e-06
-2.20139e-06
1.56063e-06
-2.32153e-06
1.5839e-06
-2.43788e-06
1.59804e-06
-2.54992e-06
1.603e-06
1.59885e-06
-8.75436e-09
2.42698e-08
-3.18743e-08
7.92951e-08
-6.6613e-08
1.37559e-07
-1.10811e-07
1.98044e-07
-1.62936e-07
2.60848e-07
-2.22024e-07
3.26454e-07
-2.87552e-07
3.95368e-07
-3.59307e-07
4.67899e-07
-4.37246e-07
5.44079e-07
-5.21395e-07
6.23668e-07
-6.11762e-07
7.06212e-07
-7.08281e-07
7.91097e-07
-8.10779e-07
8.77591e-07
-9.18947e-07
9.64858e-07
-1.03233e-06
1.05197e-06
-1.15034e-06
1.1379e-06
-1.27225e-06
1.22156e-06
-1.39723e-06
1.3018e-06
-1.52437e-06
1.37748e-06
-1.6527e-06
1.44749e-06
-1.78128e-06
1.5108e-06
-1.90916e-06
1.56651e-06
-2.03545e-06
1.61386e-06
-2.15932e-06
1.65228e-06
-2.28004e-06
1.68134e-06
-2.39694e-06
1.7008e-06
-2.50944e-06
1.71054e-06
-2.61707e-06
1.71063e-06
-9.9917e-09
3.42615e-08
-3.60442e-08
1.05348e-07
-7.48057e-08
1.7632e-07
-1.23681e-07
2.4692e-07
-1.80848e-07
3.18015e-07
-2.4516e-07
3.90766e-07
-3.15988e-07
4.66197e-07
-3.93053e-07
5.44964e-07
-4.76262e-07
6.27288e-07
-5.6559e-07
7.12996e-07
-6.60985e-07
8.01606e-07
-7.62309e-07
8.92421e-07
-8.69304e-07
9.84586e-07
-9.81571e-07
1.07712e-06
-1.09856e-06
1.16896e-06
-1.2196e-06
1.25894e-06
-1.34388e-06
1.34583e-06
-1.4705e-06
1.42843e-06
-1.59853e-06
1.5055e-06
-1.72697e-06
1.57593e-06
-1.85487e-06
1.6387e-06
-1.9813e-06
1.69294e-06
-2.1054e-06
1.73796e-06
-2.22637e-06
1.77325e-06
-2.34352e-06
1.79849e-06
-2.45621e-06
1.81349e-06
-2.56393e-06
1.81826e-06
1.81293e-06
-1.12111e-08
4.54726e-08
-4.01286e-08
1.34265e-07
-8.27905e-08
2.18982e-07
-1.36166e-07
3.00295e-07
-1.98143e-07
3.79992e-07
-2.67397e-07
4.6002e-07
-3.43193e-07
5.41993e-07
-4.25182e-07
6.26953e-07
-5.13219e-07
7.15326e-07
-6.07222e-07
8.06999e-07
-7.07075e-07
9.01458e-07
-8.12563e-07
9.97909e-07
-9.23342e-07
1.09537e-06
-1.03893e-06
1.19271e-06
-1.15868e-06
1.28871e-06
-1.28184e-06
1.3821e-06
-1.40755e-06
1.47154e-06
-1.53486e-06
1.55573e-06
-1.66279e-06
1.63343e-06
-1.79036e-06
1.7035e-06
-1.91661e-06
1.76495e-06
-2.04064e-06
1.81697e-06
-2.16161e-06
1.85893e-06
-2.27877e-06
1.89042e-06
-2.39145e-06
1.91117e-06
-2.49908e-06
1.92112e-06
-2.60118e-06
1.92036e-06
1.90911e-06
-1.23892e-08
5.78618e-08
-4.40548e-08
1.65931e-07
-9.04329e-08
2.6536e-07
-1.48065e-07
3.57927e-07
-2.14556e-07
4.46484e-07
-2.88408e-07
5.33871e-07
-3.68779e-07
6.22364e-07
-4.5525e-07
7.13424e-07
-5.47618e-07
8.07694e-07
-6.4574e-07
9.05122e-07
-7.49432e-07
1.00515e-06
-8.58401e-07
1.10688e-06
-9.72221e-07
1.20919e-06
-1.09032e-06
1.3108e-06
-1.21198e-06
1.41038e-06
-1.33638e-06
1.5065e-06
-1.4626e-06
1.59776e-06
-1.58966e-06
1.68279e-06
-1.71657e-06
1.76034e-06
-1.84235e-06
1.82928e-06
-1.96605e-06
1.88865e-06
-2.0868e-06
1.93772e-06
-2.2038e-06
1.97593e-06
-2.31632e-06
2.00294e-06
-2.42375e-06
2.0186e-06
-2.52557e-06
2.02293e-06
-2.62133e-06
2.01613e-06
1.99851e-06
-1.35025e-08
7.13643e-08
-4.77505e-08
2.00179e-07
-9.76014e-08
3.15211e-07
-1.59186e-07
4.19512e-07
-2.29838e-07
5.17136e-07
-3.07887e-07
6.1192e-07
-3.92388e-07
7.06864e-07
-4.82849e-07
8.03885e-07
-5.79005e-07
9.0385e-07
-6.8065e-07
1.00677e-06
-7.87528e-07
1.11203e-06
-8.9927e-07
1.21862e-06
-1.01537e-06
1.32528e-06
-1.13517e-06
1.43061e-06
-1.2579e-06
1.53311e-06
-1.38267e-06
1.63127e-06
-1.50852e-06
1.72361e-06
-1.63446e-06
1.80873e-06
-1.75949e-06
1.88537e-06
-1.88263e-06
1.95242e-06
-2.00297e-06
2.00899e-06
-2.11965e-06
2.05441e-06
-2.23192e-06
2.0882e-06
-2.3391e-06
2.11012e-06
-2.44062e-06
2.12012e-06
-2.53601e-06
2.11832e-06
-2.62491e-06
2.10503e-06
2.08068e-06
-1.4528e-08
8.58924e-08
-5.11461e-08
2.36797e-07
-1.04171e-07
3.68236e-07
-1.69349e-07
4.84689e-07
-2.43754e-07
5.91541e-07
-3.25553e-07
6.93719e-07
-4.13694e-07
7.95006e-07
-5.07613e-07
8.97804e-07
-6.06979e-07
1.00322e-06
-7.11521e-07
1.11131e-06
-8.2091e-07
1.22142e-06
-9.34703e-07
1.33241e-06
-1.05232e-06
1.4429e-06
-1.17303e-06
1.55132e-06
-1.29601e-06
1.65608e-06
-1.42032e-06
1.75558e-06
-1.54498e-06
1.84827e-06
-1.66899e-06
1.93274e-06
-1.79134e-06
2.00772e-06
-1.91109e-06
2.07217e-06
-2.02734e-06
2.12524e-06
-2.13927e-06
2.16634e-06
-2.24618e-06
2.1951e-06
-2.34743e-06
2.21137e-06
-2.44251e-06
2.2152e-06
-2.53103e-06
2.20684e-06
-2.61271e-06
2.1867e-06
2.15536e-06
-1.5444e-08
1.01336e-07
-5.41767e-08
2.75529e-07
-1.10028e-07
4.24087e-07
-1.78389e-07
5.5305e-07
-2.56095e-07
6.69247e-07
-3.41155e-07
7.78779e-07
-4.32413e-07
8.86265e-07
-5.29228e-07
9.94619e-07
-6.31202e-07
1.10519e-06
-7.37996e-07
1.2181e-06
-8.49211e-07
1.33263e-06
-9.64334e-07
1.44754e-06
-1.08271e-06
1.56128e-06
-1.20357e-06
1.67218e-06
-1.32602e-06
1.77853e-06
-1.4491e-06
1.87866e-06
-1.57181e-06
1.97098e-06
-1.69314e-06
2.05407e-06
-1.81211e-06
2.12669e-06
-1.9278e-06
2.18785e-06
-2.03933e-06
2.23678e-06
-2.14595e-06
2.27296e-06
-2.24698e-06
2.29614e-06
-2.34187e-06
2.30625e-06
-2.43016e-06
2.30349e-06
-2.51154e-06
2.28822e-06
-2.58582e-06
2.26099e-06
2.22249e-06
-1.62307e-08
1.17567e-07
-5.6784e-08
3.16083e-07
-1.15067e-07
4.82371e-07
-1.8616e-07
6.24143e-07
-2.66677e-07
7.49764e-07
-3.54477e-07
8.66579e-07
-4.48302e-07
9.8009e-07
-5.4743e-07
1.09375e-06
-6.51395e-07
1.20916e-06
-7.5979e-07
1.3265e-06
-8.7215e-07
1.44499e-06
-9.87895e-07
1.56328e-06
-1.10631e-06
1.6797e-06
-1.22658e-06
1.79244e-06
-1.34777e-06
1.89972e-06
-1.4689e-06
1.99979e-06
-1.58896e-06
2.09105e-06
-1.70697e-06
2.17207e-06
-1.82195e-06
2.24167e-06
-1.933e-06
2.29891e-06
-2.03932e-06
2.3431e-06
-2.14017e-06
2.37382e-06
-2.23496e-06
2.39092e-06
-2.32318e-06
2.39448e-06
-2.40448e-06
2.38479e-06
-2.47863e-06
2.36237e-06
-2.54554e-06
2.3279e-06
2.2822e-06
-1.68709e-08
1.34438e-07
-5.89172e-08
3.58129e-07
-1.19203e-07
5.42656e-07
-1.9254e-07
6.97481e-07
-2.75349e-07
8.32572e-07
-3.65345e-07
9.56575e-07
-4.61167e-07
1.07591e-06
-5.62014e-07
1.19459e-06
-6.67349e-07
1.31449e-06
-7.76698e-07
1.43585e-06
-8.89532e-07
1.55783e-06
-1.00521e-06
1.67896e-06
-1.12298e-06
1.79746e-06
-1.24197e-06
1.91143e-06
-1.36123e-06
2.01898e-06
-1.47976e-06
2.11833e-06
-1.59657e-06
2.20786e-06
-1.71068e-06
2.28618e-06
-1.82114e-06
2.35214e-06
-1.92711e-06
2.40488e-06
-2.02781e-06
2.4438e-06
-2.12259e-06
2.4686e-06
-2.2109e-06
2.47923e-06
-2.29232e-06
2.4759e-06
-2.36659e-06
2.45906e-06
-2.43358e-06
2.42936e-06
-2.4933e-06
2.38762e-06
2.33481e-06
-1.73503e-08
1.51788e-07
-6.05348e-08
4.01313e-07
-1.22362e-07
6.04483e-07
-1.9743e-07
7.72549e-07
-2.81988e-07
9.1713e-07
-3.73619e-07
1.04821e-06
-4.70862e-07
1.17315e-06
-5.7283e-07
1.29656e-06
-6.78917e-07
1.42058e-06
-7.88586e-07
1.54551e-06
-9.01248e-07
1.67049e-06
-1.01622e-06
1.79393e-06
-1.13268e-06
1.91393e-06
-1.24976e-06
2.0285e-06
-1.36648e-06
2.1357e-06
-1.48184e-06
2.23369e-06
-1.59487e-06
2.32088e-06
-1.7046e-06
2.39591e-06
-1.81014e-06
2.45768e-06
-1.91067e-06
2.50541e-06
-2.00548e-06
2.53861e-06
-2.09399e-06
2.5571e-06
-2.17572e-06
2.56096e-06
-2.25035e-06
2.55054e-06
-2.31771e-06
2.52642e-06
-2.37776e-06
2.48942e-06
-2.43063e-06
2.44049e-06
2.38075e-06
-1.76579e-08
1.69446e-07
-6.1605e-08
4.4526e-07
-1.2449e-07
6.67368e-07
-2.00756e-07
8.48815e-07
-2.86507e-07
1.00288e-06
-3.79205e-07
1.1409e-06
-4.77288e-07
1.27124e-06
-5.79786e-07
1.39906e-06
-6.86021e-07
1.52681e-06
-7.95396e-07
1.65489e-06
-9.0727e-07
1.78236e-06
-1.02091e-06
1.90757e-06
-1.13548e-06
2.0285e-06
-1.25007e-06
2.14309e-06
-1.36371e-06
2.24933e-06
-1.47541e-06
2.3454e-06
-1.58421e-06
2.42968e-06
-1.68918e-06
2.50088e-06
-1.78947e-06
2.55797e-06
-1.88433e-06
2.60026e-06
-1.9731e-06
2.62739e-06
-2.05527e-06
2.63927e-06
-2.13046e-06
2.63615e-06
-2.19843e-06
2.61851e-06
-2.25912e-06
2.58711e-06
-2.31259e-06
2.54289e-06
-2.35907e-06
2.48697e-06
2.42058e-06
-1.77864e-08
1.87233e-07
-6.21064e-08
4.8958e-07
-1.25552e-07
7.30814e-07
-2.0247e-07
9.25733e-07
-2.88851e-07
1.08926e-06
-3.82047e-07
1.2341e-06
-4.80394e-07
1.36958e-06
-5.82842e-07
1.50151e-06
-6.88642e-07
1.63261e-06
-7.97138e-07
1.76339e-06
-9.07643e-07
1.89287e-06
-1.01939e-06
2.01931e-06
-1.13152e-06
2.14064e-06
-1.24311e-06
2.25469e-06
-1.3532e-06
2.35942e-06
-1.46083e-06
2.45302e-06
-1.56504e-06
2.5339e-06
-1.66496e-06
2.6008e-06
-1.7598e-06
2.6528e-06
-1.84884e-06
2.68931e-06
-1.93153e-06
2.71007e-06
-2.00741e-06
2.71515e-06
-2.0762e-06
2.70494e-06
-2.13777e-06
2.68008e-06
-2.19213e-06
2.64147e-06
-2.23947e-06
2.59022e-06
-2.28009e-06
2.52758e-06
2.45491e-06
-1.77321e-08
2.04965e-07
-6.20277e-08
5.33876e-07
-1.25528e-07
7.94315e-07
-2.02548e-07
1.00275e-06
-2.88996e-07
1.17571e-06
-3.82125e-07
1.32723e-06
-4.80176e-07
1.46764e-06
-5.82013e-07
1.60334e-06
-6.86819e-07
1.73742e-06
-7.93884e-07
1.87045e-06
-9.02482e-07
2.00147e-06
-1.01182e-06
2.12865e-06
-1.12102e-06
2.24984e-06
-1.22918e-06
2.36284e-06
-1.33532e-06
2.46557e-06
-1.43853e-06
2.55622e-06
-1.53789e-06
2.63325e-06
-1.63256e-06
2.69548e-06
-1.72181e-06
2.74206e-06
-1.80501e-06
2.77251e-06
-1.88166e-06
2.78672e-06
-1.9514e-06
2.7849e-06
-2.01404e-06
2.76758e-06
-2.06955e-06
2.73558e-06
-2.11803e-06
2.68995e-06
-2.15975e-06
2.63194e-06
-2.19511e-06
2.56294e-06
2.4844e-06
-1.74947e-08
2.2246e-07
-6.1368e-08
5.77749e-07
-1.24418e-07
8.57365e-07
-2.00992e-07
1.07933e-06
-2.8695e-07
1.26167e-06
-3.7946e-07
1.41974e-06
-4.76669e-07
1.56484e-06
-5.77358e-07
1.70403e-06
-6.80643e-07
1.8407e-06
-7.85765e-07
1.97557e-06
-8.91963e-07
2.10766e-06
-9.98426e-07
2.23511e-06
-1.10428e-06
2.3557e-06
-1.20861e-06
2.46717e-06
-1.31049e-06
2.56745e-06
-1.40902e-06
2.65474e-06
-1.50333e-06
2.72756e-06
-1.59264e-06
2.78479e-06
-1.67627e-06
2.82569e-06
-1.75368e-06
2.84991e-06
-1.82443e-06
2.85747e-06
-1.88827e-06
2.84874e-06
-1.94508e-06
2.82439e-06
-1.99493e-06
2.78542e-06
-2.03801e-06
2.73303e-06
-2.07468e-06
2.66861e-06
-2.1054e-06
2.59366e-06
2.50972e-06
-1.70776e-08
2.39537e-07
-6.0136e-08
6.20808e-07
-1.22236e-07
9.19465e-07
-1.97824e-07
1.15492e-06
-2.82748e-07
1.34659e-06
-3.74103e-07
1.51109e-06
-4.69948e-07
1.66069e-06
-5.6898e-07
1.80307e-06
-6.70252e-07
1.94197e-06
-7.72958e-07
2.07828e-06
-8.76312e-07
2.21102e-06
-9.79492e-07
2.33829e-06
-1.08163e-06
2.45783e-06
-1.18183e-06
2.56737e-06
-1.27919e-06
2.66481e-06
-1.37284e-06
2.7484e-06
-1.46198e-06
2.8167e-06
-1.54589e-06
2.8687e-06
-1.62395e-06
2.90375e-06
-1.69569e-06
2.92165e-06
-1.76076e-06
2.92255e-06
-1.81899e-06
2.90697e-06
-1.87036e-06
2.87576e-06
-1.91501e-06
2.83007e-06
-1.95322e-06
2.77125e-06
-1.98542e-06
2.7008e-06
-2.01211e-06
2.62035e-06
2.5315e-06
-1.64873e-08
2.56024e-07
-5.83496e-08
6.6267e-07
-1.19014e-07
9.80129e-07
-1.93091e-07
1.22899e-06
-2.76452e-07
1.42995e-06
-3.66136e-07
1.60078e-06
-4.60119e-07
1.75467e-06
-5.57018e-07
1.89996e-06
-6.55821e-07
2.04078e-06
-7.55682e-07
2.17814e-06
-8.55796e-07
2.31113e-06
-9.55337e-07
2.43783e-06
-1.05345e-06
2.55595e-06
-1.14926e-06
2.66318e-06
-1.24191e-06
2.75746e-06
-1.33057e-06
2.83706e-06
-1.4145e-06
2.90063e-06
-1.49303e-06
2.94723e-06
-1.56563e-06
2.97635e-06
-1.63188e-06
2.98791e-06
-1.69155e-06
2.98221e-06
-1.74452e-06
2.95994e-06
-1.79086e-06
2.92211e-06
-1.8308e-06
2.87001e-06
-1.86467e-06
2.80512e-06
-1.89296e-06
2.72909e-06
-1.91621e-06
2.6436e-06
2.55034e-06
-1.57332e-08
2.71758e-07
-5.60346e-08
7.02971e-07
-1.14794e-07
1.03889e-06
-1.86854e-07
1.30105e-06
-2.68145e-07
1.51124e-06
-3.55668e-07
1.6883e-06
-4.47321e-07
1.84633e-06
-5.41642e-07
1.99429e-06
-6.3756e-07
2.1367e-06
-7.34193e-07
2.27477e-06
-8.30719e-07
2.40766e-06
-9.26317e-07
2.53343e-06
-1.02015e-06
2.64978e-06
-1.11138e-06
2.75441e-06
-1.19918e-06
2.84527e-06
-1.28279e-06
2.92067e-06
-1.36152e-06
2.97935e-06
-1.43476e-06
3.02047e-06
-1.50205e-06
3.04364e-06
-1.56307e-06
3.04892e-06
-1.61763e-06
3.03677e-06
-1.66573e-06
3.00803e-06
-1.70749e-06
2.96387e-06
-1.74319e-06
2.90571e-06
-1.77325e-06
2.83518e-06
-1.79818e-06
2.75402e-06
-1.81855e-06
2.66398e-06
2.5668e-06
-1.4827e-08
2.86585e-07
-5.3224e-08
7.41368e-07
-1.09634e-07
1.0953e-06
-1.79194e-07
1.37061e-06
-2.57931e-07
1.58998e-06
-3.42828e-07
1.7732e-06
-4.31713e-07
1.93521e-06
-5.23049e-07
2.08562e-06
-6.15706e-07
2.22935e-06
-7.08768e-07
2.36783e-06
-8.01406e-07
2.5003e-06
-8.92808e-07
2.62483e-06
-9.82163e-07
2.73913e-06
-1.06867e-06
2.84091e-06
-1.15155e-06
2.92815e-06
-1.2301e-06
2.99922e-06
-1.30368e-06
3.05293e-06
-1.37176e-06
3.08856e-06
-1.43396e-06
3.10584e-06
-1.49001e-06
3.10497e-06
-1.53981e-06
3.08658e-06
-1.58342e-06
3.05164e-06
-1.62103e-06
3.00148e-06
-1.65299e-06
2.93767e-06
-1.67973e-06
2.86193e-06
-1.70181e-06
2.77609e-06
-1.71981e-06
2.68198e-06
2.58135e-06
-1.37829e-08
3.00368e-07
-4.9957e-08
7.77542e-07
-1.036e-07
1.14894e-06
-1.70203e-07
1.43721e-06
-2.4593e-07
1.66571e-06
-3.27766e-07
1.85504e-06
-4.13477e-07
2.02092e-06
-5.01455e-07
2.1736e-06
-5.90514e-07
2.31841e-06
-6.79707e-07
2.45703e-06
-7.68202e-07
2.58879e-06
-8.55201e-07
2.71183e-06
-9.39925e-07
2.82386e-06
-1.02161e-06
2.9226e-06
-1.09955e-06
3.00608e-06
-1.17306e-06
3.07274e-06
-1.2416e-06
3.12147e-06
-1.3047e-06
3.15165e-06
-1.36203e-06
3.16317e-06
-1.41341e-06
3.15635e-06
-1.4588e-06
3.13197e-06
-1.49832e-06
3.09116e-06
-1.53222e-06
3.03538e-06
-1.56088e-06
2.96632e-06
-1.58477e-06
2.88582e-06
-1.60446e-06
2.79578e-06
-1.62053e-06
2.69805e-06
2.59442e-06
-1.26163e-08
3.12984e-07
-4.62775e-08
8.11204e-07
-9.67672e-08
1.19943e-06
-1.59987e-07
1.50043e-06
-2.32277e-07
1.738e-06
-3.10645e-07
1.9334e-06
-3.92809e-07
2.10308e-06
-4.77091e-07
2.25788e-06
-5.62252e-07
2.40357e-06
-6.4732e-07
2.5421e-06
-7.31458e-07
2.67293e-06
-8.13891e-07
2.79427e-06
-8.93875e-07
2.90384e-06
-9.70695e-07
2.99942e-06
-1.04368e-06
3.07907e-06
-1.11225e-06
3.1413e-06
-1.17588e-06
3.18509e-06
-1.23418e-06
3.20996e-06
-1.2869e-06
3.21589e-06
-1.33391e-06
3.20337e-06
-1.37525e-06
3.1733e-06
-1.41106e-06
3.12698e-06
-1.44166e-06
3.06598e-06
-1.46744e-06
2.99211e-06
-1.48891e-06
2.90729e-06
-1.50661e-06
2.81348e-06
-1.52114e-06
2.71258e-06
2.60635e-06
-1.13442e-08
3.24328e-07
-4.22332e-08
8.42093e-07
-8.92163e-08
1.24642e-06
-1.48658e-07
1.55988e-06
-2.17115e-07
1.80645e-06
-2.9164e-07
2.00793e-06
-3.69914e-07
2.18136e-06
-4.50198e-07
2.33817e-06
-5.312e-07
2.48458e-06
-6.11923e-07
2.62282e-06
-6.91531e-07
2.75254e-06
-7.69274e-07
2.87201e-06
-8.44445e-07
2.97901e-06
-9.16381e-07
3.07136e-06
-9.84469e-07
3.14716e-06
-1.04817e-06
3.205e-06
-1.10705e-06
3.24397e-06
-1.16078e-06
3.26368e-06
-1.20915e-06
3.26426e-06
-1.2521e-06
3.24632e-06
-1.28971e-06
3.21091e-06
-1.32219e-06
3.15945e-06
-1.34987e-06
3.09365e-06
-1.37316e-06
3.0154e-06
-1.39257e-06
2.9267e-06
-1.40865e-06
2.82956e-06
-1.42195e-06
2.72588e-06
2.61744e-06
-9.9841e-09
3.34312e-07
-3.78748e-08
8.69983e-07
-8.1034e-08
1.28957e-06
-1.36338e-07
1.61518e-06
-2.00595e-07
1.87071e-06
-2.70934e-07
2.07827e-06
-3.45008e-07
2.25543e-06
-4.21022e-07
2.41418e-06
-4.97638e-07
2.56119e-06
-5.73831e-07
2.69901e-06
-6.48772e-07
2.82748e-06
-7.21735e-07
2.94497e-06
-7.92055e-07
3.04933e-06
-8.59119e-07
3.13842e-06
-9.22373e-07
3.21042e-06
-9.81341e-07
3.26397e-06
-1.03564e-06
3.29827e-06
-1.08501e-06
3.31305e-06
-1.12929e-06
3.30855e-06
-1.16848e-06
3.28551e-06
-1.2027e-06
3.24513e-06
-1.23218e-06
3.18894e-06
-1.25728e-06
3.11874e-06
-1.27842e-06
3.03654e-06
-1.2961e-06
2.94438e-06
-1.31085e-06
2.8443e-06
-1.3232e-06
2.73823e-06
2.62791e-06
-8.55404e-09
3.42866e-07
-3.32544e-08
8.94684e-07
-7.23102e-08
1.32863e-06
-1.23151e-07
1.66602e-06
-1.82876e-07
1.93044e-06
-2.48713e-07
2.14411e-06
-3.18307e-07
2.32503e-06
-3.89813e-07
2.48569e-06
-4.61846e-07
2.63322e-06
-5.33359e-07
2.77052e-06
-6.03526e-07
2.89765e-06
-6.71649e-07
3.0131e-06
-7.37106e-07
3.11479e-06
-7.99336e-07
3.20065e-06
-8.57843e-07
3.26892e-06
-9.12209e-07
3.31834e-06
-9.62111e-07
3.34818e-06
-1.00734e-06
3.35827e-06
-1.04779e-06
3.349e-06
-1.0835e-06
3.32123e-06
-1.11463e-06
3.27625e-06
-1.14142e-06
3.21573e-06
-1.16425e-06
3.14157e-06
-1.18353e-06
3.05583e-06
-1.19976e-06
2.96061e-06
-1.21343e-06
2.85797e-06
-1.22504e-06
2.74984e-06
2.63794e-06
-7.07209e-09
-2.8425e-08
-6.31366e-08
1.36334e-06
-1.09226e-07
1.71211e-06
-1.64118e-07
1.98533e-06
-2.25168e-07
2.20516e-06
-2.9003e-07
2.38989e-06
-3.56818e-07
2.55247e-06
-4.241e-07
2.70051e-06
-4.90811e-07
2.83724e-06
-5.56126e-07
2.96296e-06
-6.19375e-07
3.07634e-06