/*--------------------------------*- C++ -*----------------------------------*\
  =========                 |
  \\      /  F ield         | OpenFOAM: The Open Source CFD Toolbox
   \\    /   O peration     | Website:  https://openfoam.org
    \\  /    A nd           | Version:  9
     \\/     M anipulation  |
\*---------------------------------------------------------------------------*/
FoamFile
{
    format      ascii;
    class       volVectorField;
    location    "3";
    object      U;
}
// * * * * * * * * * * * * * * * * * * * * * * * * * * * * * * * * * * * * * //

dimensions      [0 1 -1 0 0 0 0];

internalField   nonuniform List<vector> 
1250
(
(-7.84999e-06 7.90635e-06 0)
(3.18645e-05 -2.22653e-05 0)
(0.00015797 -4.92189e-05 0)
(0.000332534 -6.41094e-05 0)
(0.000530811 -6.94341e-05 0)
(0.000732626 -6.81759e-05 0)
(0.000922774 -6.26593e-05 0)
(0.00109093 -5.4615e-05 0)
(0.00123067 -4.52846e-05 0)
(0.00133847 -3.55367e-05 0)
(0.00141298 -2.59561e-05 0)
(0.00145425 -1.69036e-05 0)
(0.00146329 -8.56956e-06 0)
(0.0014415 -9.66373e-07 0)
(0.00139029 5.98773e-06 0)
(0.0013108 1.24595e-05 0)
(0.00120367 1.86694e-05 0)
(0.00106891 2.4862e-05 0)
(0.000905892 3.12806e-05 0)
(0.000713331 3.81498e-05 0)
(0.000489396 4.56589e-05 0)
(0.000231819 5.39567e-05 0)
(-6.19669e-05 6.31464e-05 0)
(-0.000394678 7.32879e-05 0)
(-0.000769036 8.44016e-05 0)
(-0.00118763 9.64714e-05 0)
(-0.0016528 0.000109449 0)
(-0.00216652 0.000123256 0)
(-0.00273025 0.000137785 0)
(2.21155e-05 -3.16103e-05 0)
(0.000170771 -0.000170808 0)
(0.000483173 -0.000283818 0)
(0.000886581 -0.00034947 0)
(0.00133232 -0.000373423 0)
(0.00178095 -0.000365026 0)
(0.00219972 -0.000333203 0)
(0.00256411 -0.000285583 0)
(0.00285723 -0.000228274 0)
(0.00306843 -0.000165939 0)
(0.00319192 -0.000101962 0)
(0.00322542 -3.85939e-05 0)
(0.00316896 2.2912e-05 0)
(0.00302381 8.20705e-05 0)
(0.0027915 0.000139085 0)
(0.00247317 0.000194648 0)
(0.00206907 0.000249768 0)
(0.0015782 0.000305617 0)
(0.000998248 0.000363381 0)
(0.000325606 0.000424156 0)
(-0.000444433 0.000488849 0)
(-0.00131739 0.000558122 0)
(-0.00229924 0.000632371 0)
(-0.00339607 0.000711709 0)
(-0.00461365 0.000795984 0)
(-0.0059571 0.000884788 0)
(-0.00743054 0.00097748 0)
(-0.00903676 0.0010732 0)
(-0.0107769 0.00117088 0)
(4.93372e-05 -0.000157715 0)
(0.000285177 -0.000483466 0)
(0.000729664 -0.000726965 0)
(0.0012793 -0.000867871 0)
(0.00187005 -0.000915601 0)
(0.00245219 -0.00088716 0)
(0.00298308 -0.000800649 0)
(0.00342936 -0.000672726 0)
(0.00376682 -0.000517501 0)
(0.0039791 -0.000346233 0)
(0.00405606 -0.000167378 0)
(0.00399225 1.32262e-05 0)
(0.00378535 0.000192114 0)
(0.00343482 0.000367776 0)
(0.00294076 0.000540384 0)
(0.00230284 0.00071135 0)
(0.00151975 0.000882902 0)
(0.000588726 0.00105769 0)
(-0.000494573 0.00123843 0)
(-0.00173595 0.00142759 0)
(-0.00314242 0.00162713 0)
(-0.00472172 0.0018384 0)
(-0.00648183 0.00206199 0)
(-0.00843037 0.00229776 0)
(-0.010574 0.00254478 0)
(-0.012918 0.00280142 0)
(-0.0154655 0.00306538 0)
(-0.0182171 0.00333374 0)
(-0.0211705 0.00360299 0)
(6.52053e-05 -0.000333693 0)
(0.000354655 -0.000889842 0)
(0.000877913 -0.00127819 0)
(0.00150444 -0.0014929 0)
(0.00215808 -0.00155255 0)
(0.00278249 -0.00148392 0)
(0.00332928 -0.00131538 0)
(0.00375986 -0.00107349 0)
(0.00404539 -0.000781258 0)
(0.00416532 -0.000457443 0)
(0.00410586 -0.000116396 0)
(0.00385835 0.000231775 0)
(0.0034176 0.000580841 0)
(0.0027805 0.000928005 0)
(0.00194469 0.00127325 0)
(0.000907517 0.00161865 0)
(-0.000334632 0.00196773 0)
(-0.00178677 0.00232466 0)
(-0.00345539 0.00269373 0)
(-0.00534825 0.00307869 0)
(-0.00747402 0.00348242 0)
(-0.00984161 0.00390656 0)
(-0.0124595 0.00435139 0)
(-0.0153351 0.00481576 0)
(-0.0184738 0.00529706 0)
(-0.0218783 0.00579135 0)
(-0.025548 0.00629342 0)
(-0.0294785 0.0067969 0)
(-0.0336607 0.00729438 0)
(7.21886e-05 -0.000536295 0)
(0.000384186 -0.00134284 0)
(0.00093476 -0.00187432 0)
(0.00157474 -0.00214842 0)
(0.00221893 -0.00219821 0)
(0.0028063 -0.0020628 0)
(0.00328511 -0.0017818 0)
(0.00361385 -0.001392 0)
(0.00376091 -0.000925436 0)
(0.00370291 -0.000408452 0)
(0.00342317 0.000138581 0)
(0.00291006 0.000701163 0)
(0.00215546 0.00127024 0)
(0.00115328 0.00184156 0)
(-0.000101742 0.00241481 0)
(-0.00161506 0.00299268 0)
(-0.00339295 0.00357978 0)
(-0.00544281 0.00418165 0)
(-0.00777312 0.00480377 0)
(-0.0103931 0.00545079 0)
(-0.0133122 0.00612585 0)
(-0.0165392 0.00683014 0)
(-0.0200816 0.00756269 0)
(-0.0239442 0.00832023 0)
(-0.0281288 0.00909724 0)
(-0.0326331 0.00988611 0)
(-0.03745 0.0106773 0)
(-0.0425669 0.0114594 0)
(-0.0479655 0.0122198 0)
(7.29397e-05 -0.000746079 0)
(0.000381122 -0.00180257 0)
(0.000911864 -0.00246309 0)
(0.00150708 -0.00277325 0)
(0.00207615 -0.00278451 0)
(0.00255516 -0.00255047 0)
(0.00289073 -0.00212298 0)
(0.00304007 -0.00154925 0)
(0.0029701 -0.000870203 0)
(0.00265568 -0.000119518 0)
(0.00207787 0.000676689 0)
(0.00122249 0.00149974 0)
(7.85285e-05 0.00233787 0)
(-0.0013631 0.00318544 0)
(-0.00311071 0.00404182 0)
(-0.0051727 0.0049101 0)
(-0.00755796 0.00579572 0)
(-0.0102761 0.00670512 0)
(-0.013337 0.0076444 0)
(-0.0167506 0.00861825 0)
(-0.0205258 0.00962913 0)
(-0.0246698 0.0106766 0)
(-0.0291868 0.0117572 0)
(-0.0340772 0.0128641 0)
(-0.0393367 0.0139873 0)
(-0.0449552 0.015114 0)
(-0.0509163 0.0162287 0)
(-0.0571968 0.0173139 0)
(-0.0637666 0.0183501 0)
(6.92002e-05 -0.000947205 0)
(0.000351358 -0.00223266 0)
(0.000819946 -0.00299485 0)
(0.00131712 -0.00330882 0)
(0.00175075 -0.00324652 0)
(0.00205608 -0.00287757 0)
(0.00217972 -0.00226657 0)
(0.00207893 -0.00147117 0)
(0.00172022 -0.000540777 0)
(0.00107741 0.00048412 0)
(0.000129936 0.00157217 0)
(-0.00113865 0.00270094 0)
(-0.00274197 0.00385627 0)
(-0.00469203 0.00503125 0)
(-0.00700007 0.00622488 0)
(-0.0096772 0.00744042 0)
(-0.0127346 0.00868368 0)
(-0.0161834 0.00996126 0)
(-0.0200341 0.011279 0)
(-0.024296 0.0126404 0)
(-0.0289761 0.014046 0)
(-0.0340779 0.0154922 0)
(-0.0396004 0.0169714 0)
(-0.045537 0.0184716 0)
(-0.0518748 0.0199767 0)
(-0.0585936 0.0214672 0)
(-0.0656655 0.0229204 0)
(-0.073055 0.0243113 0)
(-0.0807188 0.0256129 0)
(6.19751e-05 -0.00112686 0)
(0.000298919 -0.00260098 0)
(0.000667189 -0.00342409 0)
(0.00101736 -0.0037006 0)
(0.00125979 -0.00352375 0)
(0.00133115 -0.00297965 0)
(0.00117974 -0.00214569 0)
(0.000764076 -0.00108951 0)
(5.11574e-05 0.000131654 0)
(-0.000985602 0.00147122 0)
(-0.00236799 0.00289331 0)
(-0.00411433 0.00437229 0)
(-0.00624065 0.00589196 0)
(-0.00876154 0.0074443 0)
(-0.0116908 0.00902779 0)
(-0.0150418 0.0106455 0)
(-0.0188272 0.0123028 0)
(-0.0230588 0.0140057 0)
(-0.0277465 0.0157582 0)
(-0.0328972 0.0175616 0)
(-0.0385141 0.0194125 0)
(-0.0445951 0.0213025 0)
(-0.0511315 0.0232181 0)
(-0.0581078 0.0251404 0)
(-0.0655 0.0270457 0)
(-0.0732761 0.0289065 0)
(-0.0813955 0.0306919 0)
(-0.0898093 0.0323689 0)
(-0.0984614 0.0339031 0)
(5.17349e-05 -0.00127406 0)
(0.000226165 -0.00287881 0)
(0.00045912 -0.00370927 0)
(0.000616992 -0.00389838 0)
(0.000616543 -0.00356039 0)
(0.000398244 -0.00279748 0)
(-8.61602e-05 -0.00169914 0)
(-0.000875697 -0.000342102 0)
(-0.00200212 0.00120951 0)
(-0.0034919 0.002904 0)
(-0.00536767 0.00470174 0)
(-0.00764933 0.00657451 0)
(-0.0103549 0.00850444 0)
(-0.0135012 0.0104824 0)
(-0.0171041 0.0125062 0)
(-0.0211782 0.014578 0)
(-0.0257368 0.0167019 0)
(-0.0307909 0.0188818 0)
(-0.0363481 0.0211187 0)
(-0.0424114 0.0234095 0)
(-0.048978 0.0257454 0)
(-0.0560378 0.0281113 0)
(-0.0635728 0.0304858 0)
(-0.0715562 0.0328417 0)
(-0.0799519 0.0351466 0)
(-0.0887148 0.037364 0)
(-0.0977914 0.0394547 0)
(-0.10712 0.0413779 0)
(-0.116633 0.0430928 0)
(3.86198e-05 -0.00137871 0)
(0.000134294 -0.00303962 0)
(0.000199218 -0.00381183 0)
(0.000122585 -0.00385556 0)
(-0.000168637 -0.00330487 0)
(-0.000727791 -0.00227667 0)
(-0.00159792 -0.000871174 0)
(-0.00281449 0.000827187 0)
(-0.00440732 0.00274874 0)
(-0.00640234 0.00483779 0)
(-0.00882267 0.00705186 0)
(-0.0116895 0.00936074 0)
(-0.0150223 0.0117451 0)
(-0.0188397 0.0141947 0)
(-0.0231584 0.016706 0)
(-0.0279938 0.0192795 0)
(-0.0333581 0.0219169 0)
(-0.03926 0.0246184 0)
(-0.045703 0.0273802 0)
(-0.0526841 0.030193 0)
(-0.0601924 0.0330404 0)
(-0.0682083 0.0358988 0)
(-0.0767023 0.0387378 0)
(-0.0856354 0.0415206 0)
(-0.0949586 0.0442052 0)
(-0.104614 0.0467465 0)
(-0.114536 0.0490973 0)
(-0.124653 0.0512105 0)
(-0.134888 0.0530405 0)
(2.26058e-05 -0.00143109 0)
(2.38374e-05 -0.00305826 0)
(-0.000110277 -0.00369561 0)
(-0.000460906 -0.0035288 0)
(-0.00108707 -0.0027097 0)
(-0.00203361 -0.00136771 0)
(-0.00333678 0.000388337 0)
(-0.0050274 0.00246826 0)
(-0.00713277 0.00479849 0)
(-0.00967789 0.00732062 0)
(-0.0126861 0.00999024 0)
(-0.0161793 0.0127756 0)
(-0.0201782 0.0156562 0)
(-0.0247021 0.0186201 0)
(-0.029768 0.0216619 0)
(-0.0353901 0.0247791 0)
(-0.0415784 0.0279697 0)
(-0.0483375 0.0312282 0)
(-0.0556648 0.0345443 0)
(-0.0635492 0.0379004 0)
(-0.0719702 0.0412709 0)
(-0.0808969 0.0446223 0)
(-0.0902877 0.0479138 0)
(-0.100091 0.0510985 0)
(-0.110245 0.0541255 0)
(-0.120681 0.0569413 0)
(-0.131323 0.0594927 0)
(-0.142091 0.0617281 0)
(-0.152904 0.0635997 0)
(3.6167e-06 -0.00142151 0)
(-0.000104945 -0.00291058 0)
(-0.000467635 -0.00332653 0)
(-0.00112901 -0.00287799 0)
(-0.00213044 -0.0017316 0)
(-0.00350603 -2.62459e-05 0)
(-0.00528374 0.00212356 0)
(-0.00748885 0.00462434 0)
(-0.0101457 0.00740058 0)
(-0.0132779 0.0103926 0)
(-0.0169087 0.0135549 0)
(-0.0210604 0.0168546 0)
(-0.0257541 0.0202697 0)
(-0.0310089 0.0237862 0)
(-0.0368407 0.0273957 0)
(-0.0432614 0.0310917 0)
(-0.0502769 0.034866 0)
(-0.0578856 0.0387063 0)
(-0.0660771 0.0425934 0)
(-0.0748309 0.0464997 0)
(-0.0841152 0.0503891 0)
(-0.093887 0.054217 0)
(-0.104092 0.057932 0)
(-0.114668 0.0614775 0)
(-0.125541 0.0647944 0)
(-0.136633 0.067823 0)
(-0.147862 0.0705058 0)
(-0.159143 0.0727896 0)
(-0.170395 0.0746276 0)
(-1.8499e-05 -0.00134033 0)
(-0.000251825 -0.00257333 0)
(-0.000870977 -0.00267262 0)
(-0.00187696 -0.00186636 0)
(-0.00328978 -0.000331871 0)
(-0.00513079 0.00178651 0)
(-0.0074183 0.00437223 0)
(-0.0101713 0.00733148 0)
(-0.0134107 0.010589 0)
(-0.0171587 0.0140853 0)
(-0.0214378 0.0177746 0)
(-0.0262702 0.021623 0)
(-0.0316767 0.0256066 0)
(-0.0376749 0.0297086 0)
(-0.0442784 0.0339162 0)
(-0.051495 0.038217 0)
(-0.0593248 0.0425954 0)
(-0.0677585 0.0470299 0)
(-0.0767763 0.0514909 0)
(-0.0863468 0.0559393 0)
(-0.0964264 0.0603275 0)
(-0.10696 0.0645996 0)
(-0.117882 0.068694 0)
(-0.129119 0.0725456 0)
(-0.140589 0.0760888 0)
(-0.152208 0.0792599 0)
(-0.16389 0.0820004 0)
(-0.17555 0.0842581 0)
(-0.187108 0.0859897 0)
(-4.37787e-05 -0.00117804 0)
(-0.000416285 -0.00202431 0)
(-0.00131786 -0.00170431 0)
(-0.00269894 -0.000460885 0)
(-0.00455463 0.00152324 0)
(-0.00689164 0.00410336 0)
(-0.00971752 0.00716524 0)
(-0.0130444 0.0106182 0)
(-0.0168895 0.0143896 0)
(-0.021273 0.0184215 0)
(-0.0262166 0.0226684 0)
(-0.0317417 0.0270955 0)
(-0.0378674 0.0316763 0)
(-0.0446092 0.0363899 0)
(-0.0519767 0.0412178 0)
(-0.0599718 0.0461397 0)
(-0.0685874 0.051131 0)
(-0.0778051 0.0561591 0)
(-0.0875943 0.0611825 0)
(-0.0979123 0.0661501 0)
(-0.108704 0.0710022 0)
(-0.119902 0.0756722 0)
(-0.131432 0.0800894 0)
(-0.143211 0.0841821 0)
(-0.155152 0.0878806 0)
(-0.167168 0.0911203 0)
(-0.179172 0.093844 0)
(-0.191082 0.0960035 0)
(-0.202823 0.0975613 0)
(-7.21866e-05 -0.00092538 0)
(-0.000597414 -0.00124285 0)
(-0.00180492 -0.000394954 0)
(-0.00358764 0.00136719 0)
(-0.00591247 0.003862 0)
(-0.00876981 0.0069506 0)
(-0.0121555 0.0105262 0)
(-0.0160744 0.0145049 0)
(-0.0205397 0.0188193 0)
(-0.0255695 0.0234144 0)
(-0.031184 0.0282454 0)
(-0.037403 0.0332759 0)
(-0.0442432 0.0384762 0)
(-0.0517161 0.0438198 0)
(-0.0598262 0.0492806 0)
(-0.0685683 0.0548293 0)
(-0.0779263 0.0604299 0)
(-0.0878716 0.0660377 0)
(-0.0983627 0.0715984 0)
(-0.109345 0.0770484 0)
(-0.120752 0.0823164 0)
(-0.132509 0.0873264 0)
(-0.14453 0.0920004 0)
(-0.156729 0.0962626 0)
(-0.169015 0.100042 0)
(-0.181301 0.103276 0)
(-0.193502 0.10591 0)
(-0.205541 0.107904 0)
(-0.217347 0.109226 0)
(-0.000103593 -0.000573669 0)
(-0.0007938 -0.000210259 0)
(-0.00232761 0.00127868 0)
(-0.004534 0.00364174 0)
(-0.0073485 0.00670667 0)
(-0.0107438 0.0103476 0)
(-0.0147033 0.0144709 0)
(-0.0192243 0.0190038 0)
(-0.0243157 0.0238863 0)
(-0.0299932 0.0290677 0)
(-0.0362751 0.034504 0)
(-0.0431786 0.0401568 0)
(-0.0507168 0.0459915 0)
(-0.0588963 0.0519748 0)
(-0.0677147 0.0580715 0)
(-0.0771586 0.064241 0)
(-0.087202 0.070435 0)
(-0.0978055 0.0765957 0)
(-0.108917 0.0826556 0)
(-0.12047 0.088539 0)
(-0.132389 0.0941643 0)
(-0.144591 0.0994476 0)
(-0.156985 0.104306 0)
(-0.169481 0.108663 0)
(-0.181989 0.112448 0)
(-0.194422 0.115602 0)
(-0.2067 0.118079 0)
(-0.218752 0.119843 0)
(-0.230513 0.120873 0)
(-0.000137723 -0.000115057 0)
(-0.00100342 0.00108967 0)
(-0.00288023 0.00333564 0)
(-0.00552716 0.00638119 0)
(-0.00884555 0.010073 0)
(-0.0127892 0.0143065 0)
(-0.0173288 0.0190076 0)
(-0.0224537 0.0241186 0)
(-0.0281685 0.0295899 0)
(-0.0344861 0.0353757 0)
(-0.041422 0.0414327 0)
(-0.0489901 0.0477196 0)
(-0.0571989 0.0541958 0)
(-0.0660486 0.0608193 0)
(-0.0755291 0.0675441 0)
(-0.0856176 0.0743173 0)
(-0.0962777 0.0810771 0)
(-0.107459 0.0877519 0)
(-0.119099 0.0942615 0)
(-0.131122 0.100519 0)
(-0.143445 0.106435 0)
(-0.155976 0.111919 0)
(-0.168625 0.116887 0)
(-0.181298 0.121261 0)
(-0.193908 0.124977 0)
(-0.206371 0.127982 0)
(-0.218613 0.130234 0)
(-0.230566 0.131709 0)
(-0.242171 0.132393 0)
(-0.00017414 0.000457282 0)
(-0.00122373 0.00266996 0)
(-0.00345592 0.00579017 0)
(-0.00655446 0.00959794 0)
(-0.0103843 0.0139699 0)
(-0.0148795 0.0188319 0)
(-0.0199976 0.0241361 0)
(-0.0257201 0.0298447 0)
(-0.032047 0.0359203 0)
(-0.0389879 0.042323 0)
(-0.046555 0.0490098 0)
(-0.0547578 0.0559354 0)
(-0.0635992 0.0630516 0)
(-0.0730722 0.0703063 0)
(-0.0831578 0.0776412 0)
(-0.0938234 0.0849898 0)
(-0.105022 0.0922764 0)
(-0.116694 0.0994161 0)
(-0.128765 0.106317 0)
(-0.141153 0.112882 0)
(-0.153767 0.119015 0)
(-0.166515 0.124624 0)
(-0.179301 0.129623 0)
(-0.192036 0.13394 0)
(-0.204633 0.137515 0)
(-0.217014 0.1403 0)
(-0.229108 0.142266 0)
(-0.240853 0.143394 0)
(-0.252196 0.14368 0)
(-0.000212469 0.00114857 0)
(-0.00145183 0.00453984 0)
(-0.00404675 0.00865121 0)
(-0.00760173 0.013298 0)
(-0.0119436 0.018399 0)
(-0.0169861 0.0239207 0)
(-0.0226734 0.0298486 0)
(-0.0289791 0.0361689 0)
(-0.0358984 0.042859 0)
(-0.0434372 0.0498852 0)
(-0.0516036 0.0572042 0)
(-0.0604021 0.0647653 0)
(-0.0698288 0.0725114 0)
(-0.0798687 0.0803787 0)
(-0.0904935 0.0882955 0)
(-0.10166 0.0961813 0)
(-0.113313 0.103946 0)
(-0.12538 0.111493 0)
(-0.137782 0.118718 0)
(-0.150428 0.125518 0)
(-0.163224 0.131793 0)
(-0.176076 0.137448 0)
(-0.188888 0.142402 0)
(-0.201573 0.146587 0)
(-0.214048 0.149949 0)
(-0.226238 0.152449 0)
(-0.238078 0.154066 0)
(-0.24951 0.15479 0)
(-0.260486 0.154625 0)
(-0.00025204 0.00196222 0)
(-0.00168413 0.00670443 0)
(-0.00464379 0.0119219 0)
(-0.00865353 0.0174805 0)
(-0.0135008 0.0233548 0)
(-0.019079 0.0295622 0)
(-0.0253187 0.0361292 0)
(-0.0321856 0.0430703 0)
(-0.0396698 0.0503794 0)
(-0.0477731 0.0580295 0)
(-0.0564988 0.065976 0)
(-0.0658455 0.0741617 0)
(-0.075802 0.082519 0)
(-0.0863445 0.0909712 0)
(-0.0974353 0.0994325 0)
(-0.109022 0.107808 0)
(-0.121038 0.115994 0)
(-0.133405 0.123882 0)
(-0.146035 0.131361 0)
(-0.158834 0.13832 0)
(-0.171705 0.144658 0)
(-0.184552 0.150282 0)
(-0.197283 0.155115 0)
(-0.209812 0.159094 0)
(-0.222061 0.162173 0)
(-0.233958 0.164324 0)
(-0.245442 0.165531 0)
(-0.25646 0.165795 0)
(-0.266969 0.165127 0)
(-0.000292129 0.00289982 0)
(-0.00191671 0.00916428 0)
(-0.00523747 0.0155994 0)
(-0.0096936 0.022138 0)
(-0.0150327 0.0288246 0)
(-0.0211276 0.0357386 0)
(-0.0278957 0.0429547 0)
(-0.0352945 0.0505202 0)
(-0.043309 0.0584473 0)
(-0.051936 0.0667152 0)
(-0.0611738 0.0752776 0)
(-0.0710141 0.0840692 0)
(-0.0814379 0.0930107 0)
(-0.0924127 0.102012 0)
(-0.103891 0.110972 0)
(-0.115812 0.119782 0)
(-0.1281 0.128327 0)
(-0.140669 0.136486 0)
(-0.153427 0.144142 0)
(-0.166276 0.151183 0)
(-0.179118 0.157505 0)
(-0.191858 0.16302 0)
(-0.204407 0.167656 0)
(-0.21668 0.171358 0)
(-0.228604 0.174087 0)
(-0.240111 0.175824 0)
(-0.251145 0.176562 0)
(-0.261657 0.176311 0)
(-0.000331947 0.00396073 0)
(-0.00214541 0.0119151 0)
(-0.00581779 0.0196745 0)
(-0.0107052 0.0272559 0)
(-0.0165157 0.0347884 0)
(-0.0231016 0.0424248 0)
(-0.0303674 0.0502951 0)
(-0.0382623 0.0584833 0)
(-0.0467657 0.0670213 0)
(-0.0558694 0.0758949 0)
(-0.0655657 0.0850547 0)
(-0.0758392 0.0944261 0)
(-0.0866627 0.103917 0)
(-0.0979949 0.113424 0)
(-0.10978 0.12283 0)
(-0.121947 0.132014 0)
(-0.134414 0.140848 0)
(-0.14709 0.149205 0)
(-0.159877 0.156962 0)
(-0.172678 0.164006 0)
(-0.185394 0.170234 0)
(-0.197931 0.175565 0)
(-0.210203 0.17993 0)
(-0.222129 0.183284 0)
(-0.233637 0.185597 0)
(-0.244667 0.186858 0)
(-0.255165 0.18707 0)
(-0.265088 0.186251 0)
(-0.000370655 0.005142 0)
(-0.00236594 0.0149477 0)
(-0.00637462 0.0241317 0)
(-0.0116718 0.032813 0)
(-0.0179266 0.0412199 0)
(-0.0249715 0.0495893 0)
(-0.0326981 0.0581138 0)
(-0.0410474 0.0669178 0)
(-0.0499929 0.0760544 0)
(-0.0595207 0.0855153 0)
(-0.0696168 0.0952474 0)
(-0.0802585 0.105166 0)
(-0.0914104 0.115166 0)
(-0.103022 0.125127 0)
(-0.11503 0.134921 0)
(-0.127356 0.144413 0)
(-0.139912 0.153465 0)
(-0.152602 0.161945 0)
(-0.165327 0.169725 0)
(-0.177987 0.176693 0)
(-0.190485 0.182752 0)
(-0.202731 0.187823 0)
(-0.214639 0.191847 0)
(-0.226133 0.194786 0)
(-0.237146 0.19662 0)
(-0.247621 0.197346 0)
(-0.25751 0.196978 0)
(-0.266776 0.195543 0)
(-0.000407388 0.0064383 0)
(-0.00257398 0.0182479 0)
(-0.00689796 0.0289498 0)
(-0.0125771 0.0387819 0)
(-0.0192431 0.0480864 0)
(-0.0267093 0.0571947 0)
(-0.0348544 0.0663688 0)
(-0.0436114 0.0757769 0)
(-0.0529473 0.0854942 0)
(-0.0628425 0.0955186 0)
(-0.0732759 0.105792 0)
(-0.0842176 0.116219 0)
(-0.0956242 0.12668 0)
(-0.107438 0.137041 0)
(-0.119586 0.14716 0)
(-0.131985 0.156891 0)
(-0.144542 0.166089 0)
(-0.157158 0.174615 0)
(-0.169733 0.182341 0)
(-0.182167 0.189158 0)
(-0.194365 0.194972 0)
(-0.206238 0.199711 0)
(-0.217705 0.203326 0)
(-0.228694 0.205786 0)
(-0.239143 0.20708 0)
(-0.249 0.207218 0)
(-0.258222 0.206221 0)
(-0.266781 0.204129 0)
(-0.00044129 0.00784198 0)
(-0.00276534 0.0217967 0)
(-0.00737825 0.0341013 0)
(-0.0134058 0.0451293 0)
(-0.0204445 0.0553497 0)
(-0.0282891 0.0651984 0)
(-0.0368061 0.0750131 0)
(-0.0459197 0.0850091 0)
(-0.0555907 0.0952845 0)
(-0.0657929 0.105843 0)
(-0.0764987 0.116622 0)
(-0.0876706 0.127513 0)
(-0.0992575 0.138383 0)
(-0.111194 0.149086 0)
(-0.123402 0.159465 0)
(-0.135792 0.169364 0)
(-0.148267 0.178633 0)
(-0.160727 0.18713 0)
(-0.173071 0.194728 0)
(-0.185201 0.201319 0)
(-0.197024 0.206817 0)
(-0.208454 0.211157 0)
(-0.219415 0.214298 0)
(-0.229838 0.216219 0)
(-0.239667 0.21692 0)
(-0.248857 0.216421 0)
(-0.257372 0.214756 0)
(-0.265193 0.211976 0)
(-0.00047154 0.00934315 0)
(-0.00293609 0.0255706 0)
(-0.00780661 0.0395539 0)
(-0.0141439 0.0518165 0)
(-0.0215119 0.0629665 0)
(-0.0296879 0.0735534 0)
(-0.038526 0.083996 0)
(-0.0479421 0.0945594 0)
(-0.05789 0.105366 0)
(-0.068337 0.116425 0)
(-0.0792487 0.127668 0)
(-0.0905803 0.138975 0)
(-0.102274 0.1502 0)
(-0.114257 0.161182 0)
(-0.126447 0.171754 0)
(-0.13875 0.181751 0)
(-0.151066 0.191018 0)
(-0.163295 0.199413 0)
(-0.175336 0.206809 0)
(-0.187093 0.213104 0)
(-0.198477 0.218219 0)
(-0.209404 0.222096 0)
(-0.219804 0.224704 0)
(-0.229613 0.226034 0)
(-0.238782 0.226095 0)
(-0.247273 0.22492 0)
(-0.255059 0.222556 0)
(-0.262129 0.219065 0)
(-0.000497385 0.0109298 0)
(-0.00308264 0.0295421 0)
(-0.00817507 0.0452703 0)
(-0.0147789 0.0588003 0)
(-0.0224289 0.0708896 0)
(-0.0308856 0.082209 0)
(-0.0399914 0.0932634 0)
(-0.0496533 0.10437 0)
(-0.0598181 0.115678 0)
(-0.0704466 0.1272 0)
(-0.0814973 0.138863 0)
(-0.092919 0.150535 0)
(-0.104647 0.162057 0)
(-0.116605 0.173255 0)
(-0.128703 0.183952 0)
(-0.140845 0.193977 0)
(-0.152932 0.203172 0)
(-0.164863 0.211393 0)
(-0.176537 0.218519 0)
(-0.187862 0.224453 0)
(-0.198752 0.229122 0)
(-0.209129 0.232479 0)
(-0.218926 0.234502 0)
(-0.228088 0.235194 0)
(-0.236573 0.234578 0)
(-0.244349 0.232697 0)
(-0.251402 0.229613 0)
(-0.25773 0.225402 0)
(-0.000518163 0.0125881 0)
(-0.0032019 0.0336798 0)
(-0.00847674 0.0512092 0)
(-0.0153002 0.0660336 0)
(-0.0231814 0.0790684 0)
(-0.0318656 0.0911118 0)
(-0.0411834 0.102759 0)
(-0.051033 0.114383 0)
(-0.0613541 0.126157 0)
(-0.0721004 0.138102 0)
(-0.0832243 0.150138 0)
(-0.0946682 0.162122 0)
(-0.106362 0.173882 0)
(-0.118224 0.185232 0)
(-0.130162 0.195989 0)
(-0.142079 0.205975 0)
(-0.153873 0.215029 0)
(-0.165445 0.223011 0)
(-0.176699 0.229802 0)
(-0.187543 0.235313 0)
(-0.197896 0.23948 0)
(-0.207687 0.242266 0)
(-0.216854 0.24366 0)
(-0.22535 0.243678 0)
(-0.23314 0.242355 0)
(-0.240205 0.23975 0)
(-0.246538 0.235939 0)
(-0.252148 0.23101 0)
(-0.000533326 0.0143026 0)
(-0.00329129 0.0379497 0)
(-0.00870601 0.0573258 0)
(-0.0156991 0.0734662 0)
(-0.0237584 0.0874496 0)
(-0.0326148 0.100206 0)
(-0.0420877 0.112426 0)
(-0.0520664 0.124538 0)
(-0.062483 0.136743 0)
(-0.0732846 0.149068 0)
(-0.0844174 0.161427 0)
(-0.0958184 0.173669 0)
(-0.107413 0.185608 0)
(-0.119115 0.197049 0)
(-0.130831 0.207801 0)
(-0.142462 0.217682 0)
(-0.153909 0.226532 0)
(-0.165072 0.234212 0)
(-0.175859 0.240611 0)
(-0.186184 0.245645 0)
(-0.19597 0.249261 0)
(-0.20515 0.251433 0)
(-0.213673 0.252163 0)
(-0.221498 0.251479 0)
(-0.2286 0.249433 0)
(-0.234969 0.246096 0)
(-0.24061 0.241559 0)
(-0.245542 0.235926 0)
(-0.000542455 0.0160567 0)
(-0.00334885 0.042315 0)
(-0.00885859 0.0635727 0)
(-0.0159692 0.0810455 0)
(-0.0241516 0.095978 0)
(-0.033124 0.109436 0)
(-0.0426946 0.122206 0)
(-0.0527438 0.134775 0)
(-0.0631959 0.147372 0)
(-0.0739919 0.160034 0)
(-0.085072 0.172668 0)
(-0.0963683 0.185113 0)
(-0.107802 0.197173 0)
(-0.119286 0.208645 0)
(-0.130724 0.21933 0)
(-0.142018 0.229046 0)
(-0.153069 0.237632 0)
(-0.163783 0.244955 0)
(-0.174068 0.250908 0)
(-0.183846 0.255419 0)
(-0.193043 0.258442 0)
(-0.201603 0.259967 0)
(-0.209479 0.260006 0)
(-0.216642 0.258605 0)
(-0.223075 0.255828 0)
(-0.228778 0.251763 0)
(-0.233767 0.246515 0)
(-0.238071 0.240201 0)
(-0.000545272 0.0178327 0)
(-0.00337327 0.0467372 0)
(-0.00893156 0.0699009 0)
(-0.0161061 0.0887175 0)
(-0.0243558 0.104598 0)
(-0.0333873 0.118744 0)
(-0.0429985 0.13204 0)
(-0.0530604 0.145035 0)
(-0.06349 0.157987 0)
(-0.0742217 0.170941 0)
(-0.0851906 0.1838 0)
(-0.0963247 0.196395 0)
(-0.107543 0.20852 0)
(-0.118755 0.219965 0)
(-0.129866 0.230526 0)
(-0.140778 0.240021 0)
(-0.151395 0.24829 0)
(-0.161626 0.255205 0)
(-0.171385 0.260668 0)
(-0.180597 0.264616 0)
(-0.189198 0.267015 0)
(-0.197136 0.267867 0)
(-0.204376 0.267201 0)
(-0.210895 0.265075 0)
(-0.216689 0.261571 0)
(-0.221767 0.256792 0)
(-0.226154 0.250857 0)
(-0.229888 0.243894 0)
(-0.000541644 0.0196124 0)
(-0.00336386 0.051177 0)
(-0.00892344 0.0762599 0)
(-0.0161077 0.0964271 0)
(-0.0243685 0.113252 0)
(-0.0334027 0.128073 0)
(-0.042998 0.141873 0)
(-0.0530165 0.155262 0)
(-0.0633675 0.16853 0)
(-0.0739793 0.181731 0)
(-0.0847824 0.194767 0)
(-0.0957015 0.20746 0)
(-0.106653 0.219598 0)
(-0.117547 0.230962 0)
(-0.128288 0.241346 0)
(-0.138782 0.250569 0)
(-0.148934 0.258474 0)
(-0.158658 0.264938 0)
(-0.167874 0.269874 0)
(-0.176513 0.273228 0)
(-0.184518 0.274979 0)
(-0.191845 0.275144 0)
(-0.198468 0.273766 0)
(-0.204373 0.27092 0)
(-0.209567 0.266703 0)
(-0.214067 0.261233 0)
(-0.217909 0.254642 0)
(-0.221136 0.247071 0)
(-0.000531583 0.0213775 0)
(-0.0033206 0.0555944 0)
(-0.00883409 0.0825991 0)
(-0.0159738 0.104119 0)
(-0.0241899 0.121885 0)
(-0.0331712 0.137368 0)
(-0.0426958 0.151649 0)
(-0.0526168 0.165401 0)
(-0.062836 0.178947 0)
(-0.0732757 0.192352 0)
(-0.0838625 0.205518 0)
(-0.0945184 0.21826 0)
(-0.105159 0.23036 0)
(-0.115694 0.241594 0)
(-0.126031 0.251755 0)
(-0.136076 0.26066 0)
(-0.145741 0.268161 0)
(-0.154943 0.27414 0)
(-0.163608 0.278518 0)
(-0.171674 0.281255 0)
(-0.179092 0.282345 0)
(-0.185827 0.281816 0)
(-0.19186 0.279731 0)
(-0.197189 0.276177 0)
(-0.201828 0.271269 0)
(-0.205804 0.265139 0)
(-0.209159 0.257931 0)
(-0.211943 0.249796 0)
(-0.000515242 0.0231098 0)
(-0.00324406 0.0599498 0)
(-0.00866469 0.0888681 0)
(-0.0157064 0.11174 0)
(-0.023823 0.130442 0)
(-0.0326971 0.146573 0)
(-0.042098 0.161313 0)
(-0.0518699 0.175398 0)
(-0.0619071 0.189185 0)
(-0.0721264 0.202753 0)
(-0.0824509 0.216005 0)
(-0.0928008 0.228751 0)
(-0.103091 0.240767 0)
(-0.113233 0.251827 0)
(-0.123136 0.261722 0)
(-0.132711 0.270273 0)
(-0.141873 0.277335 0)
(-0.150545 0.282801 0)
(-0.158659 0.286602 0)
(-0.166161 0.288709 0)
(-0.173009 0.289131 0)
(-0.179177 0.287912 0)
(-0.184656 0.285131 0)
(-0.18945 0.280891 0)
(-0.193583 0.275322 0)
(-0.19709 0.268569 0)
(-0.200018 0.260788 0)
(-0.202424 0.252137 0)
(-0.0004929 0.0247916 0)
(-0.0031354 0.0642043 0)
(-0.00841762 0.0950174 0)
(-0.0153091 0.119235 0)
(-0.0232729 0.138868 0)
(-0.0319875 0.155637 0)
(-0.041214 0.170816 0)
(-0.0507881 0.185205 0)
(-0.0605965 0.199199 0)
(-0.0705511 0.212891 0)
(-0.0805718 0.226187 0)
(-0.0905778 0.238895 0)
(-0.100485 0.250786 0)
(-0.110206 0.261632 0)
(-0.119653 0.271226 0)
(-0.128741 0.279391 0)
(-0.137392 0.285989 0)
(-0.145532 0.290921 0)
(-0.153102 0.294131 0)
(-0.160055 0.295603 0)
(-0.166356 0.295361 0)
(-0.171988 0.293464 0)
(-0.17695 0.290006 0)
(-0.181256 0.285109 0)
(-0.184934 0.278914 0)
(-0.188027 0.27158 0)
(-0.190588 0.263272 0)
(-0.192675 0.254154 0)
(-0.000464952 0.026406 0)
(-0.00299627 0.0683206 0)
(-0.00809634 0.100999 0)
(-0.0147874 0.126554 0)
(-0.022547 0.147113 0)
(-0.0310518 0.164509 0)
(-0.0400559 0.180108 0)
(-0.0493865 0.194776 0)
(-0.0589231 0.208945 0)
(-0.0685729 0.222724 0)
(-0.078253 0.236027 0)
(-0.0878824 0.248658 0)
(-0.0973779 0.260389 0)
(-0.106655 0.270988 0)
(-0.11563 0.280251 0)
(-0.124222 0.288005 0)
(-0.132358 0.29412 0)
(-0.139972 0.298507 0)
(-0.147011 0.301122 0)
(-0.153434 0.301961 0)
(-0.159216 0.301065 0)
(-0.164347 0.298508 0)
(-0.168834 0.294401 0)
(-0.172697 0.288879 0)
(-0.175972 0.282099 0)
(-0.178705 0.274228 0)
(-0.180953 0.265441 0)
(-0.182776 0.255907 0)
(-0.00043189 0.0279371 0)
(-0.0028288 0.0722632 0)
(-0.0077053 0.106768 0)
(-0.0141478 0.133646 0)
(-0.0216543 0.155125 0)
(-0.0299017 0.17314 0)
(-0.0386382 0.189145 0)
(-0.0476828 0.204069 0)
(-0.0569084 0.218382 0)
(-0.0662173 0.232217 0)
(-0.0755247 0.245491 0)
(-0.0847496 0.258014 0)
(-0.0938107 0.269552 0)
(-0.102627 0.279878 0)
(-0.111118 0.288786 0)
(-0.11921 0.296113 0)
(-0.126834 0.301733 0)
(-0.133931 0.30557 0)
(-0.140455 0.307591 0)
(-0.146373 0.307808 0)
(-0.151666 0.306275 0)
(-0.156333 0.303084 0)
(-0.160386 0.29836 0)
(-0.163853 0.292252 0)
(-0.166774 0.284928 0)
(-0.169198 0.276567 0)
(-0.171184 0.267349 0)
(-0.172794 0.257447 0)
(-0.000394286 0.0293704 0)
(-0.00263546 0.0759988 0)
(-0.00724972 0.11228 0)
(-0.0133986 0.140465 0)
(-0.0206055 0.162859 0)
(-0.0285506 0.181487 0)
(-0.0369772 0.197884 0)
(-0.045697 0.213043 0)
(-0.0545759 0.227475 0)
(-0.063512 0.241336 0)
(-0.0724188 0.254553 0)
(-0.081216 0.266938 0)
(-0.0898247 0.278259 0)
(-0.0981674 0.288289 0)
(-0.106169 0.296828 0)
(-0.11376 0.303715 0)
(-0.120879 0.308836 0)
(-0.127473 0.312125 0)
(-0.133502 0.313562 0)
(-0.138941 0.313173 0)
(-0.143779 0.311027 0)
(-0.148019 0.307232 0)
(-0.15168 0.301926 0)
(-0.154796 0.295272 0)
(-0.157408 0.28745 0)
(-0.15957 0.278645 0)
(-0.161341 0.269042 0)
(-0.16278 0.258819 0)
(-0.000352775 0.0306929 0)
(-0.00241905 0.0794971 0)
(-0.00673553 0.117496 0)
(-0.0125486 0.146966 0)
(-0.0194125 0.17027 0)
(-0.0270132 0.189507 0)
(-0.0350908 0.206286 0)
(-0.0434501 0.221663 0)
(-0.0519505 0.236193 0)
(-0.0604859 0.250055 0)
(-0.0689685 0.26319 0)
(-0.077319 0.275413 0)
(-0.0854615 0.286497 0)
(-0.0933225 0.296215 0)
(-0.100832 0.304373 0)
(-0.107927 0.310817 0)
(-0.11455 0.315441 0)
(-0.120657 0.318191 0)
(-0.126215 0.319058 0)
(-0.131203 0.318085 0)
(-0.135618 0.315355 0)
(-0.139469 0.31099 0)
(-0.142779 0.305141 0)
(-0.145584 0.297985 0)
(-0.147931 0.289708 0)
(-0.149873 0.280505 0)
(-0.151467 0.270564 0)
(-0.152773 0.260062 0)
(-0.000308028 0.0318931 0)
(-0.00218258 0.0827304 0)
(-0.00616916 0.122377 0)
(-0.0116077 0.153108 0)
(-0.0180883 0.177316 0)
(-0.0253056 0.19716 0)
(-0.0329981 0.214316 0)
(-0.0409645 0.229899 0)
(-0.0490581 0.244507 0)
(-0.0571687 0.258349 0)
(-0.0652074 0.271381 0)
(-0.0730962 0.283425 0)
(-0.0807625 0.294256 0)
(-0.0881374 0.303653 0)
(-0.0951565 0.311426 0)
(-0.101762 0.317428 0)
(-0.107903 0.321563 0)
(-0.113542 0.323787 0)
(-0.118651 0.324107 0)
(-0.123217 0.322577 0)
(-0.127242 0.319295 0)
(-0.130738 0.314396 0)
(-0.133735 0.308046 0)
(-0.136269 0.30043 0)
(-0.138388 0.291744 0)
(-0.140146 0.282187 0)
(-0.141599 0.271948 0)
(-0.142803 0.261207 0)
(-0.00026074 0.0329614 0)
(-0.0019292 0.0856745 0)
(-0.00555743 0.126892 0)
(-0.0105862 0.158854 0)
(-0.0166464 0.183961 0)
(-0.0234444 0.204412 0)
(-0.0307188 0.221941 0)
(-0.0382633 0.23772 0)
(-0.0459251 0.252393 0)
(-0.0535902 0.266199 0)
(-0.0611687 0.279112 0)
(-0.0685844 0.290962 0)
(-0.0757681 0.301532 0)
(-0.0826555 0.310603 0)
(-0.0891879 0.317992 0)
(-0.0953128 0.323559 0)
(-0.100987 0.327218 0)
(-0.106177 0.328937 0)
(-0.110862 0.328734 0)
(-0.115035 0.326677 0)
(-0.1187 0.322879 0)
(-0.121876 0.317487 0)
(-0.124593 0.310677 0)
(-0.126891 0.302644 0)
(-0.128817 0.293592 0)
(-0.130422 0.283721 0)
(-0.131762 0.273226 0)
(-0.132888 0.26228 0)
(-0.000211612 0.0338898 0)
(-0.00166218 0.0883084 0)
(-0.00490741 0.131009 0)
(-0.009495 0.164168 0)
(-0.0151011 0.190168 0)
(-0.0214468 0.211228 0)
(-0.0282731 0.229131 0)
(-0.0353696 0.245102 0)
(-0.0425778 0.25983 0)
(-0.04978 0.273588 0)
(-0.0568856 0.286369 0)
(-0.0638197 0.298018 0)
(-0.0705171 0.308321 0)
(-0.0769183 0.317067 0)
(-0.0829701 0.324078 0)
(-0.0886261 0.329222 0)
(-0.0938486 0.332424 0)
(-0.0986104 0.333661 0)
(-0.102896 0.332965 0)
(-0.106702 0.330416 0)
(-0.110037 0.326139 0)
(-0.112924 0.320294 0)
(-0.115393 0.313066 0)