/*--------------------------------*- C++ -*----------------------------------*\
  =========                 |
  \\      /  F ield         | OpenFOAM: The Open Source CFD Toolbox
   \\    /   O peration     | Website:  https://openfoam.org
    \\  /    A nd           | Version:  9
     \\/     M anipulation  |
\*---------------------------------------------------------------------------*/
FoamFile
{
    format      ascii;
    class       volScalarField;
    location    "2.75";
    object      p;
}
// * * * * * * * * * * * * * * * * * * * * * * * * * * * * * * * * * * * * * //

dimensions      [0 2 -2 0 0 0 0];

internalField   nonuniform List<scalar> 
1240
(
0.000197698
0.000339345
0.000405981
0.000395013
0.000305899
0.000140202
-9.84703e-05
-0.000404602
-0.000771046
-0.00118909
-0.00164915
-0.00214094
-0.00265385
-0.00317747
-0.00370188
-0.00421795
-0.00471763
-0.00519409
-0.00564187
-0.00605684
-0.00643623
-0.00677849
-0.00708317
-0.00735074
-0.0075824
-0.00777989
-0.00794525
-0.00808069
-0.00818833
-0.00827016
-0.00832788
-0.00836294
-0.00837668
-0.00837067
-0.00834755
-0.00831219
-0.00827232
-0.0082411
-9.6078e-05
3.58128e-05
9.65512e-05
8.36699e-05
-3.32208e-06
-0.000162897
-0.000391568
-0.000684022
-0.00103335
-0.00143135
-0.00186875
-0.0023358
-0.00282248
-0.00331896
-0.00381589
-0.00430473
-0.00477798
-0.00522931
-0.00565366
-0.00604727
-0.0064076
-0.00673326
-0.00702386
-0.00727986
-0.00750237
-0.00769299
-0.00785362
-0.00798631
-0.00809312
-0.00817598
-0.00823667
-0.00827683
-0.00829803
-0.00830204
-0.00829128
-0.00826956
-0.00824119
-0.00820984
-0.000296365
-0.000167435
-0.000108108
-0.000120865
-0.00020621
-0.000362637
-0.000586677
-0.00087304
-0.00121484
-0.00160388
-0.002031
-0.00248659
-0.00296057
-0.00344338
-0.00392584
-0.00439962
-0.00485745
-0.00529329
-0.00570235
-0.00608112
-0.00642735
-0.00673987
-0.00701847
-0.00726377
-0.007477
-0.00765983
-0.00781422
-0.00794224
-0.00804596
-0.00812736
-0.00818824
-0.00823022
-0.0082548
-0.00826343
-0.00825797
-0.00824099
-0.00821291
-0.00816988
-0.00048814
-0.000356711
-0.00029443
-0.000303911
-0.000385757
-0.000538518
-0.000758739
-0.0010411
-0.00137864
-0.00176301
-0.0021848
-0.00263509
-0.00310235
-0.00357773
-0.00405186
-0.00451637
-0.00496404
-0.00538891
-0.00578639
-0.00615314
-0.00648721
-0.00678763
-0.00705448
-0.00728864
-0.00749157
-0.00766516
-0.00781153
-0.0079329
-0.00803146
-0.00810924
-0.00816806
-0.00820946
-0.00823471
-0.00824482
-0.00824092
-0.00822442
-0.00819256
-0.00813613
-0.000729255
-0.000589473
-0.000518758
-0.00051997
-0.000593922
-0.000739317
-0.000952784
-0.00122902
-0.00156101
-0.00194031
-0.00235743
-0.00280246
-0.00326489
-0.00373482
-0.00420284
-0.00466034
-0.00510007
-0.00551603
-0.00590363
-0.00625973
-0.00658239
-0.00687105
-0.00712601
-0.00734843
-0.00754006
-0.00770308
-0.00783987
-0.00795287
-0.00804443
-0.0081167
-0.00817153
-0.00821041
-0.00823438
-0.00824403
-0.00823983
-0.00822229
-0.0081862
-0.00811833
-0.00105459
-0.000898967
-0.000812375
-0.00079806
-0.000857186
-0.000988751
-0.0011896
-0.00145457
-0.00177665
-0.00214736
-0.00255706
-0.00299546
-0.00345196
-0.00391614
-0.00437856
-0.00482988
-0.00526283
-0.0056712
-0.00605029
-0.00639692
-0.00670928
-0.00698689
-0.00723035
-0.00744104
-0.00762103
-0.0077728
-0.00789904
-0.00800245
-0.00808561
-0.00815083
-0.00820005
-0.00823475
-0.00825582
-0.00826352
-0.00825784
-0.00823861
-0.008199
-0.00812312
-0.0014999
-0.00131914
-0.00120709
-0.00116755
-0.00120223
-0.00131061
-0.00148994
-0.00173534
-0.00204001
-0.00239551
-0.00279214
-0.0032194
-0.0036664
-0.00412241
-0.0045773
-0.00502175
-0.00544784
-0.00584903
-0.00622038
-0.00655853
-0.00686163
-0.00712916
-0.00736197
-0.00756155
-0.00773023
-0.00787079
-0.00798621
-0.0080795
-0.00815349
-0.00821071
-0.00825324
-0.0082826
-0.00829966
-0.00830447
-0.00829672
-0.00827578
-0.00823393
-0.0081539
-0.00210259
-0.00188558
-0.00173634
-0.00165945
-0.00165735
-0.00173025
-0.00187603
-0.00209037
-0.00236684
-0.00269727
-0.00307202
-0.00348052
-0.00391165
-0.00435432
-0.00479792
-0.00523271
-0.00565019
-0.00604337
-0.00640687
-0.00673699
-0.00703167
-0.00729033
-0.00751348
-0.00770299
-0.0078613
-0.00799138
-0.00809648
-0.00817988
-0.00824469
-0.00829368
-0.00832911
-0.00835266
-0.00836521
-0.00836678
-0.00835689
-0.00833469
-0.00829212
-0.00821166
-0.0036
-0.00322573
-0.00290119
-0.00263521
-0.00243514
-0.0023065
-0.00225275
-0.00227505
-0.00237225
-0.00254082
-0.00277504
-0.00306723
-0.00340805
-0.00378702
-0.00419293
-0.0046144
-0.00504038
-0.00546057
-0.00586591
-0.00624876
-0.00660316
-0.00692491
-0.00721148
-0.00746197
-0.00767682
-0.00785766
-0.00800702
-0.00812797
-0.00822394
-0.00829844
-0.00835483
-0.00839611
-0.00842479
-0.00844271
-0.00845087
-0.00844938
-0.00843774
-0.008415
-0.00837328
-0.00829563
-0.00569205
-0.00520776
-0.00474608
-0.00431834
-0.00393523
-0.0036065
-0.0033405
-0.00314394
-0.0030215
-0.00297564
-0.00300643
-0.00311154
-0.00328626
-0.00352373
-0.00381525
-0.00415065
-0.00451884
-0.00490828
-0.00530753
-0.00570578
-0.00609328
-0.00646169
-0.0068043
-0.0071162
-0.00739424
-0.00763697
-0.00784447
-0.00801805
-0.00816014
-0.00827373
-0.00836232
-0.00842955
-0.00847896
-0.00851379
-0.00853674
-0.00854987
-0.00855437
-0.00855049
-0.00853782
-0.00851545
-0.00847603
-0.00840382
-0.00724022
-0.00670765
-0.00618961
-0.00569791
-0.00524396
-0.00483842
-0.0044908
-0.00420911
-0.00399951
-0.00386603
-0.00381034
-0.00383164
-0.00392667
-0.00408981
-0.00431333
-0.00458778
-0.00490242
-0.00524578
-0.0056062
-0.00597239
-0.00633392
-0.00668162
-0.00700793
-0.00730704
-0.00757498
-0.00780954
-0.00801017
-0.00817772
-0.00831412
-0.00842228
-0.00850557
-0.00856762
-0.00861206
-0.00864227
-0.00866113
-0.0086709
-0.00867297
-0.00866779
-0.00865511
-0.00863412
-0.00859826
-0.00853345
-0.00913241
-0.00854614
-0.00796451
-0.0073997
-0.00686373
-0.00636817
-0.00592368
-0.00553971
-0.00522407
-0.0049826
-0.00481891
-0.00473415
-0.00472691
-0.0047933
-0.00492705
-0.00511984
-0.00536171
-0.00564159
-0.00594782
-0.00626876
-0.00659336
-0.00691161
-0.00721495
-0.00749653
-0.0077513
-0.0079761
-0.00816948
-0.00833155
-0.00846368
-0.00856829
-0.00864847
-0.00870768
-0.0087495
-0.00877735
-0.00879423
-0.00880252
-0.00880382
-0.00879877
-0.0087873
-0.00876877
-0.0087375
-0.00868135
-0.0113893
-0.0107462
-0.0100961
-0.0094514
-0.00882453
-0.00822783
-0.00767307
-0.00717111
-0.00673149
-0.00636206
-0.00606863
-0.00585465
-0.00572108
-0.00566622
-0.00568582
-0.00577327
-0.00591991
-0.00611549
-0.00634873
-0.00660792
-0.00688153
-0.00715873
-0.00742991
-0.00768701
-0.00792377
-0.00813575
-0.00832038
-0.00847673
-0.00860533
-0.0087079
-0.008787
-0.00884574
-0.00888746
-0.00891547
-0.00893276
-0.00894179
-0.00894427
-0.00894101
-0.00893211
-0.0089171
-0.00889125
-0.0088444
-0.0140179
-0.0133176
-0.0125974
-0.0118693
-0.0111461
-0.0104406
-0.00976547
-0.0091328
-0.00855383
-0.00803847
-0.00759489
-0.00722917
-0.00694499
-0.00674342
-0.00662281
-0.0065789
-0.00660495
-0.00669218
-0.00683022
-0.00700769
-0.00721285
-0.00743423
-0.00766119
-0.00788438
-0.00809607
-0.00829038
-0.00846329
-0.00861255
-0.00873755
-0.008839
-0.00891869
-0.00897911
-0.00902318
-0.00905393
-0.00907417
-0.00908631
-0.00909209
-0.00909243
-0.00908754
-0.00907709
-0.00905724
-0.00901978
-0.0170082
-0.016254
-0.0154656
-0.0146549
-0.0138344
-0.013017
-0.012216
-0.0114444
-0.010715
-0.0100396
-0.00942867
-0.00889111
-0.00843361
-0.00806047
-0.00777323
-0.00757065
-0.00744872
-0.00740085
-0.00741828
-0.0074906
-0.00760635
-0.00775372
-0.00792118
-0.00809809
-0.00827516
-0.00844481
-0.00860127
-0.00874067
-0.00886088
-0.00896132
-0.00904267
-0.00910655
-0.00915519
-0.00919112
-0.00921681
-0.00923447
-0.00924573
-0.00925149
-0.00925204
-0.00924713
-0.00923369
-0.00920527
-0.0203328
-0.0195309
-0.0186804
-0.0177923
-0.0168784
-0.0159515
-0.0150248
-0.0141121
-0.013227
-0.0123829
-0.0115926
-0.0108676
-0.0102177
-0.00965069
-0.00917187
-0.00878367
-0.00848558
-0.0082741
-0.00814298
-0.00808361
-0.00808551
-0.00813709
-0.00822628
-0.00834131
-0.00847131
-0.00860679
-0.00873999
-0.00886504
-0.00897794
-0.00907643
-0.00915973
-0.00922826
-0.00928329
-0.00932657
-0.00936005
-0.00938551
-0.00940434
-0.00941732
-0.00942469
-0.0094262
-0.00941943
-0.0093994
-0.023947
-0.0231068
-0.0222036
-0.0212475
-0.0202492
-0.0192208
-0.018175
-0.0171254
-0.0160863
-0.0150721
-0.0140973
-0.0131756
-0.0123199
-0.0115416
-0.0108499
-0.0102515
-0.00975016
-0.00934632
-0.0090373
-0.00881731
-0.00867786
-0.00860838
-0.00859692
-0.00863094
-0.00869812
-0.00878704
-0.0088877
-0.00899189
-0.00909333
-0.00918765
-0.00927221
-0.00934584
-0.00940851
-0.00946092
-0.00950419
-0.00953953
-0.00956788
-0.00958976
-0.00960523
-0.00961396
-0.00961401
-0.00960157
-0.0277922
-0.0269249
-0.0259814
-0.0249702
-0.0239009
-0.022784
-0.0216315
-0.0204563
-0.0192723
-0.0180943
-0.0169377
-0.0158182
-0.0147512
-0.0137511
-0.0128313
-0.0120029
-0.0112745
-0.0106513
-0.0101353
-0.00972469
-0.00941419
-0.00919537
-0.00905735
-0.00898754
-0.0089726
-0.00899928
-0.00905526
-0.00912967
-0.00921356
-0.00929996
-0.0093839
-0.00946217
-0.00953304
-0.00959581
-0.0096505
-0.00969748
-0.00973706
-0.00976933
-0.00979406
-0.00981075
-0.00981772
-0.00981205
-0.0318002
-0.0309181
-0.0299482
-0.0288974
-0.0277734
-0.0265854
-0.0253436
-0.0240598
-0.0227468
-0.0214191
-0.0200923
-0.0187827
-0.0175076
-0.0162841
-0.0151291
-0.014058
-0.0130844
-0.0122192
-0.0114696
-0.0108392
-0.0103271
-0.00992864
-0.00963518
-0.00943519
-0.00931509
-0.00926026
-0.00925612
-0.00928904
-0.00934695
-0.00941984
-0.00949986
-0.00958123
-0.00966002
-0.00973376
-0.00980102
-0.00986103
-0.00991327
-0.00995724
-0.00999226
-0.0100176
-0.0100316
-0.010032
-0.0358995
-0.0350148
-0.0340327
-0.0329583
-0.0317978
-0.0305582
-0.0292481
-0.0278772
-0.0264569
-0.0250004
-0.0235223
-0.0220391
-0.0205687
-0.0191298
-0.0177421
-0.0164248
-0.0151963
-0.014073
-0.0130683
-0.012192
-0.0114492
-0.0108402
-0.0103604
-0.010001
-0.00974908
-0.0095897
-0.00950643
-0.00948287
-0.00950367
-0.00955525
-0.00962632
-0.00970795
-0.00979343
-0.00987802
-0.00995844
-0.0100325
-0.0100985
-0.0101553
-0.0102015
-0.010236
-0.0102573
-0.0102632
-0.0400212
-0.0391447
-0.0381636
-0.0370813
-0.0359021
-0.0346313
-0.033275
-0.0318411
-0.0303387
-0.028779
-0.0271751
-0.0255423
-0.0238979
-0.0222613
-0.0206537
-0.019097
-0.0176136
-0.0162253
-0.0149516
-0.0138091
-0.01281
-0.0119613
-0.0112642
-0.010714
-0.0103008
-0.0100102
-0.00982493
-0.00972635
-0.00969572
-0.00971558
-0.00977062
-0.00984808
-0.00993788
-0.0100324
-0.0101259
-0.0102145
-0.0102952
-0.0103656
-0.0104239
-0.0104683
-0.010497
-0.0105083
-0.0441035
-0.0432442
-0.0422752
-0.0411988
-0.0400174
-0.0387343
-0.0373537
-0.035881
-0.034323
-0.0326883
-0.0309879
-0.0292347
-0.0274448
-0.0256366
-0.0238313
-0.0220525
-0.0203252
-0.0186755
-0.0171286
-0.0157079
-0.0144335
-0.0133201
-0.0123764
-0.0116041
-0.010998
-0.0105465
-0.0102329
-0.0100369
-0.009937
-0.00991169
-0.00994116
-0.0100082
-0.0100985
-0.010201
-0.010307
-0.0104103
-0.0105061
-0.0105909
-0.0106619
-0.0107168
-0.0107535
-0.0107703
-0.0480961
-0.0472603
-0.0463122
-0.0452526
-0.0440826
-0.0428038
-0.0414183
-0.0399294
-0.0383413
-0.0366599
-0.0348933
-0.033052
-0.0311492
-0.0292015
-0.0272289
-0.0252545
-0.0233048
-0.0214084
-0.0195951
-0.0178947
-0.0163346
-0.0149384
-0.0137234
-0.0126998
-0.0118693
-0.0112252
-0.0107535
-0.0104342
-0.0102434
-0.010156
-0.0101475
-0.0101956
-0.010281
-0.0103884
-0.0105054
-0.010623
-0.0107342
-0.0108339
-0.0109183
-0.0109844
-0.0110296
-0.0110526
-0.051961
-0.0511528
-0.0502313
-0.0491964
-0.0480482
-0.0467867
-0.0454125
-0.0439266
-0.0423309
-0.0406289
-0.0388255
-0.036928
-0.0349466
-0.0328949
-0.0307902
-0.0286541
-0.0265122
-0.0243942
-0.0223328
-0.0203623
-0.0185171
-0.016829
-0.0153253
-0.0140257
-0.0129413
-0.0120729
-0.0114116
-0.0109395
-0.0106326
-0.0104626
-0.0104005
-0.0104184
-0.0104917
-0.0105994
-0.0107251
-0.010856
-0.0109825
-0.0110976
-0.0111961
-0.0112741
-0.0113287
-0.0113586
-0.0556733
-0.0548943
-0.0540025
-0.0529973
-0.0518776
-0.0506427
-0.0492917
-0.0478239
-0.0462393
-0.0445387
-0.0427243
-0.0408003
-0.0387733
-0.0366533
-0.034454
-0.0321941
-0.0298968
-0.0275908
-0.0253094
-0.0230898
-0.0209714
-0.0189937
-0.0171932
-0.0156005
-0.0142374
-0.0131149
-0.0122319
-0.0115757
-0.011124
-0.0108472
-0.0107123
-0.0106859
-0.0107372
-0.0108393
-0.0109702
-0.0111128
-0.0112542
-0.0113849
-0.0114982
-0.011589
-0.0116539
-0.0116919
-0.0592195
-0.0584695
-0.0576082
-0.0566346
-0.0555472
-0.0543444
-0.0530244
-0.0515853
-0.0500255
-0.0483436
-0.0465395
-0.0446142
-0.0425711
-0.0404161
-0.038159
-0.0358142
-0.0334015
-0.0309466
-0.0284813
-0.0260434
-0.0236751
-0.0214215
-0.0193273
-0.0174337
-0.0157746
-0.0143727
-0.0132379
-0.0123656
-0.0117382
-0.011327
-0.0110965
-0.0110085
-0.0110255
-0.0111138
-0.0112451
-0.011397
-0.0115524
-0.0116989
-0.0118277
-0.0119322
-0.0120086
-0.0120562
-0.0625953
-0.0618727
-0.0610409
-0.0600987
-0.0590444
-0.0578761
-0.0565913
-0.0551873
-0.0536613
-0.0520104
-0.0502324
-0.0483259
-0.0462909
-0.0441298
-0.0418481
-0.0394557
-0.0369676
-0.0344053
-0.0317971
-0.029179
-0.0265936
-0.0240888
-0.0217157
-0.0195248
-0.0175617
-0.0158625
-0.01445
-0.013331
-0.012496
-0.0119203
-0.0115683
-0.0113978
-0.0113651
-0.0114292
-0.0115546
-0.0117124
-0.0118804
-0.0120426
-0.0121874
-0.0123067
-0.0123958
-0.0124548
-0.0658035
-0.0651057
-0.0643011
-0.0633885
-0.0623663
-0.0612322
-0.0599836
-0.0586174
-0.05713
-0.0555175
-0.0537763
-0.0519028
-0.0498945
-0.0477505
-0.0454723
-0.0430652
-0.040539
-0.0379101
-0.0352018
-0.032446
-0.029683
-0.0269611
-0.0243349
-0.0218617
-0.0195978
-0.0175925
-0.0158833
-0.0144909
-0.0134175
-0.0126461
-0.0121437
-0.0118666
-0.0117657
-0.0117927
-0.0119038
-0.0120629
-0.0122416
-0.0124191
-0.0125805
-0.0127156
-0.0128189
-0.0128912
-0.0688514
-0.0681754
-0.0673949
-0.0665091
-0.0655162
-0.0644143
-0.0632007
-0.0618721
-0.0604246
-0.0588539
-0.0571552
-0.0553237
-0.0533549
-0.0512451
-0.0489925
-0.0465979
-0.0440662
-0.0414079
-0.0386407
-0.0357906
-0.0328936
-0.0299954
-0.0271508
-0.0244213
-0.0218713
-0.019562
-0.0175459
-0.0158598
-0.0145204
-0.0135224
-0.0128395
-0.012429
-0.0122384
-0.0122123
-0.0122988
-0.0124531
-0.0126395
-0.0128314
-0.0130099
-0.0131618
-0.0132808
-0.0133683
-0.0717489
-0.0710915
-0.0703319
-0.0694693
-0.0685024
-0.0674294
-0.0662478
-0.0649545
-0.0635457
-0.0620168
-0.0603626
-0.0585776
-0.0566557
-0.0545914
-0.05238
-0.0500187
-0.0475078
-0.0448522
-0.0420633
-0.0391606
-0.0361737
-0.0331434
-0.0301217
-0.0271708
-0.0243601
-0.0217604
-0.0194378
-0.0174459
-0.0158186
-0.0145658
-0.0136719
-0.0130994
-0.0127948
-0.0126973
-0.0127463
-0.012888
-0.013078
-0.0132829
-0.0134787
-0.0136484
-0.0137845
-0.0138894
-0.073865
-0.0731228
-0.0722799
-0.0713352
-0.0702872
-0.0691338
-0.0678723
-0.066499
-0.0650097
-0.063399
-0.061661
-0.0597891
-0.0577764
-0.0556162
)
;

boundaryField
{
    movingWall
    {
        type            zeroGradient;
    }
    fixedWalls
    {
        type            zeroGradient;
    }
    frontAndBack
    {
        type            empty;
    }
    procBoundary7to1
    {
        type            processor;
        value           nonuniform List<scalar> 
33
(
-1.44273e-05
-0.000294793
-0.000490552
-0.000684214
-0.000933335
-0.00127405
-0.00174361
-0.0027125
-0.00238092
-0.00238092
-0.00445688
-0.00401397
-0.00401397
-0.00618738
-0.00777547
-0.00971133
-0.0120136
-0.0146864
-0.0177173
-0.021076
-0.0247155
-0.0285759
-0.0325885
-0.0366825
-0.0407901
-0.0448516
-0.0488188
-0.052656
-0.0563401
-0.059859
-0.0632096
-0.0663953
-0.0694237
)
;
    }
    procBoundary7to6
    {
        type            processor;
        value           nonuniform List<scalar> 
45
(
-0.0723046
-0.0745069
-0.0533027
-0.0508324
-0.0482051
-0.0454261
-0.0425081
-0.0394732
-0.0363553
-0.0332012
-0.0300703
-0.0270332
-0.0241672
-0.0215497
-0.0192501
-0.0173208
-0.0157897
-0.0146564
-0.0138925
-0.0134476
-0.0132574
-0.0132537
-0.013373
-0.0135613
-0.013777
-0.0139898
-0.0141783
-0.0143331
-0.0144575
-0.0745069
-0.0765067
-0.0757788
-0.0749521
-0.0740257
-0.0729988
-0.0718694
-0.0706354
-0.0692936
-0.06784
-0.0662696
-0.0645767
-0.0627544
-0.0607952
-0.0533027
-0.058691
)
;
    }
}


// ************************************************************************* //
