/*--------------------------------*- C++ -*----------------------------------*\
  =========                 |
  \\      /  F ield         | OpenFOAM: The Open Source CFD Toolbox
   \\    /   O peration     | Website:  https://openfoam.org
    \\  /    A nd           | Version:  9
     \\/     M anipulation  |
\*---------------------------------------------------------------------------*/
FoamFile
{
    format      ascii;
    class       surfaceScalarField;
    location    "2.75";
    object      phi;
}
// * * * * * * * * * * * * * * * * * * * * * * * * * * * * * * * * * * * * * //

dimensions      [0 3 -1 0 0 0 0];

internalField   nonuniform List<scalar> 
2407
(
-1.01645e-07
-1.45804e-08
-8.64812e-08
-1.5164e-08
-7.09672e-08
-1.55139e-08
-5.53476e-08
-1.56197e-08
-3.98704e-08
-1.54772e-08
-2.47807e-08
-1.50897e-08
-1.03136e-08
-1.44671e-08
3.3133e-09
-1.36269e-08
1.59068e-08
-1.25935e-08
2.73011e-08
-1.13942e-08
3.73654e-08
-1.00643e-08
4.60047e-08
-8.63933e-09
5.31648e-08
-7.16015e-09
5.8829e-08
-5.66415e-09
6.3017e-08
-4.18802e-09
6.57828e-08
-2.76577e-09
6.72096e-08
-1.42682e-09
6.74049e-08
-1.95296e-10
6.64943e-08
9.10586e-10
6.46155e-08
1.87879e-09
6.19121e-08
2.70341e-09
5.85281e-08
3.38406e-09
5.46026e-08
3.92548e-09
5.0266e-08
4.33654e-09
4.56368e-08
4.62922e-09
4.08195e-08
4.81734e-09
3.59043e-08
4.91517e-09
3.09686e-08
4.93575e-09
2.60796e-08
4.88893e-09
2.13004e-08
4.77918e-09
1.66975e-08
4.60296e-09
1.23515e-08
4.34603e-09
8.37054e-09
3.98093e-09
4.90396e-09
3.46657e-09
2.14961e-09
2.75435e-09
3.40789e-10
1.80882e-09
-3.33119e-10
6.73906e-10
-3.33121e-10
-2.91679e-07
-5.15799e-08
-2.53353e-07
-5.349e-08
-2.14219e-07
-5.46479e-08
-1.74816e-07
-5.50226e-08
-1.35692e-07
-5.46018e-08
-9.73889e-08
-5.33926e-08
-6.04331e-08
-5.1423e-08
-2.53189e-08
-4.87411e-08
7.50242e-09
-4.54148e-08
3.7638e-08
-4.15298e-08
6.47565e-08
-3.71828e-08
8.86013e-08
-3.24841e-08
1.08998e-07
-2.75564e-08
1.25851e-07
-2.25174e-08
1.39147e-07
-1.74841e-08
1.4895e-07
-1.25685e-08
1.55394e-07
-7.8709e-09
1.58676e-07
-3.47751e-09
1.59045e-07
5.41841e-10
1.56787e-07
4.13651e-09
1.52216e-07
7.27395e-09
1.4566e-07
9.94009e-09
1.37448e-07
1.21379e-08
1.279e-07
1.38848e-08
1.17319e-07
1.52098e-08
1.05987e-07
1.61496e-08
9.41585e-08
1.67436e-08
8.20658e-08
1.70285e-08
6.99221e-08
1.70325e-08
5.79332e-08
1.67681e-08
4.6311e-08
1.62252e-08
3.52922e-08
1.53648e-08
2.5157e-08
1.41161e-08
1.62423e-08
1.23813e-08
8.93739e-09
1.00593e-08
3.64613e-09
7.10008e-09
6.97483e-10
3.62255e-09
3.64362e-10
-4.75091e-07
-1.05448e-07
-4.19409e-07
-1.09173e-07
-3.62581e-07
-1.11476e-07
-3.05304e-07
-1.123e-07
-2.48286e-07
-1.11619e-07
-1.92236e-07
-1.09443e-07
-1.37844e-07
-1.05815e-07
-8.57722e-08
-1.00813e-07
-3.66336e-08
-9.45534e-08
9.0186e-09
-8.7182e-08
5.07111e-08
-7.88753e-08
8.80376e-08
-6.98105e-08
1.20712e-07
-6.02314e-08
1.48536e-07
-5.0341e-08
1.71414e-07
-4.03621e-08
1.89356e-07
-3.05102e-08
2.02468e-07
-2.09832e-08
2.10948e-07
-1.19573e-08
2.15071e-07
-3.58107e-09
2.15179e-07
4.02852e-09
2.11662e-07
1.07904e-08
2.04948e-07
1.66547e-08
1.95479e-07
2.16062e-08
1.83705e-07
2.56587e-08
1.70065e-07
2.885e-08
1.5498e-07
3.1235e-08
1.38846e-07
3.28771e-08
1.22037e-07
3.38378e-08
1.04904e-07
3.41652e-08
8.77906e-08
3.38817e-08
7.10435e-08
3.29723e-08
5.50331e-08
3.13752e-08
4.01702e-08
2.89791e-08
2.69162e-08
2.56353e-08
1.57786e-08
2.11968e-08
7.28123e-09
1.55975e-08
1.89811e-09
9.00567e-09
2.26247e-09
-6.59423e-07
-1.71749e-07
-5.90913e-07
-1.77683e-07
-5.20928e-07
-1.8146e-07
-4.50233e-07
-1.82995e-07
-3.79612e-07
-1.8224e-07
-3.09856e-07
-1.79199e-07
-2.41746e-07
-1.73924e-07
-1.76041e-07
-1.66518e-07
-1.1346e-07
-1.57134e-07
-5.467e-08
-1.45972e-07
-2.69179e-10
-1.33276e-07
4.92641e-08
-1.19344e-07
9.34856e-08
-1.04453e-07
1.32093e-07
-8.89485e-08
1.64892e-07
-7.3161e-08
1.91801e-07
-5.74189e-08
2.1285e-07
-4.2033e-08
2.28181e-07
-2.72875e-08
2.3803e-07
-1.34307e-08
2.42728e-07
-6.69724e-10
2.42673e-07
1.08456e-08
2.38325e-07
2.10036e-08
2.3018e-07
2.97509e-08
2.1876e-07
3.7078e-08
2.04595e-07
4.30151e-08
1.88208e-07
4.76222e-08
1.70108e-07
5.09769e-08
1.50787e-07
5.3159e-08
1.30719e-07
5.42333e-08
1.10368e-07
5.42324e-08
9.02018e-08
5.3139e-08
7.07027e-08
5.08742e-08
5.23876e-08
4.72941e-08
3.58174e-08
4.22055e-08
2.16025e-08
3.54116e-08
1.04009e-08
2.67991e-08
2.92009e-09
1.64865e-08
5.18256e-09
-8.51454e-07
-2.47091e-07
-7.73488e-07
-2.55649e-07
-6.93643e-07
-2.61305e-07
-6.12706e-07
-2.63932e-07
-5.31488e-07
-2.63458e-07
-4.5082e-07
-2.59868e-07
-3.71534e-07
-2.5321e-07
-2.94451e-07
-2.43601e-07
-2.20364e-07
-2.31221e-07
-1.50021e-07
-2.16315e-07
-8.41077e-08
-1.9919e-07
-2.3248e-08
-1.80203e-07
3.20489e-08
-1.5975e-07
8.13609e-08
-1.3826e-07
1.24375e-07
-1.16175e-07
1.60905e-07
-9.39491e-08
1.90881e-07
-7.2009e-08
2.14353e-07
-5.07592e-08
2.31485e-07
-3.05629e-08
2.42546e-07
-1.17307e-08
2.47903e-07
5.48853e-09
2.47996e-07
2.0911e-08
2.43329e-07
3.44176e-08
2.34452e-07
4.59546e-08
2.21943e-07
5.5524e-08
2.06393e-07
6.31729e-08
1.88392e-07
6.8978e-08
1.68525e-07
7.30257e-08
1.47368e-07
7.53904e-08
1.25489e-07
7.61111e-08
1.03459e-07
7.51697e-08
8.18588e-08
7.2474e-08
6.13e-08
6.7853e-08
4.24356e-08
6.10699e-08
2.59815e-08
5.18657e-08
1.27431e-08
4.00374e-08
3.66781e-09
2.55618e-08
8.85036e-09
-1.05593e-06
-3.28987e-07
-9.70906e-07
-3.40673e-07
-8.83487e-07
-3.48724e-07
-7.94454e-07
-3.52966e-07
-7.04626e-07
-3.53285e-07
-6.14855e-07
-3.49639e-07
-5.26007e-07
-3.42059e-07
-4.38949e-07
-3.30659e-07
-3.54537e-07
-3.15633e-07
-2.73593e-07
-2.97259e-07
-1.96892e-07
-2.75891e-07
-1.25144e-07
-2.51951e-07
-5.89765e-08
-2.25918e-07
1.08056e-09
-1.98317e-07
5.46148e-08
-1.69709e-07
1.01313e-07
-1.40647e-07
1.40997e-07
-1.11693e-07
1.73613e-07
-8.3376e-08
1.99234e-07
-5.61832e-08
2.18046e-07
-3.05432e-08
2.30351e-07
-6.81607e-09
2.36543e-07
1.47181e-08
2.37101e-07
3.38605e-08
2.32567e-07
5.04879e-08
2.23537e-07
6.45546e-08
2.10635e-07
7.60747e-08
1.94507e-07
8.51059e-08
1.75806e-07
9.17266e-08
1.55187e-07
9.60096e-08
1.33304e-07
9.79938e-08
1.10817e-07
9.76572e-08
8.83956e-08
9.48951e-08
6.67387e-08
8.95098e-08
4.65908e-08
8.12178e-08
2.87743e-08
6.96823e-08
1.4237e-08
5.45747e-08
4.13286e-09
3.5666e-08
1.29832e-08
-1.27489e-06
-4.15638e-07
-1.1845e-06
-4.31062e-07
-1.09107e-06
-4.42148e-07
-9.95381e-07
-4.48659e-07
-8.98237e-07
-4.50429e-07
-8.00504e-07
-4.47371e-07
-7.03079e-07
-4.39485e-07
-6.06871e-07
-4.26866e-07
-5.12797e-07
-4.09708e-07
-4.21751e-07
-3.88305e-07
-3.34594e-07
-3.63047e-07
-2.52134e-07
-3.34412e-07
-1.75099e-07
-3.02952e-07
-1.04131e-07
-2.69285e-07
-3.97701e-08
-2.3407e-07
1.75699e-08
-1.97987e-07
6.75949e-08
-1.61718e-07
1.10142e-07
-1.25923e-07
1.45181e-07
-9.12218e-08
1.72809e-07
-5.81713e-08
1.93245e-07
-2.72526e-08
2.06829e-07
1.13475e-09
2.13983e-07
2.67068e-08
2.15228e-07
4.92427e-08
2.11149e-07
6.86332e-08
2.02384e-07
8.48395e-08
1.89608e-07
9.78819e-08
1.73521e-07
1.07814e-07
1.54835e-07
1.14695e-07
1.34277e-07
1.18552e-07
1.1258e-07
1.19354e-07
9.04943e-08
1.1698e-07
6.88014e-08
1.11203e-07
4.83337e-08
1.01685e-07
3.00143e-08
8.80018e-08
1.49134e-08
6.96756e-08
4.33767e-09
4.62417e-08
1.73209e-08
-1.5077e-06
-5.05672e-07
-1.41322e-06
-5.25541e-07
-1.31496e-06
-5.40408e-07
-1.21366e-06
-5.49961e-07
-1.11012e-06
-5.53965e-07
-1.00522e-06
-5.52272e-07
-8.99873e-07
-5.44831e-07
-7.95037e-07
-5.31702e-07
-6.91685e-07
-5.1306e-07
-5.90789e-07
-4.89201e-07
-4.933e-07
-4.60536e-07
-4.00127e-07
-4.27585e-07
-3.12112e-07
-3.90968e-07
-2.30012e-07
-3.51385e-07
-1.54484e-07
-3.09599e-07
-8.60641e-08
-2.66407e-07
-2.51625e-08
-2.22619e-07
2.79478e-08
-1.79033e-07
7.31322e-08
-1.36406e-07
1.10394e-07
-9.54335e-08
1.39872e-07
-5.673e-08
1.61822e-07
-2.08155e-08
1.7663e-07
1.18992e-08
1.84766e-07
4.11061e-08
1.86795e-07
6.66038e-08
1.83351e-07
8.82843e-08
1.7512e-07
1.06113e-07
1.6283e-07
1.20103e-07
1.47241e-07
1.30284e-07
1.29131e-07
1.36663e-07
1.09298e-07
1.39187e-07
8.85636e-08
1.37715e-07
6.77849e-08
1.31982e-07
4.78756e-08
1.21595e-07
2.98461e-08
1.06031e-07
1.48601e-08
8.46616e-08
4.31793e-09
5.67839e-08
2.16388e-08
-1.93025e-06
-5.32722e-07
-1.84379e-06
-5.67632e-07
-1.75157e-06
-5.97882e-07
-1.65414e-06
-6.22974e-07
-1.5521e-06
-6.42452e-07
-1.44614e-06
-6.55918e-07
-1.33705e-06
-6.63051e-07
-1.2257e-06
-6.63621e-07
-1.11303e-06
-6.57507e-07
-1.00002e-06
-6.44712e-07
-8.87707e-07
-6.25372e-07
-7.77146e-07
-5.99762e-07
-6.69384e-07
-5.68297e-07
-5.6544e-07
-5.31529e-07
-4.66279e-07
-4.90129e-07
-3.72786e-07
-4.44878e-07
-2.85747e-07
-3.96637e-07
-2.0583e-07
-3.46324e-07
-1.33567e-07
-2.94882e-07
-6.93505e-08
-2.4325e-07
-1.3421e-08
-1.92336e-07
3.4128e-08
-1.42982e-07
7.33486e-08
-9.59505e-08
1.0443e-07
-5.18968e-08
1.27692e-07
-1.13631e-08
1.43568e-07
2.52301e-08
1.52591e-07
5.75811e-08
1.55381e-07
8.54945e-08
1.52628e-07
1.08866e-07
1.45077e-07
1.27654e-07
1.33519e-07
1.41843e-07
1.18775e-07
1.51406e-07
1.01699e-07
1.56263e-07
8.31743e-08
1.5624e-07
6.4124e-08
1.51032e-07
4.55334e-08
1.40185e-07
2.84825e-08
1.23082e-07
1.41969e-08
9.89472e-08
4.11549e-09
6.68653e-08
2.57543e-08
-2.3347e-06
-5.16535e-07
-2.26192e-06
-5.66453e-07
-2.18206e-06
-6.1258e-07
-2.09539e-06
-6.54306e-07
-2.00225e-06
-6.91025e-07
-1.90307e-06
-7.22149e-07
-1.7984e-06
-7.47124e-07
-1.68887e-06
-7.65452e-07
-1.57521e-06
-7.76706e-07
-1.45828e-06
-7.80555e-07
-1.339e-06
-7.76784e-07
-1.2184e-06
-7.65314e-07
-1.09756e-06
-7.46213e-07
-9.77607e-07
-7.19712e-07
-8.59697e-07
-6.86208e-07
-7.44966e-07
-6.4626e-07
-6.34515e-07
-6.0058e-07
-5.29376e-07
-5.50018e-07
-4.30483e-07
-4.9553e-07
-3.38652e-07
-4.38155e-07
-2.54558e-07
-3.78976e-07
-1.78721e-07
-3.19087e-07
-1.11502e-07
-2.59555e-07
-5.30956e-08
-2.01388e-07
-3.53899e-09
-1.45507e-07
3.72856e-08
-9.27214e-08
6.9638e-08
-4.37155e-08
9.3911e-08
9.57116e-10
1.10605e-07
4.08869e-08
1.20328e-07
7.57722e-08
1.23766e-07
1.05428e-07
1.21679e-07
1.29741e-07
1.14879e-07
1.48642e-07
1.04227e-07
1.62058e-07
9.06203e-08
1.6987e-07
7.49963e-08
1.71864e-07
5.83373e-08
1.67691e-07
4.16864e-08
1.56836e-07
2.61748e-08
1.38594e-07
1.30602e-08
1.12062e-07
3.77515e-09
7.61504e-08
2.95295e-08
-2.58133e-06
-5.79463e-07
-2.51077e-06
-6.37014e-07
-2.43266e-06
-6.90688e-07
-2.34716e-06
-7.39807e-07
-2.2545e-06
-7.83686e-07
-2.15501e-06
-8.21643e-07
-2.04911e-06
-8.53022e-07
-1.93736e-06
-8.77208e-07
-1.82041e-06
-8.93656e-07
-1.69905e-06
-9.0191e-07
-1.5742e-06
-9.01636e-07
-1.44687e-06
-8.9264e-07
-1.31819e-06
-8.74893e-07
-1.18936e-06
-8.48549e-07
-1.06161e-06
-8.13954e-07
-9.36221e-07
-7.71648e-07
-8.14441e-07
-7.22361e-07
-6.97466e-07
-6.66993e-07
-5.86406e-07
-6.0659e-07
-4.8225e-07
-5.4231e-07
-3.85842e-07
-4.75384e-07
-2.97858e-07
-4.07071e-07
-2.18796e-07
-3.38617e-07
-1.48972e-07
-2.71213e-07
-8.85175e-08
-2.05961e-07
-3.73942e-08
-1.43845e-07
4.6001e-09
-8.57098e-08
3.78112e-08
-3.2254e-08
6.27218e-08
1.59763e-08
7.99216e-08
5.85725e-08
9.00997e-08
9.52495e-08
9.40261e-08
1.25815e-07
9.25376e-08
1.50131e-07
8.65264e-08
1.6807e-07
7.69321e-08
1.79464e-07
6.47389e-08
1.84057e-07
5.09785e-08
1.81451e-07
3.67404e-08
1.71074e-07
2.31898e-08
1.52144e-07
1.15922e-08
1.23659e-07
3.3422e-09
8.44004e-08
3.28717e-08
-2.81781e-06
-6.38635e-07
-2.75078e-06
-7.04043e-07
-2.67586e-06
-7.65606e-07
-2.59308e-06
-8.22591e-07
-2.50253e-06
-8.74236e-07
-2.4044e-06
-9.19771e-07
-2.29899e-06
-9.58433e-07
-2.18671e-06
-9.89486e-07
-2.06812e-06
-1.01225e-06
-1.9439e-06
-1.02612e-06
-1.81491e-06
-1.03063e-06
-1.68214e-06
-1.02542e-06
-1.54669e-06
-1.01034e-06
-1.40983e-06
-9.85414e-07
-1.27287e-06
-9.50908e-07
-1.13722e-06
-9.07301e-07
-1.00428e-06
-8.55304e-07
-8.75425e-07
-7.95846e-07
-7.51974e-07
-7.30041e-07
-6.35122e-07
-6.59162e-07
-5.25918e-07
-5.84588e-07
-4.2523e-07
-5.07759e-07
-3.33729e-07
-4.30118e-07
-2.51877e-07
-3.53065e-07
-1.79927e-07
-2.77912e-07
-1.1793e-07
-2.05842e-07
-6.57503e-08
-1.37889e-07
-2.30839e-08
-7.49204e-08
1.05255e-08
-1.76331e-08
3.56621e-08
3.34358e-08
5.30208e-08
7.78909e-08
6.33881e-08
1.15447e-07
6.76271e-08
1.45892e-07
6.66637e-08
1.69033e-07
6.14775e-08
1.84651e-07
5.30958e-08
1.92439e-07
4.25932e-08
1.91954e-07
3.10957e-08
1.82572e-07
1.97893e-08
1.63451e-07
9.93133e-09
1.33517e-07
2.85993e-09
9.14718e-08
3.57316e-08
-3.0375e-06
-6.92884e-07
-2.97535e-06
-7.66196e-07
-2.90513e-06
-8.35823e-07
-2.82673e-06
-9.00987e-07
-2.7401e-06
-9.60867e-07
-2.64526e-06
-1.01461e-06
-2.54234e-06
-1.06136e-06
-2.43159e-06
-1.10024e-06
-2.3134e-06
-1.13044e-06
-2.18833e-06
-1.15119e-06
-2.0571e-06
-1.16185e-06
-1.92063e-06
-1.16189e-06
-1.77999e-06
-1.15098e-06
-1.63643e-06
-1.12897e-06
-1.49133e-06
-1.096e-06
-1.3462e-06
-1.05243e-06
-1.2026e-06
-9.98912e-07
-1.06209e-06
-9.36356e-07
-9.26209e-07
-8.65918e-07
-7.96406e-07
-7.88964e-07
-6.73975e-07
-7.0702e-07
-5.60024e-07
-6.2171e-07
-4.55443e-07
-5.34699e-07
-3.60885e-07
-4.47623e-07
-2.76759e-07
-3.62037e-07
-2.03236e-07
-2.79364e-07
-1.40265e-07
-2.0086e-07
-8.7592e-08
-1.27593e-07
-4.47875e-08
-6.04377e-08
-1.12703e-08
-8.13057e-11
1.36661e-08
5.29544e-08
3.08333e-08
9.82802e-08
4.11275e-08
1.35597e-07
4.55137e-08
1.64647e-07
4.50138e-08
1.8515e-07
4.06983e-08
1.96754e-07
3.36814e-08
1.98971e-07
2.512e-08
1.91133e-07
1.62134e-08
1.72357e-07
8.20322e-09
1.41528e-07
2.36718e-09
9.73078e-08
3.80988e-08
-3.23394e-06
-7.41131e-07
-3.17794e-06
-8.22187e-07
-3.11392e-06
-8.99843e-07
-3.04161e-06
-9.73298e-07
-2.96079e-06
-1.04169e-06
-2.8713e-06
-1.1041e-06
-2.77308e-06
-1.15958e-06
-2.66617e-06
-1.20714e-06
-2.55078e-06
-1.24583e-06
-2.42726e-06
-1.27471e-06
-2.29617e-06
-1.29294e-06
-2.15827e-06
-1.29979e-06
-2.01454e-06
-1.2947e-06
-1.86617e-06
-1.27734e-06
-1.71456e-06
-1.24761e-06
-1.56126e-06
-1.20573e-06
-1.40796e-06
-1.15221e-06
-1.25642e-06
-1.0879e-06
-1.10841e-06
-1.01393e-06
-9.65638e-07
-9.31733e-07
-8.297e-07
-8.42958e-07
-7.01996e-07
-7.49415e-07
-5.83695e-07
-6.52999e-07
-4.75702e-07
-5.55617e-07
-3.78634e-07
-4.59105e-07
-2.9283e-07
-3.65169e-07
-2.18354e-07
-2.75336e-07
-1.55028e-07
-1.90919e-07
-1.0246e-07
-1.13006e-07
-6.00731e-08
-4.24678e-08
-2.71447e-08
2.0026e-08
-2.83061e-09
7.39661e-08
1.38073e-08
1.1896e-07
2.37823e-08
1.54672e-07
2.81659e-08
1.80767e-07
2.80754e-08
1.96845e-07
2.46664e-08
2.0238e-07
1.91259e-08
1.96674e-07
1.26659e-08
1.78817e-07
6.5141e-09
1.47679e-07
1.89639e-09
1.01926e-07
3.99952e-08
-3.40125e-06
-7.82485e-07
-3.35254e-06
-8.709e-07
-3.29606e-06
-9.56318e-07
-3.23142e-06
-1.03794e-06
-3.15823e-06
-1.11488e-06
-3.07615e-06
-1.18619e-06
-2.98489e-06
-1.25083e-06
-2.88429e-06
-1.30774e-06
-2.77431e-06
-1.35582e-06
-2.65505e-06
-1.39397e-06
-2.52686e-06
-1.42113e-06
-2.39028e-06
-1.43637e-06
-2.24611e-06
-1.43887e-06
-2.09542e-06
-1.42803e-06
-1.93952e-06
-1.40351e-06
-1.77998e-06
-1.36527e-06
-1.61855e-06
-1.31364e-06
-1.45716e-06
-1.24929e-06
-1.29778e-06
-1.1733e-06
-1.14242e-06
-1.08709e-06
-9.92991e-07
-9.92389e-07
-8.51237e-07
-8.91169e-07
-7.18675e-07
-7.85561e-07
-5.9653e-07
-6.77761e-07
-4.85706e-07
-5.69929e-07
-3.86769e-07
-4.64106e-07
-2.99957e-07
-3.62148e-07
-2.25208e-07
-2.65668e-07
-1.6219e-07
-1.76024e-07
-1.10349e-07
-9.43094e-08
-6.89451e-08
-2.13776e-08
-3.70981e-08
4.21192e-08
-1.3817e-08
9.56783e-08
1.96983e-09
1.38885e-07
1.13927e-08
1.71344e-07
1.56256e-08
1.92612e-07
1.58719e-08
2.02134e-07
1.33545e-08
1.99191e-07
9.30431e-09
1.82867e-07
4.94561e-09
1.52038e-07
1.47214e-09
1.05399e-07
4.14673e-08
-3.53465e-06
-8.16336e-07
-3.49404e-06
-9.11507e-07
-3.44618e-06
-1.00418e-06
-3.39054e-06
-1.09358e-06
-3.32658e-06
-1.17884e-06
-3.25377e-06
-1.25899e-06
-3.17164e-06
-1.33297e-06
-3.07975e-06
-1.39963e-06
-2.97782e-06
-1.45775e-06
-2.86569e-06
-1.5061e-06
-2.74339e-06
-1.54343e-06
-2.61122e-06
-1.56855e-06
-2.4697e-06
-1.58039e-06
-2.3197e-06
-1.57804e-06
-2.16236e-06
-1.56085e-06
-1.99917e-06
-1.52847e-06
-1.83187e-06
-1.48094e-06
-1.66246e-06
-1.4187e-06
-1.49311e-06
-1.34265e-06
-1.32609e-06
-1.25412e-06
-1.16364e-06
-1.15484e-06
-1.00788e-06
-1.04692e-06
-8.60752e-07
-9.32693e-07
-7.23869e-07
-8.14644e-07
-5.98505e-07
-6.95293e-07
-4.85542e-07
-5.77069e-07
-3.85469e-07
-4.62221e-07
-2.984e-07
-3.52737e-07
-2.24114e-07
-2.5031e-07
-1.62104e-07
-1.5632e-07
-1.11631e-07
-7.18502e-08
-7.17799e-08
2.26797e-09
-4.1501e-08
6.53994e-08
-1.96537e-08
1.17038e-07
-5.03461e-09
1.56725e-07
3.59809e-09
1.83979e-07
7.50782e-09
1.98224e-07
7.96506e-09
1.98734e-07
6.23332e-09
1.84599e-07
3.5518e-09
1.5472e-07
1.11044e-09
1.0784e-07
4.25777e-08
-3.63083e-06
-8.42422e-07
-3.59879e-06
-9.43551e-07
-3.56022e-06
-1.04275e-06
-3.51451e-06
-1.13929e-06
-3.46098e-06
-1.23236e-06
-3.39897e-06
-1.32101e-06
-3.32777e-06
-1.40416e-06
-3.24676e-06
-1.48064e-06
-3.15535e-06
-1.54916e-06
-3.0531e-06
-1.60835e-06
-2.93973e-06
-1.6568e-06
-2.81519e-06
-1.69309e-06
-2.6797e-06
-1.71588e-06
-2.5338e-06
-1.72394e-06
-2.37839e-06
-1.71625e-06
-2.21475e-06
-1.69212e-06
-2.04451e-06
-1.65118e-06
-1.86966e-06
-1.59355e-06
-1.69246e-06
-1.51984e-06
-1.51539e-06
-1.43119e-06
-1.341e-06
-1.32924e-06
-1.17181e-06
-1.21611e-06
-1.0102e-06
-1.0943e-06
-8.58267e-07
-9.66578e-07
-7.17737e-07
-8.35823e-07
-5.89908e-07
-7.04898e-07
-4.75617e-07
-5.76512e-07
-3.75243e-07
-4.53111e-07
-2.88744e-07
-3.36809e-07
-2.15713e-07
-2.2935e-07
-1.55445e-07
-1.32119e-07
-1.07e-07
-4.61767e-08
-6.9275e-08
2.76745e-08
-4.10511e-08
8.88137e-08
-2.10397e-08
1.36713e-07
-7.91472e-09
1.70854e-07
-3.36354e-10
1.90646e-07
3.03084e-09
1.95367e-07
3.50262e-09
1.84127e-07
2.35829e-09
1.55864e-07
8.18563e-10
1.0938e-07
4.33963e-08
-3.68836e-06
-8.60868e-07
-3.6649e-06
-9.67005e-07
-3.63584e-06
-1.07181e-06
-3.60049e-06
-1.17464e-06
-3.5581e-06
-1.27475e-06
-3.50787e-06
-1.37125e-06
-3.44894e-06
-1.46309e-06
-3.38047e-06
-1.54911e-06
-3.30164e-06
-1.62799e-06
-3.21171e-06
-1.69828e-06
-3.11006e-06
-1.75844e-06
-2.99629e-06
-1.80687e-06
-2.87022e-06
-1.84194e-06
-2.73203e-06
-1.86213e-06
-2.58224e-06
-1.86604e-06
-2.42182e-06
-1.85253e-06
-2.25218e-06
-1.82083e-06
-2.07514e-06
-1.77059e-06
-1.89297e-06
-1.70202e-06
-1.70823e-06
-1.61593e-06
-1.52372e-06
-1.51374e-06
-1.34234e-06
-1.39749e-06
-1.16691e-06
-1.26973e-06
-1.00006e-06
-1.13343e-06
-8.44047e-07
-9.91834e-07
-7.00695e-07
-8.48249e-07
-5.713e-07
-7.05907e-07
-4.56616e-07
-5.67796e-07
-3.56877e-07
-4.36547e-07
-2.71854e-07
-3.14373e-07
-2.00925e-07
-2.03048e-07
-1.43165e-07
-1.03937e-07
-9.74252e-08
-1.80651e-08
-6.241e-08
5.37985e-08
-3.67348e-08
1.11038e-07
-1.89729e-08
1.53092e-07
-7.68856e-09
1.79361e-07
-1.45915e-09
1.89137e-07
1.10823e-09
1.8156e-07
1.36328e-09
1.55609e-07
5.95493e-10
1.10148e-07
4.39918e-08
-3.70776e-06
-8.72165e-07
-3.6925e-06
-9.8227e-07
-3.67267e-06
-1.09164e-06
-3.64758e-06
-1.19973e-06
-3.61644e-06
-1.30589e-06
-3.57836e-06
-1.40932e-06
-3.53239e-06
-1.50906e-06
-3.47752e-06
-1.60398e-06
-3.41272e-06
-1.6928e-06
-3.33697e-06
-1.77403e-06
-3.24936e-06
-1.84606e-06
-3.14909e-06
-1.90713e-06
-3.0356e-06
-1.95544e-06
-2.9086e-06
-1.98912e-06
-2.7682e-06
-2.00644e-06
-2.61493e-06
-2.0058e-06
-2.44983e-06
-1.98593e-06
-2.27444e-06
-1.94597e-06
-2.09084e-06
-1.88561e-06
-1.90158e-06
-1.80519e-06
-1.70959e-06
-1.70574e-06
-1.51802e-06
-1.58905e-06
-1.33015e-06
-1.45761e-06
-1.14911e-06
-1.31447e-06
-9.77778e-07
-1.16317e-06
-8.18583e-07
-1.00744e-06
-6.734e-07
-8.5109e-07
-5.43486e-07
-6.9771e-07
-4.29472e-07
-5.50561e-07
-3.31409e-07
-4.12437e-07
-2.48841e-07
-2.85615e-07
-1.8091e-07
-1.71868e-07
-1.26455e-07
-7.252e-08
-8.41134e-08
1.14569e-08
-5.24004e-08
7.93253e-08
-2.97748e-08
1.30466e-07
-1.46836e-08
1.6427e-07
-5.59212e-09
1.80046e-07
-1.0018e-09
1.7697e-07
5.40364e-10
1.54067e-07
4.32903e-10
1.10255e-07
4.44247e-08
-3.6915e-06
-8.77115e-07
-3.68364e-06
-9.90124e-07
-3.67233e-06
-1.10295e-06
-3.65688e-06
-1.21518e-06
-3.63652e-06
-1.32625e-06
-3.61034e-06
-1.4355e-06
-3.57733e-06
-1.54207e-06
-3.53637e-06
-1.64494e-06
-3.48629e-06
-1.74288e-06
-3.42586e-06
-1.83445e-06
-3.35388e-06
-1.91803e-06
-3.26923e-06
-1.99179e-06
-3.17092e-06
-2.05374e-06
-3.05823e-06
-2.10182e-06
-2.93074e-06
-2.13393e-06
-2.78848e-06
-2.14806e-06
-2.63201e-06
-2.14241e-06
-2.46243e-06
-2.11555e-06
-2.28149e-06
-2.06655e-06
-2.09153e-06
-1.99515e-06
-1.89543e-06
-1.90184e-06
-1.69651e-06
-1.78797e-06
-1.49836e-06
-1.65576e-06
-1.30461e-06
-1.50822e-06
-1.11875e-06
-1.34903e-06
-9.43887e-07
-1.18231e-06
-7.82584e-07
-1.01239e-06
-6.36732e-07
-8.43562e-07
-5.07499e-07
-6.79793e-07
-3.95346e-07
-5.2459e-07
-3.00092e-07
-3.80869e-07
-2.21026e-07
-2.50935e-07
-1.57029e-07
-1.36517e-07
-1.06697e-07
-3.88748e-08
-6.84531e-08
4.10816e-08
-4.06322e-08
1.02645e-07
-2.15449e-08
1.45183e-07
-9.51896e-09
1.6802e-07
-2.91975e-09
1.7037e-07
-1.57595e-10
1.51305e-07
3.16561e-10
1.09781e-07
4.47413e-08
-3.64363e-06
-8.76744e-07
-3.64212e-06
-9.91637e-07
-3.63823e-06
-1.10684e-06
-3.63137e-06
-1.22204e-06
-3.6208e-06
-1.33682e-06
-3.60565e-06
-1.45065e-06
-3.58492e-06
-1.56281e-06
-3.55745e-06
-1.67241e-06
-3.52199e-06
-1.77834e-06
-3.47718e-06
-1.87927e-06
-3.4216e-06
-1.97361e-06
-3.35384e-06
-2.05954e-06
-3.27256e-06
-2.13502e-06
-3.17658e-06
-2.1978e-06
-3.06499e-06
-2.24552e-06
-2.93725e-06
-2.2758e-06
-2.79332e-06
-2.28634e-06
-2.63376e-06
-2.27511e-06
-2.45982e-06
-2.2405e-06
-2.27343e-06
-2.18154e-06
-2.07725e-06
-2.09801e-06
-1.87456e-06
-1.99066e-06
-1.66912e-06
-1.86121e-06
-1.46494e-06
-1.71239e-06
-1.26609e-06
-1.54788e-06
-1.07637e-06
-1.37202e-06
-8.99119e-07
-1.18965e-06
-7.36974e-07
-1.00571e-06
-5.91792e-07
-8.24976e-07
-4.64591e-07
-6.51791e-07
-3.55602e-07
-4.89858e-07
-2.64372e-07
-3.42165e-07
-1.89901e-07
-2.10989e-07
-1.30794e-07
-9.79815e-08
-8.54027e-08
-4.30979e-09
-5.19379e-08
6.91807e-08
-2.85608e-08
1.21806e-07
-1.34374e-08
1.52896e-07
-4.76697e-09
1.617e-07
-7.88557e-10
1.47326e-07
2.28295e-10
1.08764e-07
4.49696e-08
-3.56936e-06
-8.72193e-07
-3.57295e-06
-9.88051e-07
-3.57518e-06
-1.10461e-06
-3.57553e-06
-1.22168e-06
-3.57336e-06
-1.33899e-06
-3.5679e-06
-1.45612e-06
-3.55818e-06
-1.57253e-06
-3.54311e-06
-1.68748e-06
-3.52141e-06
-1.80003e-06
-3.49168e-06
-1.909e-06
-3.45237e-06
-2.01292e-06
-3.40186e-06
-2.11005e-06
-3.33853e-06
-2.19836e-06
-3.2608e-06
-2.27553e-06
-3.16727e-06
-2.33905e-06
-3.05686e-06
-2.38621e-06
-2.9289e-06
-2.4143e-06
-2.78329e-06
-2.42072e-06
-2.62061e-06
-2.40317e-06
-2.44226e-06
-2.35989e-06
-2.25044e-06
-2.28984e-06
-2.04816e-06
-2.19294e-06
-1.83915e-06
-2.07022e-06
-1.62764e-06
-1.9239e-06
-1.41815e-06
-1.75737e-06
-1.21513e-06
-1.57504e-06
-1.02272e-06
-1.38206e-06
-8.44422e-07
-1.18401e-06
-6.829e-07
-9.86499e-07
-5.39895e-07
-7.94795e-07
-4.16209e-07
-6.13545e-07
-3.11781e-07
-4.46592e-07
-2.25841e-07
-2.96929e-07
-1.57076e-07
-1.66747e-07
-1.03803e-07
-5.75819e-08
-6.4129e-08
2.95062e-08
-3.60568e-08
9.37334e-08
-1.75726e-08
1.34412e-07
-6.68312e-09
1.50811e-07
-1.42584e-09
1.42069e-07
1.47003e-10
1.07192e-07
4.51166e-08
-3.4745e-06
-8.64615e-07
-3.48189e-06
-9.80662e-07
-3.48879e-06
-1.09771e-06
-3.49481e-06
-1.21566e-06
-3.49943e-06
-1.33438e-06
-3.50196e-06
-1.45359e-06
-3.50158e-06
-1.57291e-06
-3.49728e-06
-1.69178e-06
-3.48786e-06
-1.80945e-06
-3.47193e-06
-1.92493e-06
-3.44792e-06
-2.03693e-06
-3.4141e-06
-2.14387e-06
-3.36865e-06
-2.24381e-06
-3.3097e-06
-2.33448e-06
-3.23546e-06
-2.41329e-06
-3.14429e-06
-2.47737e-06
-3.03492e-06
-2.52367e-06
-2.90656e-06
-2.54909e-06
-2.75904e-06
-2.55069e-06
-2.59304e-06
-2.52589e-06
-2.41012e-06
-2.47276e-06
-2.21279e-06
-2.39026e-06
-2.0045e-06
-2.27851e-06
-1.78947e-06
-2.13893e-06
-1.57247e-06
-1.97437e-06
-1.35851e-06
-1.789e-06
-1.15248e-06
-1.58809e-06
-9.5876e-07
-1.37773e-06
-7.80971e-07
-1.16429e-06
-6.21724e-07
-9.54042e-07
-4.82559e-07
-7.5271e-07
-3.63973e-07
-5.65178e-07
-2.65559e-07
-3.95343e-07
-1.86186e-07
-2.4612e-07
-1.24206e-07
-1.19561e-07
-7.76482e-08
-1.7052e-08
-4.43672e-08
6.04524e-08
-2.21574e-08
1.12202e-07
-8.81192e-09
1.37465e-07
-2.13949e-09
1.35396e-07
5.21855e-11
1.05e-07
4.51687e-08
-3.36489e-06
-8.55085e-07
-3.37484e-06
-9.70715e-07
-3.38501e-06
-1.08753e-06
-3.39513e-06
-1.20554e-06
-3.4048e-06
-1.3247e-06
-3.4135e-06
-1.44489e-06
-3.42053e-06
-1.56587e-06
-3.42504e-06
-1.68728e-06
-3.42594e-06
-1.80855e-06
-3.42196e-06
-1.92891e-06
-3.41159e-06
-2.04731e-06
-3.39309e-06
-2.16237e-06
-3.36455e-06
-2.27234e-06
-3.32393e-06
-2.3751e-06
-3.26912e-06
-2.4681e-06
-3.19808e-06
-2.54842e-06
-3.10895e-06
-2.6128e-06
-3.00025e-06
-2.65778e-06
-2.87108e-06
-2.67986e-06
-2.72126e-06
-2.67571e-06
-2.55156e-06
-2.64246e-06
-2.36378e-06
-2.57804e-06
-2.16081e-06
-2.48147e-06
-1.9466e-06
-2.35315e-06
-1.72593e-06
-2.19505e-06
-1.50414e-06
-2.01078e-06
-1.28677e-06
-1.80547e-06
-1.07908e-06
-1.58542e-06
-8.85669e-07
-1.3577e-06
-7.10168e-07
-1.12954e-06
-5.55024e-07
-9.07854e-07
-4.21475e-07
-6.98727e-07
-3.09636e-07
-5.07182e-07
-2.18689e-07
-3.37067e-07
-1.47112e-07
-1.91138e-07
-9.29088e-08
-7.12556e-08
-5.38085e-08
2.13521e-08
-2.74143e-08
8.58083e-08
-1.12908e-08
1.21342e-07
-2.99799e-09
1.27104e-07
-7.78073e-11
1.0208e-07
4.50909e-08
-3.24599e-06
-8.4453e-07
-3.25739e-06
-9.59314e-07
-3.26955e-06
-1.07538e-06
-3.28229e-06
-1.1928e-06
-3.29536e-06
-1.31163e-06
-3.30839e-06
-1.43187e-06
-3.32084e-06
-1.55341e-06
-3.33204e-06
-1.67608e-06
-3.34108e-06
-1.79951e-06
-3.34684e-06
-1.92315e-06
-3.34794e-06
-2.0462e-06
-3.34276e-06
-2.16755e-06
-3.3294e-06
-2.2857e-06
-3.30577e-06
-2.39874e-06
-3.26957e-06
-2.5043e-06
-3.21845e-06
-2.59954e-06
-3.15011e-06
-2.68114e-06
-3.06247e-06
-2.74542e-06
-2.95387e-06
-2.78846e-06
-2.82328e-06
-2.80629e-06
-2.67057e-06
-2.79518e-06
-2.49664e-06
-2.75197e-06
-2.30361e-06
-2.6745e-06
-2.09484e-06
-2.56191e-06
-1.87484e-06
-2.41505e-06
-1.64903e-06
-2.2366e-06
-1.42336e-06
-2.03114e-06
-1.20386e-06
-1.80492e-06
-9.96128e-07
-1.56543e-06
-8.04885e-07
-1.32079e-06
-6.33644e-07
-1.0791e-06
-4.84566e-07
-8.47805e-07
-3.58477e-07
-6.33271e-07
-2.55028e-07
-4.40516e-07
-1.72938e-07
-2.73228e-07
-1.10267e-07
-1.33927e-07
-6.46592e-08
-2.42556e-08
-3.35402e-08
5.46892e-08
-1.42418e-08
1.02043e-07
-4.06093e-09
1.16923e-07
-2.57803e-10
9.82765e-08
4.48331e-08
-3.12248e-06
-8.33691e-07
-3.13443e-06
-9.47366e-07
-3.14748e-06
-1.06233e-06
-3.16156e-06
-1.17872e-06
-3.17655e-06
-1.29664e-06
-3.19222e-06
-1.4162e-06
-3.20821e-06
-1.53742e-06
-3.22402e-06
-1.66027e-06
-3.23895e-06
-1.78458e-06
-3.25209e-06
-1.91002e-06
-3.26225e-06
-2.03604e-06
-3.26799e-06
-2.16182e-06
-3.26753e-06
-2.28616e-06
-3.25882e-06
-2.40744e-06
-3.23956e-06
-2.52357e-06
-3.20722e-06
-2.63188e-06
-3.15918e-06
-2.72918e-06
-3.09287e-06
-2.81173e-06
-3.00599e-06
-2.87535e-06
-2.89669e-06
-2.91558e-06
-2.7639e-06
-2.92797e-06
-2.60753e-06
-2.90834e-06
-2.42872e-06
-2.8533e-06
-2.23e-06
-2.76064e-06
-2.01528e-06
-2.62977e-06
-1.78972e-06
-2.46216e-06
-1.55944e-06
-2.26142e-06
-1.33102e-06
-2.03334e-06
-1.11096e-06
-1.78549e-06
-9.0508e-07
-1.52666e-06
-7.1809e-07
-1.26609e-06
-5.53245e-07
-1.01265e-06
-4.12277e-07
-7.74239e-07
-2.95489e-07
-5.57304e-07
-2.01992e-07
-3.66725e-07
-1.30003e-07
-2.05916e-07
-7.71453e-08
-7.7113e-08
-4.06974e-08
1.82413e-08
-1.77654e-08
7.91112e-08
-5.3776e-09
1.04535e-07
-5.02842e-10
9.34018e-08
4.43303e-08
-2.99814e-06
-8.23112e-07
-3.00994e-06
-9.35565e-07
-3.02302e-06
-1.04925e-06
-3.03741e-06
-1.16433e-06
-3.05308e-06
-1.28097e-06
-3.06994e-06
-1.39934e-06
-3.0878e-06
-1.51957e-06
-3.10633e-06
-1.64174e-06
-3.12504e-06
-1.76586e-06
-3.14325e-06
-1.89181e-06
-3.16001e-06
-2.01928e-06
-3.17408e-06
-2.14774e-06
-3.18393e-06
-2.27631e-06
-3.18766e-06
-2.40371e-06
-3.18303e-06
-2.52819e-06
-3.16752e-06
-2.64739e-06
-3.13834e-06
-2.75836e-06
-3.0926e-06
-2.85746e-06
-3.02748e-06
-2.94047e-06
-2.94043e-06
-3.00263e-06
-2.82948e-06
-3.03892e-06
-2.69351e-06
-3.04431e-06
-2.53259e-06
-3.01423e-06
-2.34817e-06
-2.94505e-06
-2.14329e-06
-2.83465e-06
-1.92253e-06
-2.68291e-06
-1.69182e-06
-2.49213e-06
-1.458e-06
-2.26716e-06
-1.22827e-06
-2.01522e-06
-1.00951e-06
-1.74542e-06
-8.07658e-07
-1.46794e-06
-6.27211e-07
-1.1931e-06
-4.71006e-07
-9.30444e-07
-3.40197e-07
-6.88113e-07
-2.34462e-07
-4.7246e-07
-1.52312e-07
-2.88067e-07
-9.14341e-08
-1.3799e-07
-4.90093e-08
-2.41835e-08
-2.19387e-08
5.20405e-08
-6.98514e-09
8.95813e-08
-8.22732e-10
8.72394e-08
4.35076e-08
-2.87571e-06
-8.13144e-07
-2.88689e-06
-9.24381e-07
-2.8994e-06
-1.03674e-06
-2.91332e-06
-1.1504e-06
-2.92873e-06
-1.26556e-06
-2.94563e-06
-1.38244e-06
-2.96398e-06
-1.50122e-06
-2.98362e-06
-1.6221e-06
-3.00426e-06
-1.74522e-06
-3.02544e-06
-1.87063e-06
-3.04646e-06
-1.99826e-06
-3.06636e-06
-2.12784e-06
-3.08385e-06
-2.25882e-06
-3.09728e-06
-2.39028e-06
-3.10462e-06
-2.52085e-06
-3.10343e-06
-2.64858e-06
-3.09095e-06
-2.77084e-06
-3.06414e-06
-2.88428e-06
-3.01981e-06
-2.9848e-06
-2.95486e-06
-3.06758e-06
-2.86656e-06
-3.12723e-06
-2.75281e-06
-3.15806e-06
-2.61254e-06
-3.1545e-06
-2.44605e-06
-3.11154e-06
-2.25526e-06
-3.02545e-06
-2.04382e-06
-2.89435e-06
-1.81711e-06
-2.71884e-06
-1.58189e-06
-2.50237e-06
-1.34578e-06
-2.25133e-06
-1.11653e-06
-1.97467e-06
-9.01277e-07
-1.68319e-06
-7.05864e-07
-1.38851e-06
-5.34399e-07
-1.10191e-06
-3.89103e-07
-8.33409e-07
-2.70416e-07
-5.91147e-07
-1.77303e-07
-3.8118e-07
-1.07635e-07
-2.07659e-07
-5.85614e-08
-7.32566e-08
-2.6816e-08
2.02951e-08
-8.90956e-09
7.16749e-08
-1.22418e-09
7.9554e-08
4.22834e-08
-2.75701e-06
-8.03972e-07
-2.7673e-06
-9.14089e-07
-2.77885e-06
-1.02519e-06
-2.7918e-06
-1.13745e-06
-2.80628e-06
-1.25109e-06
-2.82238e-06
-1.36633e-06
-2.84018e-06
-1.48342e-06
-2.85966e-06
-1.60262e-06
-2.88071e-06
-1.72417e-06
-2.90308e-06
-1.84826e-06
-2.92631e-06
-1.97503e-06
-2.94972e-06
-2.10443e-06
-2.97231e-06
-2.23623e-06
-2.99273e-06
-2.36987e-06
-3.00921e-06
-2.50437e-06
-3.01956e-06
-2.63823e-06
-3.02114e-06
-2.76926e-06
-3.01092e-06
-2.8945e-06
-2.98557e-06
-3.01016e-06
-2.94161e-06
-3.11153e-06
-2.87569e-06
-3.19314e-06
-2.78488e-06
-3.24888e-06
-2.66704e-06
-3.27234e-06
-2.52124e-06
-3.25734e-06
-2.34812e-06
-3.19856e-06
-2.1502e-06
-3.09227e-06
-1.93194e-06
-2.93711e-06
-1.69961e-06
-2.7347e-06
-1.46088e-06
-2.49005e-06
-1.22413e-06
-2.21143e-06
-9.97537e-07
-1.90978e-06
-7.8831e-07
-1.59774e-06
-6.01966e-07
-1.28825e-06
-4.41988e-07
-9.93387e-07
-3.09799e-07
-7.23336e-07