/*--------------------------------*- C++ -*----------------------------------*\
  =========                 |
  \\      /  F ield         | OpenFOAM: The Open Source CFD Toolbox
   \\    /   O peration     | Website:  https://openfoam.org
    \\  /    A nd           | Version:  9
     \\/     M anipulation  |
\*---------------------------------------------------------------------------*/
FoamFile
{
    format      ascii;
    class       volVectorField;
    location    "2.75";
    object      U;
}
// * * * * * * * * * * * * * * * * * * * * * * * * * * * * * * * * * * * * * //

dimensions      [0 1 -1 0 0 0 0];

internalField   nonuniform List<vector> 
1240
(
(-0.0109082 -0.000438255 0)
(-0.00941627 -0.000458257 0)
(-0.00787737 -0.000470192 0)
(-0.00631554 -0.000473652 0)
(-0.00475553 -0.000468486 0)
(-0.00322214 -0.00045482 0)
(-0.00173949 -0.000433066 0)
(-0.000330283 -0.000403929 0)
(0.000984649 -0.000368386 0)
(0.00218725 -0.000327448 0)
(0.00326276 -0.000282515 0)
(0.00419978 -0.000234934 0)
(0.0049908 -0.000186195 0)
(0.00563229 -0.000137643 0)
(0.00612442 -9.05606e-05 0)
(0.00647095 -4.60911e-05 0)
(0.00667881 -5.17054e-06 0)
(0.00675764 3.14881e-05 0)
(0.00671923 6.34035e-05 0)
(0.00657686 9.03343e-05 0)
(0.0063447 0.000112254 0)
(0.00603727 0.000129325 0)
(0.00566881 0.000141878 0)
(0.0052529 0.000150368 0)
(0.00480203 0.000155336 0)
(0.00432738 0.000157368 0)
(0.0038387 0.000157043 0)
(0.00334431 0.000154883 0)
(0.00285137 0.000151282 0)
(0.00236626 0.000146421 0)
(0.00189528 0.000140165 0)
(0.00144555 0.000131916 0)
(0.00102632 0.000120461 0)
(0.000650387 0.000103847 0)
(0.000335182 7.95415e-05 0)
(0.000101993 4.53309e-05 0)
(-2.51322e-05 2.72304e-06 0)
(-2.95019e-05 -2.97402e-05 0)
(-0.0310541 -0.00277215 0)
(-0.0272763 -0.00288134 0)
(-0.0233913 -0.00294712 0)
(-0.019452 -0.00296763 0)
(-0.0155132 -0.00294212 0)
(-0.0116296 -0.00287113 0)
(-0.00785486 -0.00275643 0)
(-0.00424035 -0.00260111 0)
(-0.000833569 -0.00240947 0)
(0.00232288 -0.00218667 0)
(0.00519264 -0.00193883 0)
(0.0077462 -0.00167246 0)
(0.00996181 -0.00139514 0)
(0.0118261 -0.00111369 0)
(0.0133335 -0.000834934 0)
(0.0144866 -0.000565251 0)
(0.0152955 -0.000310225 0)
(0.015777 -7.4499e-05 0)
(0.0159535 0.000138342 0)
(0.0158522 0.000325833 0)
(0.0155034 0.000486671 0)
(0.0149394 0.000620564 0)
(0.0141933 0.000728191 0)
(0.0132977 0.000811031 0)
(0.0122842 0.000871165 0)
(0.011182 0.00091104 0)
(0.0100179 0.000933203 0)
(0.00881633 0.000939988 0)
(0.00759925 0.000933154 0)
(0.0063874 0.000913475 0)
(0.00520127 0.00088029 0)
(0.00406289 0.00083106 0)
(0.00299774 0.000761035 0)
(0.00203671 0.000663372 0)
(0.00121646 0.00053049 0)
(0.000576343 0.000357813 0)
(0.000157337 0.000153733 0)
(4.21094e-06 -2.4904e-05 0)
(-0.0502528 -0.0074426 0)
(-0.04476 -0.00771377 0)
(-0.0391186 -0.00787932 0)
(-0.033397 -0.007935 0)
(-0.0276657 -0.00787903 0)
(-0.0219959 -0.00771229 0)
(-0.0164579 -0.00743843 0)
(-0.0111196 -0.00706388 0)
(-0.00604508 -0.00659776 0)
(-0.00129299 -0.00605164 0)
(0.00308507 -0.00543897 0)
(0.00704462 -0.0047741 0)
(0.010551 -0.0040749 0)
(0.01358 -0.00335723 0)
(0.0161168 -0.00263758 0)
(0.018157 -0.0019318 0)
(0.0197066 -0.00125426 0)
(0.020781 -0.000617489 0)
(0.0214041 -3.17527e-05 0)
(0.0216072 0.000495153 0)
(0.0214271 0.000958121 0)
(0.0209051 0.00135453 0)
(0.0200852 0.00168423 0)
(0.0190122 0.00194915 0)
(0.0177309 0.00215294 0)
(0.0162845 0.00230035 0)
(0.014714 0.00239665 0)
(0.0130578 0.0024468 0)
(0.011352 0.00245462 0)
(0.00963107 0.0024218 0)
(0.00792908 0.00234705 0)
(0.00628147 0.00222526 0)
(0.00472698 0.00204724 0)
(0.00330936 0.00180064 0)
(0.00207709 0.00147317 0)
(0.00107917 0.00105968 0)
(0.000372316 0.00057686 0)
(4.99231e-05 0.000107493 0)
(-0.0693181 -0.0135758 0)
(-0.0625608 -0.0140501 0)
(-0.0556185 -0.0143465 0)
(-0.0485663 -0.0144578 0)
(-0.0414821 -0.0143808 0)
(-0.0344447 -0.0141162 0)
(-0.0275331 -0.013669 0)
(-0.0208248 -0.0130484 0)
(-0.0143939 -0.0122682 0)
(-0.00830993 -0.0113458 0)
(-0.00263513 -0.0103023 0)
(0.00257318 -0.0091618 0)
(0.00726865 -0.00795024 0)
(0.0114168 -0.00669508 0)
(0.0149913 -0.00542383 0)
(0.0179781 -0.00416357 0)
(0.0203746 -0.00293946 0)
(0.0221897 -0.00177416 0)
(0.0234423 -0.000687086 0)
(0.0241613 0.000306168 0)
(0.0243832 0.00119408 0)
(0.0241515 0.00196961 0)
(0.0235144 0.00262971 0)
(0.0225233 0.00317508 0)
(0.0212311 0.00360957 0)
(0.0196906 0.00393934 0)
(0.0179538 0.00417172 0)
(0.0160706 0.00431401 0)
(0.0140894 0.00437199 0)
(0.0120567 0.00434844 0)
(0.0100189 0.00424171 0)
(0.00802302 0.00404465 0)
(0.00611877 0.00374435 0)
(0.00436015 0.0033237 0)
(0.00280511 0.00276582 0)
(0.00151194 0.00206283 0)
(0.000557035 0.0012317 0)
(8.80353e-05 0.000354032 0)
(-0.0889837 -0.0207307 0)
(-0.0813013 -0.0214451 0)
(-0.0733928 -0.0219067 0)
(-0.0653349 -0.022105 0)
(-0.0572079 -0.0220343 0)
(-0.049094 -0.0216942 0)
(-0.0410766 -0.02109 0)
(-0.0332389 -0.0202331 0)
(-0.0256619 -0.0191403 0)
(-0.0184228 -0.0178343 0)
(-0.0115938 -0.0163427 0)
(-0.00524084 -0.0146985 0)
(0.000579013 -0.0129356 0)
(0.00581912 -0.0110928 0)
(0.0104423 -0.00920862 0)
(0.0144236 -0.00732229 0)
(0.01775 -0.00547054 0)
(0.0204205 -0.00368761 0)
(0.0224461 -0.00200376 0)
(0.0238485 -0.000444386 0)
(0.0246599 0.000970539 0)
(0.024921 0.00222707 0)
(0.0246795 0.00331711 0)
(0.0239885 0.00423793 0)
(0.0229047 0.00499165 0)
(0.021487 0.0055841 0)
(0.0197946 0.00602339 0)
(0.0178866 0.00631815 0)
(0.015821 0.00647558 0)
(0.0136549 0.00649938 0)
(0.0114448 0.00638782 0)
(0.00924819 0.00613228 0)
(0.00712428 0.00571698 0)
(0.00513631 0.00512048 0)
(0.00335143 0.00432041 0)
(0.00183841 0.00330199 0)
(0.000694163 0.00207201 0)
(0.000114919 0.00068895 0)
(-0.109771 -0.028643 0)
(-0.101408 -0.0296424 0)
(-0.0927686 -0.0303147 0)
(-0.0839273 -0.0306449 0)
(-0.0749647 -0.0306241 0)
(-0.0659645 -0.0302497 0)
(-0.057013 -0.0295262 0)
(-0.0481971 -0.0284652 0)
(-0.0396033 -0.0270859 0)
(-0.031316 -0.0254147 0)
(-0.0234154 -0.0234847 0)
(-0.0159762 -0.0213356 0)
(-0.00906565 -0.0190108 0)
(-0.00274141 -0.0165584 0)
(0.00294796 -0.0140285 0)
(0.00796595 -0.0114715 0)
(0.0122888 -0.00893682 0)
(0.0159046 -0.00647097 0)
(0.0188141 -0.00411625 0)
(0.0210304 -0.00190935 0)
(0.0225782 0.000119633 0)
(0.0234927 0.00194769 0)
(0.0238178 0.00355955 0)
(0.0236049 0.00494685 0)
(0.0229116 0.00610785 0)
(0.0217991 0.00704609 0)
(0.0203313 0.00776871 0)
(0.0185733 0.00828434 0)
(0.0165908 0.00860063 0)
(0.014449 0.0087217 0)
(0.0122136 0.00864565 0)
(0.00995081 0.00836269 0)
(0.00772862 0.00785443 0)
(0.00561911 0.00709499 0)
(0.00369883 0.00605496 0)
(0.00204756 0.00470849 0)
(0.000780628 0.00304406 0)
(0.000130969 0.0010845 0)
(-0.131919 -0.0371078 0)
(-0.123051 -0.0384478 0)
(-0.113843 -0.0393884 0)
(-0.104369 -0.0399096 0)
(-0.0947076 -0.0399977 0)
(-0.0849431 -0.0396464 0)
(-0.0751638 -0.0388579 0)
(-0.0654604 -0.0376428 0)
(-0.0559245 -0.0360211 0)
(-0.046647 -0.0340216 0)
(-0.0377163 -0.0316817 0)
(-0.0292162 -0.0290468 0)
(-0.0212239 -0.0261685 0)
(-0.0138085 -0.0231042 0)
(-0.00702935 -0.0199148 0)
(-0.000934507 -0.0166619 0)
(0.00444041 -0.0134078 0)
(0.00907242 -0.0102119 0)
(0.0129518 -0.00712912 0)
(0.016082 -0.00420867 0)
(0.0184791 -0.00149224 0)
(0.0201711 0.000986706 0)
(0.0211965 0.00320334 0)
(0.0216029 0.00514205 0)
(0.0214461 0.00679514 0)
(0.0207875 0.0081618 0)
(0.0196931 0.00924636 0)
(0.0182321 0.0100558 0)
(0.0164752 0.0105971 0)
(0.0144945 0.0108737 0)
(0.0123628 0.0108833 0)
(0.0101542 0.0106147 0)
(0.00794477 0.0100467 0)
(0.0058151 0.0091484 0)
(0.00385088 0.00788201 0)
(0.00214239 0.00620754 0)
(0.00081944 0.00409054 0)
(0.000137618 0.00151313 0)
(-0.155386 -0.0459719 0)
(-0.146146 -0.0477187 0)
(-0.136492 -0.0489975 0)
(-0.126496 -0.0497813 0)
(-0.116235 -0.0500505 0)
(-0.105792 -0.0497936 0)
(-0.0952574 -0.0490087 0)
(-0.0847253 -0.0477039 0)
(-0.0742924 -0.0458981 0)
(-0.0640566 -0.0436212 0)
(-0.0541144 -0.0409136 0)
(-0.0445595 -0.0378253 0)
(-0.0354798 -0.0344154 0)
(-0.0269558 -0.0307497 0)
(-0.0190587 -0.0268994 0)
(-0.0118486 -0.0229382 0)
(-0.00537296 -0.0189407 0)
(0.000333785 -0.0149796 0)
(0.00525117 -0.0111235 0)
(0.00937269 -0.00743482 0)
(0.0127055 -0.00396809 0)
(0.0152695 -0.000768595 0)
(0.0170972 0.00212806 0)
(0.0182317 0.00469691 0)
(0.0187252 0.00692251 0)
(0.0186379 0.00879787 0)
(0.0180363 0.0103227 0)
(0.0169915 0.0115006 0)
(0.0155781 0.0123364 0)
(0.013873 0.0128322 0)
(0.0119552 0.012984 0)
(0.00990545 0.0127787 0)
(0.0078073 0.0121919 0)
(0.00574908 0.0111874 0)
(0.00382496 0.00971758 0)
(0.00213429 0.00772719 0)
(0.000816561 0.00515742 0)
(0.000136538 0.00195029 0)
(-0.197192 -0.0492276 0)
(-0.188845 -0.0523934 0)
(-0.179901 -0.0551132 0)
(-0.170405 -0.0573416 0)
(-0.160416 -0.0590379 0)
(-0.149999 -0.0601669 0)
(-0.139228 -0.0607012 0)
(-0.128185 -0.0606225 0)
(-0.116961 -0.0599227 0)
(-0.105652 -0.0586054 0)
(-0.094361 -0.0566869 0)
(-0.0831919 -0.0541961 0)
(-0.0722504 -0.0511748 0)
(-0.0616405 -0.047677 0)
(-0.0514618 -0.0437674 0)
(-0.0418077 -0.0395203 0)
(-0.0327622 -0.0350168 0)
(-0.0243985 -0.0303426 0)
(-0.0167769 -0.0255853 0)
(-0.00994397 -0.0208315 0)
(-0.00393138 -0.0161639 0)
(0.00124406 -0.0116594 0)
(0.0055804 -0.0073864 0)
(0.00908986 -0.00340328 0)
(0.0117982 0.000242563 0)
(0.0137434 0.00351498 0)
(0.0149741 0.00638923 0)
(0.0155484 0.00885048 0)
(0.0155321 0.0108921 0)
(0.0149976 0.012513 0)
(0.0140216 0.0137142 0)
(0.0126852 0.0144951 0)
(0.0110721 0.0148491 0)
(0.00926902 0.0147607 0)
(0.00736595 0.0142015 0)
(0.00545824 0.0131293 0)
(0.00364725 0.0114869 0)
(0.00203949 0.00920355 0)
(0.000779425 0.00619763 0)
(0.00012942 0.00237548 0)
(-0.236922 -0.0484061 0)
(-0.230004 -0.0530232 0)
(-0.222367 -0.0572683 0)
(-0.214033 -0.0610842 0)
(-0.205033 -0.0644143 0)
(-0.195406 -0.0672046 0)
(-0.1852 -0.0694047 0)
(-0.174474 -0.0709702 0)
(-0.163296 -0.0718642 0)
(-0.151746 -0.0720592 0)
(-0.139912 -0.0715391 0)
(-0.127893 -0.0703006 0)
(-0.115795 -0.0683548 0)
(-0.103728 -0.0657275 0)
(-0.0918066 -0.06246 0)
(-0.0801467 -0.0586083 0)
(-0.0688609 -0.0542422 0)
(-0.0580564 -0.0494431 0)
(-0.0478322 -0.0443021 0)
(-0.0382766 -0.0389171 0)
(-0.0294643 -0.033389 0)
(-0.0214556 -0.0278193 0)
(-0.0142947 -0.0223061 0)
(-0.00800949 -0.0169418 0)
(-0.00261143 -0.0118099 0)
(0.00190371 -0.0069833 0)
(0.00555506 -0.00252289 0)
(0.00837558 0.00152307 0)
(0.0104103 0.00511885 0)
(0.0117151 0.00824048 0)
(0.012355 0.0108736 0)
(0.0124027 0.0130108 0)
(0.0119371 0.014648 0)
(0.0110422 0.0157806 0)
(0.00980581 0.0163988 0)
(0.00831976 0.0164832 0)
(0.00667979 0.0160014 0)
(0.00498715 0.0149049 0)
(0.00334898 0.013127 0)
(0.00187688 0.0105835 0)
(0.000716186 0.0071728 0)
(0.000117944 0.0027726 0)
(-0.261464 -0.0548622 0)
(-0.254788 -0.0602269 0)
(-0.247352 -0.0652053 0)
(-0.239167 -0.069733 0)
(-0.230253 -0.0737453 0)
(-0.220636 -0.0771788 0)
(-0.210356 -0.0799732 0)
(-0.199459 -0.0820731 0)
(-0.188007 -0.0834304 0)
(-0.176072 -0.0840064 0)
(-0.163739 -0.0837742 0)
(-0.151105 -0.0827209 0)
(-0.138277 -0.0808496 0)
(-0.125371 -0.0781802 0)
(-0.112512 -0.0747507 0)
(-0.0998238 -0.0706168 0)
(-0.0874348 -0.0658514 0)
(-0.0754679 -0.0605421 0)
(-0.0640394 -0.0547895 0)
(-0.0532549 -0.0487034 0)
(-0.0432067 -0.0423993 0)
(-0.0339713 -0.0359943 0)
(-0.0256076 -0.0296038 0)
(-0.0181566 -0.023337 0)
(-0.0116405 -0.0172945 0)
(-0.00606373 -0.0115654 0)
(-0.00141404 -0.0062257 0)
(0.00233642 -0.00133724 0)
(0.00522946 0.00305196 0)
(0.0073191 0.00690731 0)
(0.00866974 0.0102054 0)
(0.00935472 0.0129312 0)
(0.00945471 0.0150746 0)
(0.00905643 0.0166258 0)
(0.00825164 0.0175706 0)
(0.00713653 0.0178854 0)
(0.00581178 0.0175332 0)
(0.0043836 0.0164592 0)
(0.00296349 0.0145888 0)
(0.00166631 0.0118261 0)
(0.000635183 0.00805418 0)
(0.000103738 0.00313014 0)
(-0.284928 -0.0610045 0)
(-0.278619 -0.0671472 0)
(-0.271522 -0.0729005 0)
(-0.263636 -0.0781938 0)
(-0.254966 -0.0829544 0)
(-0.245527 -0.0871097 0)
(-0.235342 -0.0905888 0)
(-0.224446 -0.0933243 0)
(-0.212889 -0.0952554 0)
(-0.200731 -0.0963299 0)
(-0.188049 -0.0965075 0)
(-0.174936 -0.0957626 0)
(-0.161496 -0.0940865 0)
(-0.14785 -0.0914897 0)
(-0.134126 -0.0880034 0)
(-0.120461 -0.0836798 0)
(-0.106997 -0.0785919 0)
(-0.0938733 -0.0728317 0)
(-0.0812263 -0.066508 0)
(-0.0691823 -0.0597423 0)
(-0.0578546 -0.0526652 0)
(-0.0473396 -0.0454111 0)
(-0.0377149 -0.038114 0)
(-0.0290372 -0.0309027 0)
(-0.0213422 -0.023897 0)
(-0.0146449 -0.0172047 0)
(-0.00894085 -0.0109188 0)
(-0.00420749 -0.00511706 0)
(-0.000406302 0.000138955 0)
(0.00251523 0.00480238 0)
(0.00462153 0.00883952 0)
(0.00598709 0.0122268 0)
(0.00669479 0.0149467 0)
(0.00683438 0.0169836 0)
(0.00650136 0.0183182 0)
(0.00579613 0.0189222 0)
(0.00482383 0.0187538 0)
(0.00369473 0.0177526 0)
(0.00252362 0.0158372 0)
(0.00142721 0.012903 0)
(0.000544427 0.00882277 0)
(8.83217e-05 0.00344106 0)
(-0.30665 -0.0667139 0)
(-0.300834 -0.0736491 0)
(-0.294219 -0.0802045 0)
(-0.286791 -0.0863039 0)
(-0.27854 -0.0918681 0)
(-0.269465 -0.0968156 0)
(-0.259573 -0.101065 0)
(-0.248883 -0.104536 0)
(-0.237425 -0.107154 0)
(-0.225247 -0.108852 0)
(-0.212414 -0.109574 0)
(-0.199006 -0.109276 0)
(-0.185122 -0.107936 0)
(-0.170881 -0.10555 0)
(-0.156413 -0.102137 0)
(-0.141865 -0.0977419 0)
(-0.127389 -0.0924341 0)
(-0.113144 -0.0863065 0)
(-0.0992875 -0.0794736 0)
(-0.0859687 -0.0720678 0)
(-0.0733261 -0.0642345 0)
(-0.0614809 -0.0561266 0)
(-0.0505339 -0.0478991 0)
(-0.0405625 -0.0397031 0)
(-0.03162 -0.0316807 0)
(-0.0237351 -0.0239613 0)
(-0.0169133 -0.0166584 0)
(-0.011139 -0.00986788 0)
(-0.00637728 -0.00366748 0)
(-0.00257701 0.00188214 0)
(0.000326795 0.00673555 0)
(0.00241059 0.0108594 0)
(0.00376019 0.0142282 0)
(0.00446904 0.0168196 0)
(0.00463676 0.0186087 0)
(0.00436813 0.0195625 0)
(0.00377253 0.0196343 0)
(0.00296388 0.0187592 0)
(0.00205953 0.0168504 0)
(0.00117728 0.013798 0)
(0.000451144 0.00946877 0)
(7.30321e-05 0.00370246 0)
(-0.325989 -0.071875 0)
(-0.320784 -0.079598 0)
(-0.31479 -0.0869634 0)
(-0.307979 -0.0938916 0)
(-0.300327 -0.100298 0)
(-0.291815 -0.106094 0)
(-0.28243 -0.111187 0)
(-0.272171 -0.115487 0)
(-0.26105 -0.118903 0)
(-0.249094 -0.121352 0)
(-0.236349 -0.122758 0)
(-0.222879 -0.123061 0)
(-0.208773 -0.122216 0)
(-0.194137 -0.120201 0)
(-0.179103 -0.117019 0)
(-0.163818 -0.112702 0)
(-0.148445 -0.107309 0)
(-0.133159 -0.100928 0)
(-0.118138 -0.0936775 0)
(-0.103558 -0.0856969 0)
(-0.0895842 -0.0771458 0)
(-0.076369 -0.068196 0)
(-0.0640418 -0.0590252 0)
(-0.0527069 -0.0498097 0)
(-0.0424408 -0.0407181 0)
(-0.0332911 -0.0319056 0)
(-0.0252776 -0.0235098 0)
(-0.018394 -0.0156487 0)
(-0.0126108 -0.00841938 0)
(-0.00787891 -0.00189871 0)
(-0.00413258 0.00385426 0)
(-0.00129275 0.00879509 0)
(0.000730307 0.0128894 0)
(0.00203465 0.0161077 0)
(0.00272482 0.0184193 0)
(0.00291053 0.0197863 0)
(0.00270569 0.0201579 0)
(0.00222787 0.0194656 0)
(0.00159688 0.0176191 0)
(0.000931538 0.0145056 0)
(0.000361387 0.00999056 0)
(5.89661e-05 0.00391507 0)
(-0.342365 -0.0763856 0)
(-0.337871 -0.0848696 0)
(-0.332622 -0.0930306 0)
(-0.326575 -0.100788 0)
(-0.319693 -0.108054 0)
(-0.311937 -0.114734 0)
(-0.303276 -0.120728 0)
(-0.293687 -0.125934 0)
(-0.283157 -0.130248 0)
(-0.271691 -0.133569 0)
(-0.259309 -0.135802 0)
(-0.246055 -0.136864 0)
(-0.231996 -0.136687 0)
(-0.217224 -0.135225 0)
(-0.20186 -0.13246 0)
(-0.186048 -0.128401 0)
(-0.169955 -0.123091 0)
(-0.153766 -0.11661 0)
(-0.137678 -0.109071 0)
(-0.121892 -0.100616 0)
(-0.106607 -0.0914165 0)
(-0.0920058 -0.0816621 0)
(-0.0782548 -0.0715542 0)
(-0.0654917 -0.0612972 0)
(-0.0538238 -0.05109 0)
(-0.0433246 -0.0411186 0)
(-0.034034 -0.0315503 0)
(-0.0259601 -0.0225301 0)
(-0.0190822 -0.0141787 0)
(-0.013355 -0.00659289 0)
(-0.00871272 0.000151921 0)
(-0.00507351 0.00599841 0)
(-0.00234297 0.0109022 0)
(-0.000417346 0.014826 0)
(0.000813978 0.0177333 0)
(0.0014666 0.0195817 0)
(0.00165967 0.020317 0)
(0.00151506 0.0198681 0)
(0.00115552 0.0181432 0)
(0.000701563 0.015029 0)
(0.000279773 0.0103931 0)
(4.69379e-05 0.00408249 0)
(-0.355314 -0.0801671 0)
(-0.351603 -0.0893626 0)
(-0.347192 -0.0982806 0)
(-0.34203 -0.106842 0)
(-0.336062 -0.114958 0)
(-0.329237 -0.122533 0)
(-0.321501 -0.12946 0)
(-0.312809 -0.135628 0)
(-0.303125 -0.14092 0)
(-0.292424 -0.14522 0)
(-0.280699 -0.148412 0)
(-0.267967 -0.15039 0)
(-0.254267 -0.151059 0)
(-0.239667 -0.150347 0)
(-0.224269 -0.148203 0)
(-0.208204 -0.144612 0)
(-0.191634 -0.139593 0)
(-0.174747 -0.133205 0)
(-0.157755 -0.125549 0)
(-0.140881 -0.116764 0)
(-0.124352 -0.107027 0)
(-0.10839 -0.0965416 0)
(-0.093201 -0.0855326 0)
(-0.078963 -0.0742339 0)
(-0.0658226 -0.0628788 0)
(-0.053888 -0.0516893 0)
(-0.0432277 -0.0408689 0)
(-0.0338711 -0.0305958 0)
(-0.0258117 -0.0210204 0)
(-0.019012 -0.0122648 0)
(-0.0134082 -0.00442452 0)
(-0.00891644 0.0024274 0)
(-0.00543732 0.00823478 0)
(-0.00286048 0.0129518 0)
(-0.00106803 0.0165359 0)
(6.2823e-05 0.0189408 0)
(0.000657772 0.0201096 0)
(0.000844071 0.0199699 0)
(0.000748634 0.0184299 0)
(0.000495049 0.0153781 0)
(0.000209326 0.0106861 0)
(3.746e-05 0.00421036 0)
(-0.364525 -0.0831732 0)
(-0.361631 -0.0930094 0)
(-0.358114 -0.102622 0)
(-0.353916 -0.111937 0)
(-0.348971 -0.120867 0)
(-0.34321 -0.129317 0)
(-0.336566 -0.137178 0)
(-0.328971 -0.144333 0)
(-0.320363 -0.150656 0)
(-0.310689 -0.156016 0)
(-0.299913 -0.16028 0)
(-0.288017 -0.163316 0)
(-0.275007 -0.165004 0)
(-0.260921 -0.165238 0)
(-0.245831 -0.163936 0)
(-0.229844 -0.161046 0)
(-0.213106 -0.156555 0)
(-0.1958 -0.150493 0)
(-0.178139 -0.142938 0)
(-0.160364 -0.134018 0)
(-0.142727 -0.123903 0)
(-0.125487 -0.112808 0)
(-0.108891 -0.100976 0)
(-0.0931649 -0.0886692 0)
(-0.0785028 -0.0761586 0)
(-0.0650571 -0.0637074 0)
(-0.0529348 -0.0515617 0)
(-0.0421964 -0.0399411 0)
(-0.0328576 -0.0290335 0)
(-0.0248945 -0.0189929 0)
(-0.0182497 -0.00994079 0)
(-0.0128393 -0.00197031 0)
(-0.0085598 0.00484783 0)
(-0.00529379 0.0104578 0)
(-0.00291494 0.0148106 0)
(-0.0012918 0.0178562 0)
(-0.0002905 0.019536 0)
(0.000223302 0.0197775 0)
(0.000382458 0.0184904 0)
(0.000315669 0.0155662 0)
(0.000151448 0.0108823 0)
(3.07455e-05 0.00430547 0)
(-0.369872 -0.085396 0)
(-0.36779 -0.0957843 0)
(-0.36518 -0.106009 0)
(-0.361976 -0.116001 0)
(-0.358108 -0.12568 0)
(-0.353497 -0.134955 0)
(-0.34806 -0.143719 0)
(-0.341711 -0.151852 0)
(-0.334365 -0.159223 0)
(-0.325944 -0.165691 0)
(-0.316378 -0.171107 0)
(-0.305615 -0.175318 0)
(-0.293624 -0.178176 0)
(-0.280404 -0.179543 0)
(-0.265988 -0.179299 0)
(-0.25045 -0.177352 0)
(-0.233908 -0.173649 0)
(-0.216525 -0.16818 0)
(-0.198506 -0.16099 0)
(-0.180094 -0.152178 0)
(-0.161562 -0.141903 0)
(-0.143196 -0.130375 0)
(-0.125288 -0.11785 0)
(-0.108112 -0.104616 0)
(-0.0919164 -0.0909806 0)
(-0.0769084 -0.0772513 0)
(-0.0632443 -0.0637239 0)
(-0.0510269 -0.0506679 0)
(-0.0403049 -0.0383179 0)
(-0.0310768 -0.026869 0)
(-0.023298 -0.0164767 0)
(-0.0168892 -0.0072601 0)
(-0.0117446 0.000690992 0)
(-0.0077404 0.0073081 0)
(-0.00474117 0.0125346 0)
(-0.00260536 0.0163167 0)
(-0.00118912 0.0185948 0)
(-0.000348884 0.0192973 0)
(5.64323e-05 0.0183364 0)
(0.000163214 0.0156078 0)
(0.000105993 0.010995 0)
(2.67289e-05 0.00437492 0)
(-0.37143 -0.0868668 0)
(-0.370115 -0.0977061 0)
(-0.368376 -0.108442 0)
(-0.366148 -0.119016 0)
(-0.363357 -0.129356 0)
(-0.359918 -0.139377 0)
(-0.35574 -0.148978 0)
(-0.350723 -0.158044 0)
(-0.344764 -0.166441 0)
(-0.33776 -0.174023 0)
(-0.329614 -0.18063 0)
(-0.320237 -0.186093 0)
(-0.30956 -0.190238 0)
(-0.297539 -0.192897 0)
(-0.284163 -0.193911 0)
(-0.269461 -0.193144 0)
(-0.253512 -0.190496 0)
(-0.236444 -0.185908 0)
(-0.218439 -0.179379 0)
(-0.19973 -0.170968 0)
(-0.180593 -0.160805 0)
(-0.161335 -0.149083 0)
(-0.142284 -0.136058 0)
(-0.123763 -0.122036 0)
(-0.106077 -0.107357 0)
(-0.0894964 -0.0923739 0)
(-0.0742373 -0.0774375 0)
(-0.0604578 -0.0628752 0)
(-0.0482519 -0.0489789 0)
(-0.0376523 -0.0359957 0)
(-0.0286366 -0.0241251 0)
(-0.0211365 -0.0135212 0)
(-0.0150485 -0.0042991 0)
(-0.0102442 0.00345562 0)
(-0.0065794 0.00967636 0)
(-0.00390132 0.0143045 0)
(-0.00205429 0.0172799 0)
(-0.000883241 0.0185324 0)
(-0.000236166 0.0179776 0)
(3.39682e-05 0.015516 0)
(7.14528e-05 0.0110367 0)
(2.51048e-05 0.00442533 0)
(-0.369461 -0.0876524 0)
(-0.368833 -0.0988356 0)
(-0.367889 -0.109974 0)
(-0.366569 -0.12102 0)
(-0.364799 -0.131912 0)
(-0.362495 -0.142576 0)
(-0.359561 -0.152921 0)
(-0.35589 -0.162837 0)
(-0.351367 -0.172198 0)
(-0.345871 -0.180856 0)
(-0.33928 -0.188647 0)
(-0.331475 -0.195391 0)
(-0.322348 -0.200895 0)
(-0.311812 -0.204962 0)
(-0.299809 -0.207398 0)
(-0.286316 -0.208024 0)
(-0.27136 -0.206686 0)
(-0.255024 -0.203271 0)
(-0.23745 -0.197719 0)
(-0.218842 -0.190036 0)
(-0.199464 -0.180306 0)
(-0.179628 -0.168689 0)
(-0.159686 -0.155424 0)
(-0.140002 -0.140822 0)
(-0.120939 -0.125244 0)
(-0.102831 -0.109087 0)
(-0.0859665 -0.0927572 0)
(-0.0705694 -0.0766479 0)
(-0.0567938 -0.0611183 0)
(-0.0447201 -0.0464799 0)
(-0.0343602 -0.0329888 0)
(-0.0256666 -0.0208453 0)
(-0.0185446 -0.0101992 0)
(-0.0128652 -0.00115956 0)
(-0.00847693 0.00619267 0)
(-0.00521568 0.0117922 0)
(-0.00291239 0.0155772 0)
(-0.00139812 0.0174796 0)
(-0.000507163 0.0174189 0)
(-7.86799e-05 0.0153001 0)
(4.51784e-05 0.0110171 0)
(2.53833e-05 0.00446213 0)
(-0.364384 -0.0878475 0)
(-0.364338 -0.0992686 0)
(-0.364081 -0.110698 0)
(-0.36356 -0.122099 0)
(-0.362708 -0.133425 0)
(-0.361445 -0.144612 0)
(-0.359676 -0.155582 0)
(-0.357295 -0.166239 0)
(-0.354181 -0.176464 0)
(-0.350201 -0.186118 0)
(-0.345216 -0.195037 0)
(-0.339083 -0.203038 0)
(-0.331662 -0.209917 0)
(-0.322825 -0.215455 0)
(-0.312464 -0.219428 0)
(-0.300505 -0.221614 0)
(-0.286917 -0.22181 0)
(-0.271722 -0.21984 0)
(-0.25501 -0.215581 0)
(-0.236938 -0.208972 0)
(-0.217739 -0.200032 0)
(-0.19771 -0.18887 0)
(-0.177208 -0.17569 0)
(-0.156628 -0.160785 0)
(-0.136379 -0.144527 0)
(-0.116861 -0.127344 0)
(-0.0984372 -0.109695 0)
(-0.08141 -0.0920428 0)
(-0.0660067 -0.074823 0)
(-0.0523708 -0.0584245 0)
(-0.0405633 -0.0431745 0)
(-0.0305698 -0.0293334 0)
(-0.0223141 -0.0170979 0)
(-0.015673 -0.00661019 0)
(-0.0104909 0.00202802 0)
(-0.00659334 0.00874075 0)
(-0.00379713 0.0134628 0)
(-0.00191744 0.0161276 0)
(-0.000772126 0.0166582 0)
(-0.000183477 0.0149639 0)
(2.36905e-05 0.0109425 0)
(2.69581e-05 0.00448913 0)
(-0.356728 -0.0875643 0)
(-0.357143 -0.0991249 0)
(-0.357444 -0.110738 0)
(-0.357587 -0.12238 0)
(-0.357514 -0.134016 0)
(-0.357154 -0.145598 0)
(-0.356419 -0.157062 0)
(-0.355208 -0.168327 0)
(-0.353402 -0.179289 0)
(-0.350867 -0.189821 0)
(-0.347453 -0.199768 0)
(-0.343001 -0.208951 0)
(-0.337348 -0.217163 0)
(-0.330331 -0.224173 0)
(-0.321799 -0.229734 0)
(-0.311624 -0.233591 0)
(-0.299716 -0.235491 0)
(-0.286032 -0.2352 0)
(-0.270596 -0.232525 0)
(-0.253502 -0.227328 0)
(-0.234931 -0.219552 0)
(-0.215146 -0.209234 0)
(-0.194485 -0.196518 0)
(-0.173352 -0.181658 0)
(-0.152191 -0.165013 0)
(-0.131459 -0.147028 0)
(-0.111593 -0.128206 0)
(-0.0929793 -0.109074 0)
(-0.0759319 -0.0901524 0)
(-0.0606727 -0.0719181 0)
(-0.0473279 -0.0547851 0)
(-0.0359317 -0.0390904 0)
(-0.0264386 -0.0250927 0)
(-0.0187403 -0.0129804 0)
(-0.0126828 -0.00288538 0)
(-0.00808382 0.00509947 0)
(-0.00474641 0.010902 0)
(-0.00246845 0.0144552 0)
(-0.00104892 0.0156852 0)
(-0.000290292 0.0145048 0)
(3.16221e-06 0.0108141 0)
(2.91064e-05 0.00450812 0)
(-0.347072 -0.0869214 0)
(-0.347827 -0.0985355 0)
(-0.34855 -0.110237 0)
(-0.349207 -0.122014 0)
(-0.349754 -0.133843 0)
(-0.350129 -0.145692 0)
(-0.350259 -0.157514 0)
(-0.350052 -0.169243 0)
(-0.349397 -0.180796 0)
(-0.348165 -0.19206 0)
(-0.346208 -0.202898 0)
(-0.343359 -0.213141 0)
(-0.33944 -0.22259 0)
(-0.334265 -0.231011 0)
(-0.327647 -0.238145 0)
(-0.319412 -0.243712 0)
(-0.309411 -0.247419 0)
(-0.297537 -0.248981 0)
(-0.283738 -0.248133 0)
(-0.268037 -0.244658 0)
(-0.250543 -0.23841 0)
(-0.23146 -0.229337 0)
(-0.211087 -0.217501 0)
(-0.189812 -0.203091 0)
(-0.168091 -0.186428 0)
(-0.146421 -0.167946 0)
(-0.125306 -0.148175 0)
(-0.105219 -0.127701 0)
(-0.0865648 -0.107125 0)
(-0.06966 -0.0870233 0)
(-0.0547127 -0.0679103 0)
(-0.0418229 -0.0502178 0)
(-0.0309912 -0.0342852 0)
(-0.0221358 -0.0203629 0)
(-0.0151128 -0.00862613 0)
(-0.00973698 0.000805979 0)
(-0.00579901 0.00784853 0)
(-0.00307924 0.0124309 0)
(-0.00135602 0.0144806 0)
(-0.000409397 0.0139127 0)
(-2.03724e-05 0.0106281 0)
(3.1144e-05 0.00451875 0)
(-0.336001 -0.086033 0)
(-0.336978 -0.0976311 0)
(-0.33799 -0.109341 0)
(-0.339013 -0.12116 0)
(-0.340014 -0.133078 0)
(-0.340947 -0.145076 0)
(-0.341752 -0.157123 0)
(-0.342352 -0.169173 0)
(-0.342651 -0.181161 0)
(-0.342531 -0.192997 0)
(-0.341852 -0.204563 0)
(-0.340452 -0.21571 0)
(-0.338148 -0.226252 0)
(-0.334741 -0.235965 0)
(-0.330019 -0.24459 0)
(-0.323773 -0.251834 0)
(-0.315805 -0.257378 0)
(-0.305943 -0.26089 0)
(-0.294064 -0.262044 0)
(-0.280109 -0.260546 0)
(-0.264103 -0.256153 0)
(-0.246174 -0.248713 0)
(-0.226556 -0.238187 0)
(-0.205593 -0.224672 0)
(-0.183726 -0.208418 0)
(-0.161471 -0.189822 0)
(-0.13938 -0.169413 0)
(-0.118004 -0.147816 0)
(-0.0978462 -0.125708 0)
(-0.0793239 -0.103765 0)
(-0.0627443 -0.0826166 0)
(-0.0482914 -0.0628062 0)
(-0.0360295 -0.0447748 0)
(-0.0259184 -0.0288546 0)
(-0.0178354 -0.015281 0)
(-0.011599 -0.00421207 0)
(-0.00699153 0.00424585 0)
(-0.00377664 0.0100133 0)
(-0.00171112 0.0130162 0)
(-0.000550603 0.0131704 0)
(-5.06303e-05 0.0103759 0)
(3.24799e-05 0.00451855 0)
(-0.324049 -0.0850011 0)
(-0.325149 -0.0965313 0)
(-0.32633 -0.108187 0)
(-0.32758 -0.119974 0)
(-0.328879 -0.131893 0)
(-0.330195 -0.143937 0)
(-0.331483 -0.156091 0)
(-0.332685 -0.168327 0)
(-0.333722 -0.180599 0)
(-0.334492 -0.192842 0)
(-0.334871 -0.204961 0)
(-0.334709 -0.216831 0)
(-0.33383 -0.22829 0)
(-0.332033 -0.239131 0)
(-0.329097 -0.249107 0)
(-0.324787 -0.257925 0)
(-0.318867 -0.265254 0)
(-0.311114 -0.270731 0)
(-0.301334 -0.273982 0)
(-0.28939 -0.274638 0)
(-0.275218 -0.272367 0)
(-0.258851 -0.266909 0)
(-0.240439 -0.258107 0)
(-0.220256 -0.245945 0)
(-0.198699 -0.23057 0)
(-0.176271 -0.212307 0)
(-0.15355 -0.191651 0)
(-0.131149 -0.169239 0)
(-0.109659 -0.145805 0)
(-0.0896074 -0.122122 0)
(-0.0714111 -0.0989372 0)
(-0.0553563 -0.0769263 0)
(-0.0415904 -0.0566519 0)
(-0.0301324 -0.0385516 0)
(-0.0208945 -0.0229412 0)
(-0.0137092 -0.0100346 0)
(-0.00835596 2.85156e-05 0)
(-0.0045844 0.00715208 0)
(-0.00212992 0.0112559 0)
(-0.000722566 0.0122541 0)
(-9.09324e-05 0.0100441 0)
(3.25179e-05 0.0045032 0)
(-0.311679 -0.0839102 0)
(-0.312818 -0.0953384 0)
(-0.314069 -0.106897 0)
(-0.315428 -0.118598 0)
(-0.316886 -0.130449 0)
(-0.318426 -0.142456 0)
(-0.32002 -0.154616 0)
(-0.321624 -0.166919 0)
(-0.323181 -0.179338 0)
(-0.32461 -0.19183 0)
(-0.325807 -0.204328 0)
(-0.32664 -0.216733 0)
(-0.326949 -0.228911 0)
(-0.326544 -0.240684 0)
(-0.325203 -0.251825 0)
(-0.322684 -0.262056 0)
(-0.318727 -0.271047 0)
(-0.313068 -0.278424 0)
(-0.305459 -0.283775 0)
(-0.295686 -0.286675 0)
(-0.283597 -0.286711 0)
(-0.269128 -0.283515 0)
(-0.252327 -0.276807 0)
(-0.233376 -0.266439 0)
(-0.212596 -0.252429 0)
(-0.190447 -0.234992 0)
(-0.167502 -0.214551 0)
(-0.144408 -0.191717 0)
(-0.121832 -0.167254 0)
(-0.100404 -0.142013 0)
(-0.0806602 -0.116863 0)
(-0.0630045 -0.0926202 0)
(-0.0476865 -0.0699913 0)
(-0.0348042 -0.0495437 0)
(-0.0243217 -0.0316984 0)
(-0.0160979 -0.0167461 0)
(-0.00991811 -0.0048756 0)
(-0.00552204 0.00378952 0)
(-0.00262544 0.00915649 0)
(-0.000932427 0.0111342 0)
(-0.000143898 0.00961525 0)
(3.08691e-05 0.00446687 0)
(-0.299255 -0.0828246 0)
(-0.300373 -0.0941326 0)
(-0.301616 -0.105568 0)
(-0.30299 -0.117147 0)
(-0.304495 -0.128883 0)
(-0.306125 -0.140791 0)
(-0.307867 -0.15288 0)
(-0.309696 -0.165151 0)
(-0.311573 -0.177598 0)
(-0.313439 -0.1902 0)
(-0.315213 -0.202914 0)
(-0.316788 -0.215671 0)
(-0.318026 -0.228368 0)
(-0.318754 -0.240859 0)
(-0.318766 -0.25295 0)
(-0.317822 -0.264387 0)
(-0.315655 -0.274859 0)
(-0.311977 -0.283993 0)
(-0.306499 -0.291363 0)
(-0.298945 -0.296505 0)
(-0.289082 -0.298937 0)
(-0.27675 -0.298197 0)
(-0.261889 -0.293883 0)
(-0.244571 -0.285703 0)
(-0.225018 -0.273527 0)
(-0.203612 -0.257428 0)
(-0.180886 -0.237714 0)
(-0.15749 -0.214926 0)
(-0.134141 -0.189819 0)
(-0.111558 -0.163296 0)
(-0.0903971 -0.136334 0)
(-0.071189 -0.109894 0)
(-0.0543044 -0.0848442 0)
(-0.039941 -0.0619082 0)
(-0.0281344 -0.0416401 0)
(-0.0187857 -0.024432 0)
(-0.0116968 -0.0105428 0)
(-0.00660438 -0.000137457 0)
(-0.00320767 0.00666946 0)
(-0.00118564 0.00977653 0)
(-0.000211476 0.00906903 0)
(2.72651e-05 0.0044025 0)
(-0.287044 -0.0817885 0)
(-0.288099 -0.0929718 0)
(-0.289281 -0.104274 0)
(-0.290601 -0.115712 0)
(-0.292067 -0.127306 0)
(-0.293683 -0.139074 0)
(-0.295448 -0.151035 0)
(-0.297353 -0.163201 0)
(-0.299376 -0.175583 0)
(-0.301481 -0.188176 0)
(-0.303611 -0.200963 0)
(-0.305684 -0.213904 0)
(-0.307589 -0.226928 0)
(-0.309179 -0.239925 0)
(-0.310271 -0.252737 0)
(-0.31064 -0.265148 0)
(-0.310026 -0.276875 0)
(-0.308135 -0.287566 0)
(-0.304652 -0.296798 0)
(-0.299258 -0.304088 0)
(-0.291654 -0.308909 0)
(-0.28159 -0.310719 0)
(-0.2689 -0.309006 0)
(-0.253539 -0.303336 0)
(-0.235611 -0.293417 0)
(-0.215394 -0.279155 0)
(-0.193344 -0.260702 0)
(-0.170076 -0.238487 0)
(-0.146324 -0.213202 0)
(-0.122873 -0.185765 0)
(-0.100487 -0.157233 0)
(-0.079829 -0.128708 0)
(-0.061404 -0.101231 0)
(-0.0455301 -0.0757042 0)
(-0.0323357 -0.0528445 0)
(-0.0217828 -0.0331757 0)
(-0.0137038 -0.0170508 0)
(-0.00784155 -0.00469532 0)
(-0.00388368 0.00374237 0)
(-0.00148608 0.00814347 0)
(-0.000295009 0.00838267 0)
(2.15392e-05 0.0043022 0)
(-0.275217 -0.0808278 0)
(-0.276187 -0.0918922 0)
(-0.277275 -0.103062 0)
(-0.278497 -0.114357 0)
(-0.279866 -0.125797 0)
(-0.281393 -0.137404 0)
(-0.283088 -0.149203 0)
(-0.284953 -0.161215 0)
(-0.286985 -0.17346 0)
(-0.289164 -0.185954 0)
(-0.291458 -0.198698 0)
(-0.293811 -0.211679 0)
(-0.296139 -0.224857 0)
(-0.298326 -0.23816 0)
(-0.300219 -0.251469 0)
(-0.301618 -0.264611 0)
(-0.302282 -0.277344 0)
(-0.301925 -0.289348 0)
(-0.300227 -0.300225 0)
(-0.296842 -0.309492 0)
(-0.291423 -0.316601 0)
(-0.283647 -0.320954 0)
(-0.273252 -0.321946 0)
(-0.260075 -0.319013 0)