/*--------------------------------*- C++ -*----------------------------------*\
  =========                 |
  \\      /  F ield         | OpenFOAM: The Open Source CFD Toolbox
   \\    /   O peration     | Website:  https://openfoam.org
    \\  /    A nd           | Version:  9
     \\/     M anipulation  |
\*---------------------------------------------------------------------------*/
FoamFile
{
    format      ascii;
    class       volScalarField;
    location    "3.5";
    object      p;
}
// * * * * * * * * * * * * * * * * * * * * * * * * * * * * * * * * * * * * * //

dimensions      [0 2 -2 0 0 0 0];

internalField   nonuniform List<scalar> 
1250
(
-3.12391e-09
2.07971e-05
3.33136e-05
3.30027e-05
1.58411e-05
-1.94847e-05
-7.23932e-05
-0.000141429
-0.000224804
-0.00032072
-0.00042757
-0.000544038
-0.00066917
-0.000802388
-0.000943464
-0.00109247
-0.00124972
-0.00141567
-0.00159086
-0.00177583
-0.00197106
-0.00217688
-0.00239347
-0.00262076
-0.00285845
-0.00310596
-0.0033624
-0.00362658
-0.00389692
-2.15466e-05
-5.68059e-07
7.19254e-06
1.96761e-06
-1.75584e-05
-5.24781e-05
-0.000102622
-0.000167051
-0.000244508
-0.000333657
-0.000433246
-0.000542224
-0.000659791
-0.000785478
-0.000919068
-0.0010606
-0.00121032
-0.0013686
-0.00153588
-0.00171261
-0.00189919
-0.00209593
-0.00230296
-0.00252024
-0.00274752
-0.00298429
-0.00322977
-0.00348287
-0.00374221
-3.51299e-05
-8.96195e-06
-1.11652e-06
-7.77197e-06
-2.8112e-05
-6.27661e-05
-0.000111476
-0.000173372
-0.000247356
-0.000332265
-0.00042701
-0.000530678
-0.00064261
-0.000762377
-0.000889832
-0.00102505
-0.00116827
-0.00131987
-0.00148029
-0.00164998
-0.00182935
-0.00201871
-0.00221824
-0.00242798
-0.00264772
-0.00287707
-0.00311536
-0.00336165
-0.0036147
-3.58948e-05
-4.48051e-06
4.56468e-06
-2.48169e-06
-2.33173e-05
-5.80535e-05
-0.000106169
-0.000166674
-0.000238443
-0.000320353
-0.000411383
-0.000510707
-0.000617737
-0.000732147
-0.000853865
-0.000983035
-0.00111997
-0.00126511
-0.00141896
-0.00158202
-0.00175478
-0.00193763
-0.00213084
-0.00233454
-0.00254867
-0.00277294
-0.00300687
-0.00324966
-0.00350024
-1.9601e-05
1.43397e-05
2.35872e-05
1.57133e-05
-6.0795e-06
-4.14808e-05
-8.9698e-05
-0.000149565
-0.000219875
-0.000299488
-0.000387413
-0.000482882
-0.000585392
-0.000694719
-0.000810896
-0.000934177
-0.00106499
-0.0012039
-0.00135152
-0.00150849
-0.00167541
-0.00185282
-0.00204113
-0.00224063
-0.00245143
-0.00267345
-0.00290637
-0.00314961
-0.00340226
1.56971e-05
4.91115e-05
5.70407e-05
4.74402e-05
2.3917e-05
-1.28985e-05
-6.19631e-05
-0.000121939
-0.000191523
-0.000269536
-0.000355
-0.000447204
-0.00054574
-0.000650497
-0.000761644
-0.000879592
-0.00100494
-0.00113841
-0.00128081
-0.00143296
-0.00159566
-0.00176965
-0.00195556
-0.0021539
-0.00236502
-0.00258906
-0.00282592
-0.00307523
-0.00333627
7.04723e-05
0.000100469
0.000105441
9.30184e-05
6.6848e-05
2.78136e-05
-2.28389e-05
-8.36366e-05
-0.00015319
-0.000230287
-0.000313975
-0.00040361
-0.000498893
-0.000599856
-0.000706844
-0.000820468
-0.000941542
-0.00107103
-0.00120997
-0.00135946
-0.00152056
-0.00169428
-0.00188155
-0.00208315
-0.00229972
-0.00253167
-0.00277914
-0.00304193
-0.00331947
0.000144509
0.00016845
0.000168844
0.000152453
0.000122705
8.0675e-05
2.77468e-05
-3.45201e-05
-0.000104689
-0.000181551
-0.000264199
-0.000352088
-0.000445055
-0.000543314
-0.000647432
-0.000758268
-0.000876913
-0.00100463
-0.00114278
-0.00129277
-0.00145604
-0.00163392
-0.00182771
-0.00203853
-0.00226732
-0.00251478
-0.00278126
-0.00306671
-0.00337062
0.00023724
0.000252717
0.000247012
0.000225579
0.000191402
0.00014568
8.98681e-05
2.55431e-05
-4.5869e-05
-0.000123212
-0.000205667
-0.000292825
-0.000384704
-0.000481753
-0.000584805
-0.000695029
-0.000813855
-0.000942915
-0.00108397
-0.00123883
-0.00140934
-0.00159727
-0.0018043
-0.00203194
-0.00228144
-0.00255375
-0.00284938
-0.00316835
-0.00351007
0.000347786
0.000352576
0.000339396
0.000311985
0.000272648
0.000222652
0.000163438
9.65118e-05
2.32094e-05
-5.54153e-05
-0.000138691
-0.000226397
-0.000318793
-0.000416611
-0.000521017
-0.000633551
-0.000756056
-0.000890607
-0.00103943
-0.00120481
-0.00138908
-0.00159448
-0.0018231
-0.00207684
-0.00235723
-0.00266539
-0.00300191
-0.0033667
-0.00375896
0.00047492
0.000466951
0.000445057
0.000410896
0.00036583
0.000311097
0.000248031
0.000177968
0.000102079
2.12358e-05
-6.41035e-05
-0.000153974
-0.000248939
-0.000350079
-0.00045896
-0.000577568
-0.000708232
-0.00085354
-0.00101625
-0.0011992
-0.00140522
-0.00163706
-0.00189722
-0.00218793
-0.00251092
-0.00286738
-0.00325779
-0.00368184
-0.00413829
0.000616988
0.00059425
0.000562647
0.0005211
0.000469871
0.000410044
0.000342726
0.000268972
0.000189696
0.000105503
1.65595e-05
-7.74977e-05
-0.000177604
-0.000285267
-0.000402526
-0.000531887
-0.000676238
-0.000838747
-0.00102276
-0.0012317
-0.00146893
-0.00173765
-0.00204077
-0.0023807
-0.00275928
-0.0031776
-0.00363587
-0.00413331
-0.00466812
0.000771758
0.000732444
0.000690193
0.000640811
0.000583125
0.000517932
0.000445969
0.000367903
0.000284279
0.000195348
0.0001009
1.65783e-07
-0.000108244
-0.000226341
-0.000356718
-0.000502475
-0.000667121
-0.000854459
-0.00106846
-0.00131313
-0.00159235
-0.00190973
-0.00226841
-0.00267093
-0.00311903
-0.0036135
-0.00415408
-0.00473936
-0.00536675
0.000936371
0.000878784
0.000825124
0.000767596
0.000703283
0.000632479
0.000555448
0.000472324
0.000383176
0.000287802
0.000185534
7.51066e-05
-4.54068e-05
-0.000178603
-0.000327703
-0.000496467
-0.000689078
-0.000910008
-0.00116386
-0.00145518
-0.00178831
-0.00216714
-0.00259493
-0.00307413
-0.00360618
-0.00419138
-0.0048288
-0.0055162
-0.00625006
0.00110722
0.00102982
0.000964154
0.000898357
0.000827245
0.000750599
0.00066799
0.000578883
0.000482762
0.000378877
0.000266008
0.000142306
5.22312e-06
-0.000148502
-0.000322785
-0.000522102
-0.000751342
-0.00101565
-0.00132022
-0.00167008
-0.00206989
-0.00252367
-0.00303462
-0.00360489
-0.0042354
-0.00492575
-0.00567413
-0.00647733
-0.00733075
0.00127986
0.00118134
0.00110329
0.00102905
0.000951095
0.000868329
0.00077949
0.000683246
0.000578388
0.000463519
0.000336772
0.000195632
3.68453e-05
-0.00014358
-0.000350315
-0.00058858
-0.00086398
-0.00118229
-0.00154922
-0.00197017
-0.00244994
-0.00299251
-0.00360078
-0.00427636
-0.00501944
-0.00582872
-0.00670134
-0.00763294
-0.00861776
0.00144903
0.00132838
0.00123757
0.00115494
0.00107006
0.000980789
0.000884883
0.000780081
0.000664371
0.000535615
0.00039121
0.000227893
4.16367e-05
-0.000172345
-0.000419511
-0.000705838
-0.00103761
-0.00142115
-0.00186259
-0.00236749
-0.00294064
-0.00358572
-0.0043051
-0.00509963
-0.00596856
-0.00690946
-0.00791826
-0.00898934
-0.0101157
0.00160884
0.00146506
0.00136141
0.00127043
0.00117849
0.0010822
0.000978166
0.000863087
0.000734042
0.000588062
0.000421734
0.00023097
1.09089e-05
-0.000244069
-0.000540222
-0.000884252
-0.00128305
-0.00174339
-0.00227161
-0.0028733
-0.00355296
-0.00431375
-0.00515724
-0.00608331
-0.00709003
-0.00817368
-0.00932884
-0.0105485
-0.0118242
0.00175207
0.00158487
0.0014684
0.00136913
0.00126991
0.00116592
0.00105246
0.000925073
0.000779844
0.000612899
0.00041994
0.000195996
-6.46726e-05
-0.000368533
-0.000722621
-0.0011343
-0.00161096
-0.00215965
-0.00278676
-0.00349762
-0.00429623
-0.00518495
-0.00616434
-0.00723304
-0.00838776
-0.00962333
-0.0109328
-0.0123077
-0.0137382
0.00187138
0.00168061
0.00155146
0.00144397
0.00133715
0.00122458
0.00110013
0.000958099
0.0007935
0.000601487
0.000376819
0.000113598
-0.000194813
-0.000555715
-0.000976864
-0.00146618
-0.0020314
-0.00267968
-0.0034172
-0.0042488
-0.00517771
-0.00620523
-0.00733066
-0.0085512
-0.00986201
-0.0112563
-0.0127255
-0.0142596
-0.015847
0.00195866
0.00174455
0.00160298
0.00148728
0.00137243
0.00125019
0.00111295
0.000953659
0.000766214
0.000544741
0.000283012
-2.58177e-05
-0.000389276
-0.000815446
-0.00131272
-0.00188944
-0.0025535
-0.00331192
-0.00417044
-0.00513317
-0.00620224
-0.0073777
-0.00865733
-0.0100367
-0.0115092
-0.0130664
-0.0146979
-0.0163919
0.00200538
0.00176855
0.00161494
0.00149102
0.00136754
0.00123438
0.00108231
0.000902917
0.000688925
0.000433398
0.000129104
-0.000231749
-0.000657538
-0.00115706
-0.0017392
-0.00241256
-0.00318499
-0.00406313
-0.005052
-0.00615469
-0.00737204
-0.00870254
-0.0101423
-0.0116849
-0.0133221
-0.0150434
-0.0168366
-0.0186883
0.0020029
0.00174433
0.00157914
0.00144692
0.0013141
0.00116858
0.000999473
0.00079696
0.00055258
0.000258318
-9.40597e-05
-0.000513263
-0.00100845
-0.00158902
-0.00226422
-0.00304268
-0.00393197
-0.0049381
-0.00606513
-0.00731483
-0.0086865
-0.0101769
-0.0117801
-0.0134879
-0.0152898
-0.0171734
-0.0191249
-0.0211289
0.0019426
0.00166364
0.00148742
0.00134676
0.00120378
0.00104431
0.000855823
0.000627081
0.000348433
1.0793e-05
-0.000395051
-0.000878669
-0.00144992
-0.00211864
-0.00289425
-0.00378522
-0.00479859
-0.00593945
-0.00721064
-0.00861237
-0.0101422
-0.0117947
-0.0135622
-0.0154342
-0.0173981
-0.0194395
-0.0215427
-0.0236907
0.00181617
0.00151851
0.00133189
0.00118259
0.00102852
0.000853436
0.000643163
0.000385075
6.83484e-05
-0.000317146
-0.000781549
-0.00133521
-0.00198855
-0.00275172
-0.00363409
-0.00464372
-0.00578686
-0.00706746
-0.00848685
-0.0100435
-0.0117328
-0.0135475
-0.0154774
-0.0175098
-0.0196302
-0.0218221
-0.0240679
-0.0263493
0.00161587
0.00130149
0.00110517
0.000947007
0.000780849
0.000588441
0.000353988
6.35237e-05
-0.00029491
-0.000732435
-0.00126005
-0.00188879
-0.00262948
-0.00349239
-0.00448663
-0.00561963
-0.00689658
-0.00832004
-0.00988959
-0.0116017
-0.0134497
-0.0154238
-0.0175117
-0.0196984
-0.0219672
-0.0242998
-0.026677
-0.0290791
0.00133475
0.00100594
0.000800654
0.000633367
0.000454118
0.000242693
-1.82438e-05
-0.000343936
-0.000747413
-0.00124072
-0.00183564
-0.00254372
-0.00337607
-0.00434287
-0.00545274
-0.00671223
-0.00812526
-0.00969274
-0.0114123
-0.0132783
-0.0152816
-0.0174102
-0.0196493
-0.0219819
-0.024389
-0.0268506
-0.0293461
-0.0318549
0.000966914
0.000626165
0.000412733
0.000236062
4.27365e-05
-0.000189317
-0.000478876
-0.000842377
-0.00129384
-0.00184616
-0.00251174
-0.00330257
-0.00422983
-0.00530339
-0.0065312
-0.00791867
-0.00946823
-0.0111789
-0.0130463
-0.0150623
-0.0172155
-0.0194915
-0.0218731
-0.024341
-0.0268746
-0.0294521
-0.0320518
-0.0346525
0.000507688
0.000157709
-6.30061e-05
-0.00024929
-0.000457612
-0.000711762
-0.00103185
-0.00143539
-0.0019373
-0.00255121
-0.00329006
-0.00416606
-0.00519031
-0.00637219
-0.00771871
-0.00923398
-0.0109187
-0.0127699
-0.0147809
-0.0169412
-0.019237
-0.0216513
-0.0241648
-0.0267562
-0.029403
-0.0320824
-0.0347717
-0.0374491
-4.61699e-05
-0.000402525
-0.0006296
-0.000825673
-0.0010498
-0.00132732
-0.00167953
-0.00212492
-0.00267919
-0.00335657
-0.00417039
-0.00513297
-0.0062551
-0.00754548
-0.00901
-0.0106513
-0.0124681
-0.0144554
-0.016604
-0.0189011
-0.0213303
-0.0238725
-0.026506
-0.0292079
-0.0319541
-0.0347209
-0.037485
-0.0402245
-0.000696358
-0.00105613
-0.00128858
-0.00149454
-0.00173513
-0.00203705
-0.00242264
-0.00291121
-0.00351912
-0.00426109
-0.00515071
-0.00620019
-0.00741988
-0.00881759
-0.0103979
-0.0121618
-0.0141061
-0.0162233
-0.018502
-0.0209269
-0.0234793
-0.0261376
-0.0288785
-0.0316772
-0.0345087
-0.0373485
-0.040173
-0.0429607
-0.00144294
-0.00180312
-0.00203991
-0.00225574
-0.00251325
-0.00284032
-0.00326015
-0.00379271
-0.00445491
-0.00526183
-0.00622712
-0.00736278
-0.00867853
-0.0101811
-0.0118738
-0.0137555
-0.0158211
-0.0180608
-0.0204608
-0.0230033
-0.0256674
-0.0284295
-0.0312645
-0.0341463
-0.0370491
-0.0399479
-0.0428193
-0.0456423
-0.00228432
-0.00264186
-0.00288189
-0.00310746
-0.00338216
-0.00373481
-0.0041893
-0.00476614
-0.00548263
-0.00635404
-0.007394
-0.0086141
-0.0100233
-0.0116271
-0.0134273
-0.0154208
-0.0176004
-0.0199541
-0.0224655
-0.0251147
-0.0278784
-0.0307315
-0.0336473
-0.0365986
-0.0395592
-0.0425039
-0.0454098
-0.0482565
-0.00321724
-0.00356914
-0.00381126
-0.00404627
-0.00433818
-0.00471652
-0.00520568
-0.00582654
-0.00659666
-0.00753138
-0.00864413
-0.00994598
-0.011445
-0.0131454
-0.0150471
-0.0171455
-0.0194308
-0.0218889
-0.0245011
-0.0272454
-0.0300966
-0.0330279
-0.0360113
-0.0390192
-0.0420249
-0.0450034
-0.0479325
-0.0507927
-0.00423684
-0.00458016
-0.00482315
-0.00506717
-0.00537607
-0.00577986
-0.00630328
-0.00696738
-0.00778985
-0.00878597
-0.00996886
-0.0113489
-0.0129332
-0.0147245
-0.0167212
-0.0189164
-0.0212984
-0.0238508
-0.026553
-0.0293806
-0.032307
-0.0353039
-0.0383425
-0.0413947
-0.0444338
-0.0474353
-0.0503778
-0.0532427
-0.00533677
-0.00566866
-0.00591127
-0.00616371
-0.00648912
-0.00691781
-0.00747464
-0.00818072
-0.0090537
-0.0101087
-0.0113583
-0.0128123
-0.0144765
-0.0163524
-0.0184365
-0.0207201
-0.0231893
-0.0258257
-0.0286065
-0.0315058
-0.0344954
-0.0375459
-0.040628
-0.0437132
-0.0467752
-0.0497902
-0.0527376
-0.0556001
-0.00650932
-0.00682709
-0.00706801
-0.00732811
-0.00766932
-0.00812203
-0.00871105
-0.00945739
-0.0103785
-0.0114892
-0.0128017
-0.0143247
-0.016063
-0.0180165
-0.0201801
-0.0225431
-0.0250897
-0.0277995
-0.030648
-0.0336076
-0.0366489
-0.0397419
-0.0428565
-0.0459647
-0.0490403
-0.0520605
-0.0550056
-0.0578597
-0.00774561
-0.00804671
-0.0082846
-0.00855146
-0.00890753
-0.00938308
-0.0100027
-0.0107872
-0.0117537
-0.0129166
-0.0142874
-0.015874
-0.0176799
-0.0197038
-0.0219386
-0.0243719
-0.0269861
-0.029759
-0.0326643
-0.0356734
-0.0387558
-0.0418807
-0.0450182
-0.0481403
-0.0512215
-0.05424
-0.057177
-0.0600181
-0.00903573
-0.00931781
-0.00955132
-0.00982388
-0.0101937
-0.0106906
-0.011339
-0.0121592
-0.0131678
-0.0143789
-0.0158032
-0.0174477
-0.0193147
-0.0214012
-0.0236988
-0.0261934
-0.0288655
-0.0316913
-0.0346434
-0.0376917
-0.0408052
-0.0439527
-0.0471044
-0.0502326
-0.0533127
-0.0563236
-0.059248
-0.0620724
-0.010369
-0.0106299
-0.0108577
-0.0111348
-0.0115169
-0.0120336
-0.0127086
-0.0135617
-0.0146091
-0.0158642
-0.0173369
-0.0190332
-0.0209544
-0.023096
-0.0254481
-0.0279949
-0.0307155
-0.0335847
-0.0365739
-0.0396521
-0.0427877
-0.0459494
-0.0491077
-0.0522354
-0.0553087
-0.0583075
-0.0612157
-0.0640209
-0.0117342
-0.0119721
-0.0121927
-0.0124731
-0.012866
-0.0134006
-0.0140999
-0.014983
-0.0160655
-0.01736
-0.0188759
-0.020618
-0.0225865
-0.0247756
-0.0271739
-0.0297643
-0.0325246
-0.0354282
-0.0384455
-0.041545
-0.0446947
-0.0478634
-0.0510217
-0.0541434
-0.0572053
-0.0601885
-0.0630779
-0.065862
-0.0131198
-0.0133329
-0.0135451
-0.0138273
-0.0142295
-0.0147799
-0.0155009
-0.0164108
-0.0175246
-0.0188542
-0.0204078
-0.0221897
-0.0241987
-0.0264279
-0.0288646
-0.0314904
-0.0342819
-0.0372115
-0.0402488
-0.043362
-0.0465187
-0.0496881
-0.0528411
-0.0559522
-0.0589992
-0.0619641
-0.0648327
-0.0675948
-0.0145139
-0.0147009
-0.0149034
-0.015186
-0.0155956
-0.0161596
-0.0168998
-0.0178334
-0.0189747
-0.0203346
-0.0219208
-0.0237364
-0.0257793
-0.0280415
-0.0305091
-0.0331625
-0.0359774
-0.0389255
-0.0419756
-0.0450956
-0.0482533
-0.0514179
-0.0545612
-0.0576581
-0.0606874
-0.0636321
-0.066479
-0.0692186
-0.0162563
-0.0165377
-0.0169529
-0.0175284
-0.0182849
-0.019239
-0.0204038
-0.0217896
-0.0234032
-0.0252468
-0.0273173
-0.0296056
-0.032097
-0.034771
-0.0376022
-0.0405617
-0.0436182
-0.0467392
-0.0498926
-0.0530481
-0.056178
-0.0592579
-0.0622677
-0.0651909
-0.0680155
-0.0707326
)
;

boundaryField
{
    movingWall
    {
        type            zeroGradient;
    }
    fixedWalls
    {
        type            zeroGradient;
    }
    frontAndBack
    {
        type            empty;
    }
    procBoundary0to1
    {
        type            processor;
        value           nonuniform List<scalar> 
45
(
-0.00417153
-0.00400604
-0.00387293
-0.0037572
-0.00366308
-0.00360792
-0.00361072
-0.00369191
-0.00387328
-0.00417706
-0.00462498
-0.00523738
-0.00603248
-0.00702562
-0.00822854
-0.00964875
-0.0112889
-0.0131465
-0.0152132
-0.0174755
-0.0181355
-0.0181355
-0.020584
-0.0231695
-0.0258664
-0.0286478
-0.0314868
-0.0343569
-0.0372335
-0.0400943
-0.0429195
-0.0456922
-0.0483982
-0.0510264
-0.0535677
-0.0560152
-0.058364
-0.0606103
-0.0627518
-0.0647868
-0.0667141
-0.0685331
-0.0702434
-0.0718447
-0.0733367
)
;
    }
    procBoundary0to3
    {
        type            processor;
        value           nonuniform List<scalar> 
29
(
-0.0159051
-0.0160648
-0.0160648
-0.0175927
-0.0178714
-0.0182902
-0.0188749
-0.019645
-0.0206163
-0.0218008
-0.0232082
-0.0248441
-0.0267101
-0.0288021
-0.0311103
-0.033619
-0.0363068
-0.0391479
-0.0421128
-0.04517
-0.0482868
-0.0514317
-0.0545745
-0.0576881
-0.0607491
-0.0637379
-0.0666392
-0.0694413
-0.0721362
)
;
    }
}


// ************************************************************************* //
