/*--------------------------------*- C++ -*----------------------------------*\
  =========                 |
  \\      /  F ield         | OpenFOAM: The Open Source CFD Toolbox
   \\    /   O peration     | Website:  https://openfoam.org
    \\  /    A nd           | Version:  9
     \\/     M anipulation  |
\*---------------------------------------------------------------------------*/
FoamFile
{
    format      ascii;
    class       volScalarField;
    location    "2.5";
    object      p;
}
// * * * * * * * * * * * * * * * * * * * * * * * * * * * * * * * * * * * * * //

dimensions      [0 2 -2 0 0 0 0];

internalField   nonuniform List<scalar> 
1250
(
-0.00370848
-0.00394846
-0.00418715
-0.00442189
-0.00464969
-0.00486731
-0.0050712
-0.00525766
-0.0054228
-0.00556268
-0.0056734
-0.00575114
-0.00579236
-0.00579385
-0.0057529
-0.0056674
-0.005536
-0.0053582
-0.00513445
-0.00486629
-0.00455636
-0.00420849
-0.00382759
-0.00341948
-0.00299188
-0.00255266
-0.00211074
-0.00167564
-0.00125724
-0.000865511
-0.000510216
-0.000200588
5.49707e-05
-0.00355786
-0.00378853
-0.00401848
-0.00424524
-0.00446605
-0.00467785
-0.00487734
-0.00506101
-0.00522516
-0.00536606
-0.00547993
-0.00556311
-0.00561215
-0.00562391
-0.00559569
-0.00552537
-0.00541153
-0.00525354
-0.00505172
-0.00480737
-0.00452292
-0.00420198
-0.00384915
-0.00346979
-0.00307094
-0.0026604
-0.00224663
-0.00183871
-0.00144609
-0.00107831
-0.000744723
-0.000454171
-0.000214704
-0.0034371
-0.00366337
-0.0038898
-0.00411408
-0.00433359
-0.00454538
-0.00474628
-0.00493284
-0.00510147
-0.00524843
-0.00536996
-0.00546238
-0.00552217
-0.00554609
-0.00553132
-0.00547561
-0.00537735
-0.00523574
-0.00505087
-0.00482384
-0.00455689
-0.0042534
-0.00391705
-0.00355444
-0.00317166
-0.00277627
-0.00237663
-0.00198168
-0.00160077
-0.00124335
-0.000918707
-0.000635625
-0.000402118
-0.00333179
-0.0035578
-0.00378528
-0.00401201
-0.00423545
-0.00445274
-0.0046607
-0.0048559
-0.00503468
-0.00519321
-0.00532762
-0.00543404
-0.00550878
-0.00554839
-0.00554981
-0.00551055
-0.00542876
-0.00530338
-0.00513429
-0.00492238
-0.00466978
-0.00438
-0.00405516
-0.00370305
-0.00332954
-0.00294201
-0.00254878
-0.00215881
-0.0017815
-0.00142638
-0.00110286
-0.000819851
-0.000585506
-0.00324469
-0.00347527
-0.00370908
-0.00394396
-0.00417739
-0.00440649
-0.00462802
-0.0048384
-0.00503381
-0.00521023
-0.00536352
-0.00548956
-0.00558434
-0.0056441
-0.00566551
-0.00564575
-0.00558269
-0.00547502
-0.00532238
-0.00512549
-0.00488598
-0.00460616
-0.00429238
-0.00394822
-0.00358043
-0.0031966
-0.00280512
-0.00241506
-0.00203593
-0.00167744
-0.00134921
-0.00106035
-0.000819285
-0.00319028
-0.00343183
-0.00367883
-0.00392911
-0.00418007
-0.00442869
-0.00467154
-0.0049048
-0.00512433
-0.0053258
-0.00550469
-0.00565652
-0.0057769
-0.00586171
-0.00590726
-0.00591042
-0.00586874
-0.00578068
-0.00564564
-0.00546416
-0.00523777
-0.00496897
-0.00466267
-0.00432377
-0.00395871
-0.00357504
-0.00318118
-0.00278633
-0.00240016
-0.0020326
-0.00169351
-0.00139229
-0.0011377
-0.00318448
-0.00344495
-0.00371351
-0.00398786
-0.00426521
-0.00454227
-0.00481526
-0.00508
-0.00533193
-0.00556627
-0.00577806
-0.00596237
-0.00611439
-0.00622961
-0.00630397
-0.006334
-0.00631698
-0.00625111
-0.00613557
-0.00597069
-0.00575792
-0.00549979
-0.00520064
-0.00486562
-0.00450116
-0.00411475
-0.0037149
-0.00331088
-0.00291252
-0.00252997
-0.00217334
-0.0018524
-0.00157637
-0.00324456
-0.00353333
-0.00383316
-0.00414147
-0.00445515
-0.0047705
-0.00508328
-0.00538881
-0.00568202
-0.00595759
-0.00621009
-0.00643409
-0.00662434
-0.00677593
-0.00688444
-0.00694609
-0.00695787
-0.00691774
-0.00682464
-0.0066787
-0.0064812
-0.00623463
-0.00594305
-0.00561152
-0.00524637
-0.00485509
-0.00444616
-0.00402889
-0.00361325
-0.00320953
-0.00282816
-0.00247938
-0.00217294
-0.00338928
-0.00371701
-0.00405893
-0.00441211
-0.00477292
-0.00513715
-0.00549998
-0.00585615
-0.00620001
-0.00652568
-0.00682719
-0.00709864
-0.00733434
-0.00752898
-0.00767779
-0.00777669
-0.00782239
-0.00781258
-0.00774597
-0.00762242
-0.00744297
-0.00721006
-0.00692738
-0.00659983
-0.00623357
-0.00583597
-0.00541542
-0.00498118
-0.00454319
-0.00411201
-0.00369848
-0.00363825
-0.00401661
-0.00441237
-0.00482204
-0.00524141
-0.00566563
-0.00608924
-0.00650632
-0.00691063
-0.0072957
-0.00765504
-0.00798227
-0.00827128
-0.00851639
-0.00871247
-0.00885513
-0.0089408
-0.00896686
-0.00893177
-0.00883508
-0.00867752
-0.00846135
-0.00818987
-0.0078677
-0.00750075
-0.00709615
-0.00666209
-0.0062076
-0.00574269
-0.00401119
-0.0044526
-0.00491452
-0.00539281
-0.00588257
-0.00637822
-0.00687362
-0.00736219
-0.00783706
-0.00829119
-0.00871759
-0.00910941
-0.00946013
-0.00976369
-0.0100146
-0.0102082
-0.0103406
-0.0104088
-0.010411
-0.0103464
-0.0102154
-0.0100199
-0.00976272
-0.00944821
-0.00908187
-0.00867048
-0.00822191
-0.00774487
-0.00724936
-0.00452722
-0.00504455
-0.00558529
-0.00614454
-0.00671665
-0.00729529
-0.0078736
-0.00844432
-0.00899996
-0.00953295
-0.0100358
-0.0105011
-0.0109221
-0.0112923
-0.0116059
-0.0118579
-0.0120439
-0.0121609
-0.0122065
-0.0121796
-0.0120802
-0.0119098
-0.0116707
-0.0113669
-0.0110034
-0.0105865
-0.0101235
-0.00962288
-0.00909433
-0.00520419
-0.00581043
-0.00644266
-0.00709515
-0.00776144
-0.00843444
-0.00910653
-0.00976982
-0.0104162
-0.0110375
-0.0116258
-0.0121733
-0.0126728
-0.0131174
-0.0135011
-0.0138183
-0.0140647
-0.0142366
-0.0143315
-0.0143478
-0.0142852
-0.0141445
-0.0139279
-0.0136384
-0.0132808
-0.0128606
-0.0123847
-0.011861
-0.0112988
-0.006058
-0.00676592
-0.00750195
-0.00825952
-0.0090313
-0.00980941
-0.0105855
-0.011351
-0.0120972
-0.0128155
-0.0134973
-0.0141346
-0.0147197
-0.0152454
-0.0157053
-0.0160938
-0.0164061
-0.0166383
-0.0167876
-0.016852
-0.0168307
-0.0167243
-0.0165342
-0.0162632
-0.0159152
-0.0154952
-0.0150094
-0.0144649
-0.0138704
-0.0071019
-0.00792362
-0.00877501
-0.00964859
-0.0105362
-0.011429
-0.0123181
-0.0131941
-0.0140478
-0.0148699
-0.0156517
-0.0163845
-0.0170604
-0.017672
-0.0182127
-0.0186766
-0.0190587
-0.019355
-0.0195622
-0.0196784
-0.0197023
-0.0196339
-0.0194745
-0.019226
-0.0188919
-0.0184763
-0.0179847
-0.0174235
-0.0168007
-0.00834577
-0.0092923
-0.0102693
-0.0112684
-0.0122805
-0.013296
-0.014305
-0.0152978
-0.0162643
-0.017195
-0.0180806
-0.0189123
-0.0196818
-0.0203817
-0.0210051
-0.0215462
-0.0219998
-0.0223618
-0.022629
-0.022799
-0.0228705
-0.0228429
-0.0227173
-0.0224953
-0.0221793
-0.021773
-0.021281
-0.0207088
-0.0200634
-0.00979544
-0.0108762
-0.0119873
-0.0131194
-0.0142625
-0.015406
-0.0165396
-0.0176525
-0.0187345
-0.0197755
-0.0207659
-0.0216967
-0.0225597
-0.0233473
-0.0240527
-0.02467
-0.0251943
-0.0256214
-0.0259482
-0.0261724
-0.0262922
-0.0263066
-0.0262173
-0.0260248
-0.0257311
-0.0253391
-0.0248526
-0.0242762
-0.0236157
-0.0114521
-0.0126743
-0.0139257
-0.0151957
-0.0164735
-0.0177477
-0.0190071
-0.0202406
-0.0214373
-0.022587
-0.0236799
-0.0247071
-0.0256602
-0.0265318
-0.0273155
-0.0280054
-0.028597
-0.0290863
-0.0294702
-0.0297465
-0.0299135
-0.0299699
-0.0299183
-0.0297575
-0.0294893
-0.0291162
-0.028641
-0.0280676
-0.0274007
-0.013312
-0.0146802
-0.0160751
-0.017485
-0.018898
-0.020302
-0.0216853
-0.0230362
-0.0243436
-0.0255972
-0.026787
-0.0279044
-0.0289413
-0.0298906
-0.0307462
-0.0315027
-0.0321559
-0.032702
-0.0331385
-0.0334632
-0.0336751
-0.033774
-0.033758
-0.0336293
-0.0333888
-0.0330383
-0.0325798
-0.0320164
-0.0313518
-0.0153659
-0.0168818
-0.0184203
-0.0199686
-0.021514
-0.0230438
-0.0245455
-0.0260074
-0.0274182
-0.0287675
-0.0300458
-0.0312447
-0.0323565
-0.0333747
-0.0342936
-0.0351086
-0.0358157
-0.036412
-0.036895
-0.037263
-0.0375154
-0.037652
-0.0376712
-0.0375746
-0.037363
-0.0370377
-0.0366003
-0.0360531
-0.0353987
-0.0159685
-0.0176
-0.019262
-0.0209407
-0.0226227
-0.0242943
-0.0259423
-0.027554
-0.0291174
-0.0306214
-0.0320559
-0.0334119
-0.0346814
-0.0358574
-0.036934
-0.0379063
-0.0387702
-0.0395226
-0.0401609
-0.0406834
-0.0410887
-0.0413763
-0.0415462
-0.0415978
-0.0415317
-0.0413488
-0.0410502
-0.040637
-0.0401107
-0.0394733
-0.0182167
-0.0199956
-0.0217987
-0.0236114
-0.0254191
-0.0272077
-0.0289636
-0.0306741
-0.0323272
-0.0339122
-0.0354195
-0.0368407
-0.0381686
-0.039397
-0.0405207
-0.0415356
-0.0424385
-0.0432269
-0.0438988
-0.0444531
-0.044889
-0.0452062
-0.0454049
-0.0454849
-0.0454468
-0.0452914
-0.0450195
-0.044632
-0.0441299
-0.0435145
-0.0206103
-0.0225304
-0.0244667
-0.0264039
-0.0283267
-0.0302206
-0.0320719
-0.033868
-0.0355974
-0.0372499
-0.0388166
-0.04029
-0.0416637
-0.0429324
-0.0440918
-0.0451388
-0.0460708
-0.046886
-0.0475833
-0.048162
-0.0486218
-0.0489628
-0.0491853
-0.0492896
-0.0492764
-0.0491463
-0.0489
-0.0485384
-0.0480621
-0.0474717
-0.0231269
-0.0251791
-0.0272383
-0.0292883
-0.0313134
-0.0332991
-0.0352318
-0.0370992
-0.0388907
-0.0405968
-0.0422094
-0.0437221
-0.0451292
-0.0464267
-0.0476111
-0.0486802
-0.0496321
-0.0504659
-0.0511809
-0.0517771
-0.0522547
-0.0526139
-0.0528555
-0.05298
-0.0529882
-0.0528807
-0.0526583
-0.0523215
-0.051871
-0.051307
-0.0257422
-0.0279153
-0.0300847
-0.0322339
-0.0343472
-0.0364101
-0.0384095
-0.0403339
-0.0421733
-0.0439193
-0.045565
-0.0471047
-0.0485342
-0.04985
-0.0510499
-0.0521323
-0.0530962
-0.0539413
-0.0546676
-0.0552755
-0.0557654
-0.0561381
-0.0563944
-0.0565352
-0.0565613
-0.0564734
-0.0562724
-0.0559587
-0.0555329
-0.054995
-0.0284309
-0.0307116
-0.0329774
-0.0352114
-0.037398
-0.0395233
-0.0415748
-0.0435421
-0.0454161
-0.0471895
-0.0488564
-0.0504125
-0.0518544
-0.0531797
-0.054387
-0.0554756
-0.056445
-0.0572957
-0.058028
-0.0586426
-0.0591405
-0.0595226
-0.05979
-0.0599436
-0.0599844
-0.0599133
-0.0597309
-0.059438
-0.0590349
-0.0585217
-0.0311675
-0.0335418
-0.0358892
-0.038193
-0.0404382
-0.0426115
-0.0447014
-0.0466985
-0.0485949
-0.0503846
-0.0520628
-0.0536261
-0.0550724
-0.0564
-0.0576085
-0.0586976
-0.0596677
-0.0605195
-0.0612538
-0.0618716
-0.0623742
-0.0627626
-0.0630381
-0.0632017
-0.0632544
-0.0631972
-0.0630308
-0.062756
-0.0623732
-0.0618824
-0.0339278
-0.0363809
-0.0387951
-0.0411542
-0.0434438
-0.0456517
-0.0477675
-0.0497828
-0.0516913
-0.0534878
-0.055169
-0.0567324
-0.0581767
-0.0595013
-0.0607063
-0.061792
-0.0627592
-0.0636091
-0.0643428
-0.0649614
-0.0654663
-0.0658588
-0.0661401
-0.0663113
-0.0663736
-0.0663279
-0.0661751
-0.0659158
-0.0655505
-0.0650795
-0.0366887
-0.0392061
-0.0416729
-0.0440735
-0.0463946
-0.0486251
-0.0507557
-0.0527796
-0.0546914
-0.0564874
-0.0581651
-0.0597232
-0.0611611
-0.0624789
-0.0636772
-0.064757
-0.0657193
-0.0665655
-0.0672968
-0.0679148
-0.0684206
-0.0688157
-0.0691012
-0.0692785
-0.0693485
-0.0693123
-0.0691707
-0.0689244
-0.0685741
-0.0681201
-0.0394298
-0.0419976
-0.0445036
-0.0469333
-0.0492743
-0.0515169
-0.0536533
-0.0556777
-0.0575861
-0.0593759
-0.0610455
-0.0625945
-0.0640231
-0.0653318
-0.0665218
-0.0675943
-0.0685506
-0.0693923
-0.0701207
-0.0707372
-0.0712432
-0.0716401
-0.071929
-0.0721111
-0.0721875
-0.0421329
-0.0447382
-0.0472714
-0.049719
-0.0520702
-0.0543164
-0.0564511
-0.0584699
-0.0603698
-0.0621493
-0.0638078
-0.0653455
-0.0667631
-0.0680618
-0.0692428
-0.0703076
-0.0712579
-0.072095
-0.0728203
-0.0734354
-0.0739415
-0.0743398
-0.0746315
-0.0748178
-0.0748996
-0.0447826
-0.0474137
-0.0499635
-0.0524197
-0.0547729
-0.0570157
-0.0591431
-0.0611518
-0.0630398
-0.0648066
-0.0664523
-0.0679776
-0.0693837
-0.0706721
-0.0718443
-0.072902
-0.0738466
-0.0746796
-0.0754025
-0.0760165
-0.0765229
-0.0769228
-0.0772172
-0.0774072
-0.0774937
-0.0473659
-0.0500127
-0.0525701
-0.0550272
-0.0573758
-0.0596101
-0.061726
-0.0637215
-0.0655956
-0.0673483
-0.0689805
-0.0704933
-0.0718883
-0.0731671
-0.0743313
-0.0753826
-0.0763225
-0.0771524
-0.0778735
-0.0784872
-0.0789943
-0.0793961
-0.0796933
-0.0798869
-0.0799778
-0.0498725
-0.0525263
-0.0550839
-0.0575357
-0.0598748
-0.0620967
-0.0641985
-0.066179
-0.0680381
-0.0697765
-0.0713953
-0.0728962
-0.0742809
-0.0755512
-0.0767085
-0.0777547
-0.078691
-0.0795188
-0.0802392
-0.0808532
-0.0813618
-0.0817659
-0.0820661
-0.0822634
-0.0823585
-0.052294
-0.0549477
-0.0574995
-0.0599413
-0.0622674
-0.0644744
-0.0665605
-0.0685252
-0.0703692
-0.0720935
-0.0736999
-0.0751899
-0.0765656
-0.0778285
-0.0789805
-0.0800228
-0.0809568
-0.0817836
-0.0825043
-0.0831196
-0.0836303
-0.0840371
-0.0843407
-0.0845418
-0.0846409
-0.0546241
-0.057272
-0.0598135
-0.0622418
-0.0645525
-0.0667432
-0.0688128
-0.0707618
-0.0725911
-0.0743023
-0.0758972
-0.0773778
-0.0787458
-0.080003
-0.0811508
-0.0821907
-0.0831236
-0.0839506
-0.0846724
-0.0852898
-0.0858032
-0.0862133
-0.0865206
-0.0867256
-0.0568581
-0.0594956
-0.0620235
-0.0644361
-0.06673
-0.0689036
-0.0709569
-0.0728905
-0.0747061
-0.0764054
-0.0779903
-0.0794628
-0.0808247
-0.0820775
-0.0832227
-0.0842613
-0.0851943
-0.0860225
-0.0867463
-0.0873664
-0.0878832
-0.088297
-0.0886082
-0.0888172
-0.0589924
-0.0616164
-0.0641283
-0.0665237
-0.0688002
-0.0709568
-0.0729942
-0.0749135
-0.0767165
-0.0784052
-0.0799815
-0.0814475
-0.0828047
-0.0840545
-0.0851983
-0.0862368
-0.0871709
-0.088001
-0.0887276
-0.0893511
-0.0898716
-0.0610246
-0.0636326
-0.0661272
-0.0685048
-0.0707637
-0.0729039
-0.0749262
-0.0768323
-0.0786241
-0.0803036
-0.0818729
-0.0833336
-0.0846875
-0.0859356
-0.087079
-0.0881184
-0.0890544
-0.0898872
-0.0906171
-0.0912443
-0.0917689
-0.0629529
-0.0655435
-0.06802
-0.0703796
-0.0726214
-0.0747459
-0.0767543
-0.0786485
-0.0804304
-0.0821022
-0.0836657
-0.0851225
-0.0864742
-0.0877216
-0.0888656
-0.0899067
-0.0908452
-0.0916812
-0.0924149
-0.0930461
-0.093575
-0.0647759
-0.0673483
-0.0698065
-0.0721485
-0.0743741
-0.0764839
-0.0784796
-0.0803631
-0.0821365
-0.0838018
-0.0853607
-0.0868148
-0.0881653
-0.0894129
-0.0905582
-0.0916016
-0.0925431
-0.0933827
-0.0941204
-0.0947559
-0.0952891
-0.0664929
-0.0690467
-0.0714869
-0.073812
-0.0760221
-0.0781184
-0.0801026
-0.0819768
-0.0837429
-0.0854029
-0.0869584
-0.0884107
-0.0897608
-0.0910093
-0.0921565
-0.0932026
-0.0941475
-0.0949909
-0.0957326
-0.0963724
-0.09691
-0.0681029
-0.0706384
-0.0730611
-0.0753702
-0.077566
-0.07965
-0.0816239
-0.0834899
-0.0852499
-0.0869056
-0.0884586
-0.0899099
-0.0912603
-0.0925102
-0.0936598
-0.0947089
-0.0956573
-0.0965046
-0.0972505
-0.0978945
-0.0984364
-0.0696055
-0.0721231
-0.0745292
-0.0768232
-0.0790058
-0.0810786
-0.0830435
-0.0849024
-0.0866573
-0.0883097
-0.089861
-0.0913119
-0.0926631
-0.0939148
-0.095067
-0.0961192
-0.0970713
-0.0979225
-0.0986724
-0.0993206
-0.0998666
-0.0843611
-0.086214
-0.0879647
-0.0896145
-0.0911647
-0.0926158
-0.0939682
-0.095222
-0.0963769
-0.0974324
-0.098388
-0.0992431
-0.099997
-0.100649
-0.101199
-0.0986469
-0.0996061
-0.100465
-0.101223
-0.101879
-0.102432
)
;

boundaryField
{
    movingWall
    {
        type            zeroGradient;
    }
    fixedWalls
    {
        type            zeroGradient;
    }
    frontAndBack
    {
        type            empty;
    }
    procBoundary1to0
    {
        type            processor;
        value           nonuniform List<scalar> 
45
(
-0.00346957
-0.00332863
-0.00321301
-0.00310913
-0.00301913
-0.00295594
-0.00293392
-0.00296884
-0.00307809
-0.0032801
-0.0035937
-0.00403741
-0.00462885
-0.00538401
-0.00631663
-0.00743753
-0.00875398
-0.0102691
-0.0119815
-0.0138849
-0.0138849
-0.0143803
-0.0164762
-0.0187219
-0.0210981
-0.0235829
-0.026153
-0.0287845
-0.0314538
-0.0341383
-0.0368172
-0.0394716
-0.042085
-0.0446433
-0.0471347
-0.0495494
-0.0518796
-0.0541193
-0.0562637
-0.0583093
-0.0602533
-0.0620937
-0.0638288
-0.0654575
-0.0669786
)
;
    }
    procBoundary1to3
    {
        type            processor;
        value           nonuniform List<scalar> 
23
(
-0.071
-0.0735004
-0.0758907
-0.0781708
-0.0803414
-0.0824042
-0.0824042
-0.0855763
-0.0874241
-0.0891713
-0.0908192
-0.0923688
-0.0938205
-0.0951744
-0.0964304
-0.0975881
-0.0975881
-0.0997613
-0.100724
-0.101586
-0.102348
-0.103007
-0.103564
)
;
    }
    procBoundary1to6
    {
        type            processor;
        value           nonuniform List<scalar> 
26
(
-0.0721591
-0.0720268
-0.0717914
-0.0714536
-0.0710137
-0.0721591
-0.0748778
-0.0774776
-0.0799668
-0.0823521
-0.0846388
-0.0868288
-0.0868288
-0.0902894
-0.0906047
-0.0889246
-0.0908179
-0.0902894
-0.0921909
-0.0940014
-0.0957198
-0.0973451
-0.0988756
-0.10031
-0.101646
-0.102883
)
;
    }
    procBoundary1to7
    {
        type            processor;
        value           nonuniform List<scalar> 
33
(
0.000249167
-3.33274e-05
-0.000225188
-0.000407005
-0.000633489
-0.000937633
-0.00135365
-0.00331318
-0.0019177
-0.0029663
-0.00527822
-0.00331318
-0.00482504
-0.00527822
-0.00674627
-0.00854865
-0.0107085
-0.0132359
-0.0161252
-0.0193528
-0.0228782
-0.0266459
-0.0305902
-0.0346403
-0.0387269
-0.042787
-0.046768
-0.0506298
-0.0543451
-0.0578982
-0.0612835
-0.0645026
-0.0675622
)
;
    }
}


// ************************************************************************* //
