/*--------------------------------*- C++ -*----------------------------------*\
  =========                 |
  \\      /  F ield         | OpenFOAM: The Open Source CFD Toolbox
   \\    /   O peration     | Website:  https://openfoam.org
    \\  /    A nd           | Version:  9
     \\/     M anipulation  |
\*---------------------------------------------------------------------------*/
FoamFile
{
    format      ascii;
    class       surfaceScalarField;
    location    "2.5";
    object      phi;
}
// * * * * * * * * * * * * * * * * * * * * * * * * * * * * * * * * * * * * * //

dimensions      [0 3 -1 0 0 0 0];

internalField   nonuniform List<scalar> 
2420
(
-3.58294e-08
5.99038e-09
-4.22884e-08
6.45902e-09
-4.92069e-08
6.91843e-09
-5.65669e-08
7.36e-09
-6.43413e-08
7.77445e-09
-7.24932e-08
8.15187e-09
-8.0975e-08
8.48183e-09
-8.97285e-08
8.75352e-09
-9.86845e-08
8.95599e-09
-1.07763e-07
9.07837e-09
-1.16873e-07
9.11017e-09
-1.25915e-07
9.04152e-09
-1.34778e-07
8.86347e-09
-1.43346e-07
8.56831e-09
-1.51496e-07
8.14983e-09
-1.591e-07
7.6036e-09
-1.66027e-07
6.92729e-09
-1.72148e-07
6.12083e-09
-1.77335e-07
5.18673e-09
-1.81465e-07
4.1304e-09
-1.84426e-07
2.96079e-09
-1.86115e-07
1.68955e-09
-1.86449e-07
3.33771e-10
-1.85337e-07
-1.11189e-09
-1.82743e-07
-2.59404e-09
-1.78635e-07
-4.10836e-09
-1.73008e-07
-5.62673e-09
-1.65886e-07
-7.1219e-09
-1.57321e-07
-8.5654e-09
-1.47393e-07
-9.92794e-09
-1.36213e-07
-1.11803e-08
-1.23918e-07
-1.22944e-08
-1.32437e-08
-1.31084e-07
2.40836e-08
-1.50357e-07
2.57325e-08
-1.70751e-07
2.73124e-08
-1.92182e-07
2.87905e-08
-2.14539e-07
3.01316e-08
-2.37686e-07
3.12994e-08
-2.61461e-07
3.2257e-08
-2.85675e-07
3.29669e-08
-3.10112e-07
3.33931e-08
-3.34534e-07
3.35008e-08
-3.58682e-07
3.32581e-08
-3.82278e-07
3.26368e-08
-4.05027e-07
3.16131e-08
-4.26627e-07
3.01686e-08
-4.46769e-07
2.82913e-08
-4.65141e-07
2.59757e-08
-4.81438e-07
2.32241e-08
-4.95364e-07
2.00466e-08
-5.06639e-07
1.64617e-08
-5.15005e-07
1.24971e-08
-5.20235e-07
8.19029e-09
-5.22134e-07
3.58836e-09
-5.20549e-07
-1.25112e-09
-5.1535e-07
-6.3109e-09
-5.06476e-07
-1.14672e-08
-4.9392e-07
-1.66647e-08
-4.77724e-07
-2.18233e-08
-4.57988e-07
-2.68577e-08
-4.34873e-07
-3.16801e-08
-4.08599e-07
-3.62015e-08
-3.79445e-07
-4.03347e-08
-3.47744e-07
-4.39957e-08
-4.71067e-08
-2.47647e-07
5.43185e-08
-2.79556e-07
5.76421e-08
-3.13002e-07
6.07577e-08
-3.47805e-07
6.3594e-08
-3.8375e-07
6.60769e-08
-4.20583e-07
6.81317e-08
-4.5801e-07
6.9684e-08
-4.95704e-07
7.06616e-08
-5.33308e-07
7.09969e-08
-5.70435e-07
7.06279e-08
-6.06678e-07
6.95008e-08
-6.41612e-07
6.75711e-08
-6.74805e-07
6.48055e-08
-7.05819e-07
6.11827e-08
-7.34223e-07
5.66953e-08
-7.59597e-07
5.13495e-08
-7.81539e-07
4.51667e-08
-7.99676e-07
3.81831e-08
-8.13665e-07
3.04504e-08
-8.23203e-07
2.20354e-08
-8.28035e-07
1.30225e-08
-8.27974e-07
3.52754e-09
-8.22822e-07
-6.40361e-09
-8.12526e-07
-1.66066e-08
-7.97051e-07
-2.69423e-08
-7.76439e-07
-3.72768e-08
-7.50801e-07
-4.74613e-08
-7.20318e-07
-5.73405e-08
-6.85242e-07
-6.67556e-08
-6.45896e-07
-7.55478e-08
-6.02669e-07
-8.35619e-08
-5.56015e-07
-9.06498e-08
-9.66739e-08
-3.8305e-07
9.65513e-08
-4.27228e-07
1.0182e-07
-4.73108e-07
1.06638e-07
-5.204e-07
1.10886e-07
-5.68766e-07
1.14442e-07
-6.17822e-07
1.17188e-07
-6.67146e-07
1.19008e-07
-7.1628e-07
1.19796e-07
-7.64737e-07
1.19455e-07
-8.12012e-07
1.17902e-07
-8.57583e-07
1.15072e-07
-9.00926e-07
1.10914e-07
-9.41521e-07
1.054e-07
-9.78859e-07
9.8521e-08
-1.01245e-06
9.02896e-08
-1.04184e-06
8.07405e-08
-1.06661e-06
6.99302e-08
-1.08636e-06
5.79365e-08
-1.10077e-06
4.48584e-08
-1.10955e-06
3.08144e-08
-1.11246e-06
1.59369e-08
-1.10941e-06
4.69965e-10
-1.10016e-06
-1.56468e-08
-1.08477e-06
-3.19994e-08
-1.06324e-06
-4.84688e-08
-1.03568e-06
-6.48406e-08
-1.00225e-06
-8.08946e-08
-9.63181e-07
-9.64047e-08
-9.18795e-07
-1.11142e-07
-8.69465e-07
-1.24878e-07
-8.15637e-07
-1.3739e-07
-7.57821e-07
-1.48466e-07
-1.57908e-07
-5.34491e-07
1.50389e-07
-5.90314e-07
1.57643e-07
-6.47761e-07
1.64085e-07
-7.06419e-07
1.69543e-07
-7.65825e-07
1.73848e-07
-8.25474e-07
1.76837e-07
-8.84829e-07
1.78362e-07
-9.43323e-07
1.7829e-07
-1.00038e-06
1.76508e-07
-1.0554e-06
1.72928e-07
-1.10781e-06
1.67485e-07
-1.15704e-06
1.60144e-07
-1.20254e-06
1.50898e-07
-1.24379e-06
1.39766e-07
-1.2803e-06
1.268e-07
-1.31163e-06
1.12075e-07
-1.3374e-06
9.56966e-08
-1.35726e-06
7.77926e-08
-1.37091e-06
5.85165e-08
-1.37814e-06
3.80437e-08
-1.37878e-06
1.65755e-08
-1.37265e-06
-5.65863e-09
-1.3598e-06
-2.85006e-08
-1.34017e-06
-5.16251e-08
-1.31385e-06
-7.4789e-08
-1.28097e-06
-9.77213e-08
-1.24173e-06
-1.20139e-07
-1.19638e-06
-1.41752e-07
-1.14526e-06
-1.62266e-07
-1.08874e-06
-1.8139e-07
-1.0273e-06
-1.98837e-07
-9.6143e-07
-2.14332e-07
-2.27618e-07
-6.98839e-07
2.15168e-07
-7.65419e-07
2.24222e-07
-8.33317e-07
2.31984e-07
-9.02004e-07
2.3823e-07
-9.70907e-07
2.4275e-07
-1.03942e-06
2.45352e-07
-1.10692e-06
2.45865e-07
-1.17278e-06
2.44148e-07
-1.23636e-06
2.4009e-07
-1.29705e-06
2.33617e-07
-1.35425e-06
2.24686e-07
-1.4074e-06
2.13293e-07
-1.45597e-06
1.99469e-07
-1.49949e-06
1.83279e-07
-1.5375e-06
1.64818e-07
-1.56964e-06
1.44215e-07
-1.59557e-06
1.21625e-07
-1.61501e-06
9.72299e-08
-1.62773e-06
7.12352e-08
-1.63355e-06
4.38692e-08
-1.63237e-06
1.53871e-08
-1.62407e-06
-1.39578e-08
-1.60867e-06
-4.3895e-08
-1.5862e-06
-7.40984e-08
-1.55673e-06
-1.0426e-07
-1.5204e-06
-1.34053e-07
-1.47739e-06
-1.63141e-07
-1.42797e-06
-1.91178e-07
-1.37242e-06
-2.17811e-07
-1.31112e-06
-2.42689e-07
-1.2445e-06
-2.65465e-07
-1.17303e-06
-2.85801e-07
-3.03381e-07
-8.72761e-07
2.89968e-07
-9.48978e-07
3.0044e-07
-1.02602e-06
3.09029e-07
-1.10327e-06
3.15475e-07
-1.18006e-06
3.19542e-07
-1.25573e-06
3.21023e-07
-1.32961e-06
3.19749e-07
-1.40106e-06
3.15591e-07
-1.46943e-06
3.08461e-07
-1.53413e-06
2.98317e-07
-1.5946e-06
2.85156e-07
-1.65033e-06
2.69019e-07
-1.70084e-06
2.49986e-07
-1.74574e-06
2.28172e-07
-1.78464e-06
2.03723e-07
-1.81724e-06
1.76818e-07
-1.84328e-06
1.4766e-07
-1.86252e-06
1.16476e-07
-1.87481e-06
8.35174e-08
-1.87999e-06
4.90533e-08
-1.87799e-06
1.33818e-08
-1.86873e-06
-2.32171e-08
-1.85221e-06
-6.04087e-08
-1.82847e-06
-9.78445e-08
-1.79755e-06
-1.35172e-07
-1.75958e-06
-1.72023e-07
-1.71471e-06
-2.08012e-07
-1.66315e-06
-2.42745e-07
-1.60514e-06
-2.75817e-07
-1.54101e-06
-3.0682e-07
-1.47113e-06
-3.35348e-07
-1.39593e-06
-3.61e-07
-3.83395e-07
-1.05286e-06
3.73669e-07
-1.13744e-06
3.85019e-07
-1.22223e-06
3.93816e-07
-1.30653e-06
3.99778e-07
-1.38966e-06
4.02666e-07
-1.47092e-06
4.02283e-07
-1.54965e-06
3.98481e-07
-1.62522e-06
3.91165e-07
-1.69705e-06
3.80288e-07
-1.76459e-06
3.65854e-07
-1.82734e-06
3.47913e-07
-1.88488e-06
3.26558e-07
-1.93681e-06
3.01919e-07
-1.9828e-06
2.74159e-07
-2.02255e-06
2.43474e-07
-2.05582e-06
2.10083e-07
-2.08239e-06
1.74228e-07
-2.10208e-06
1.36173e-07
-2.11476e-06
9.61982e-08
-2.12031e-06
5.46046e-08
-2.11865e-06
1.17189e-08
-2.10971e-06
-3.21574e-08
-2.09347e-06
-7.66498e-08
-2.06992e-06
-1.2139e-07
-2.0391e-06
-1.65993e-07
-2.00107e-06
-2.10055e-07
-1.95593e-06
-2.53154e-07
-1.90382e-06
-2.94851e-07
-1.84494e-06
-3.34695e-07
-1.77954e-06
-3.72222e-07
-1.70793e-06
-4.06965e-07
-1.63046e-06
-1.23584e-06
4.65025e-07
-1.32744e-06
4.76618e-07
-1.41856e-06
4.84939e-07
-1.50849e-06
4.89713e-07
-1.59655e-06
4.90717e-07
-1.68205e-06
4.87788e-07
-1.76439e-06
4.8082e-07
-1.84299e-06
4.69765e-07
-1.91734e-06
4.54632e-07
-1.98696e-06
4.3548e-07
-2.05146e-06
4.12411e-07
-2.11047e-06
3.8557e-07
-2.16369e-06
3.55134e-07
-2.21084e-06
3.21309e-07
-2.25169e-06
2.84327e-07
-2.28604e-06
2.44439e-07
-2.31373e-06
2.01914e-07
-2.3346e-06
1.5704e-07
-2.34852e-06
1.10118e-07
-2.35538e-06
6.14649e-08
-2.35508e-06
1.14242e-08
-2.34756e-06
-3.96826e-08
-2.33274e-06
-9.14633e-08
-2.3106e-06
-1.43533e-07
-2.28111e-06
-1.95483e-07
-2.24428e-06
-2.46884e-07
-2.20016e-06
-2.97281e-07
-2.14881e-06
-3.462e-07
-2.09036e-06
-3.93143e-07
-2.02498e-06
-1.41858e-06
5.62748e-07
-1.51587e-06
5.73911e-07
-1.61201e-06
5.81075e-07
-1.70629e-06
5.83995e-07
-1.79806e-06
5.82489e-07
-1.88672e-06
5.76443e-07
-1.9717e-06
5.65806e-07
-2.05253e-06
5.5059e-07
-2.12876e-06
5.30861e-07
-2.20001e-06
5.06732e-07
-2.26596e-06
4.78358e-07
-2.32631e-06
4.45926e-07
-2.38083e-06
4.09653e-07
-2.4293e-06
3.69778e-07
-2.47154e-06
3.26559e-07
-2.50736e-06
2.80267e-07
-2.53664e-06
2.3119e-07
-2.55923e-06
1.79628e-07
-2.575e-06
1.25892e-07
-2.58385e-06
7.03107e-08
-2.58565e-06
1.32291e-08
-2.58033e-06
-4.50107e-08
-2.56777e-06
-1.04016e-07
-2.54792e-06
-1.6339e-07
-2.52069e-06
-2.22709e-07
-2.48605e-06
-2.81524e-07
-2.44397e-06
-3.39358e-07
-2.39447e-06
-3.95705e-07
-4.50036e-07
-1.59827e-06
6.65575e-07
-1.7e-06
6.75648e-07
-1.79995e-06
6.81025e-07
-1.89746e-06
6.81507e-07
-1.99194e-06
6.76969e-07
-2.08286e-06
6.67358e-07
-2.16974e-06
6.52687e-07
-2.25218e-06
6.33026e-07
-2.32981e-06
6.08496e-07
-2.40234e-06
5.79262e-07
-2.4695e-06
5.4552e-07
-2.53107e-06
5.07495e-07
-2.58685e-06
4.65433e-07
-2.63667e-06
4.19596e-07
-2.68037e-06
3.7026e-07
-2.71781e-06
3.17712e-07
-2.74887e-06
2.62247e-07
-2.77342e-06
2.04173e-07
-2.79133e-06
1.43805e-07
-2.80249e-06
8.14736e-08
-2.80678e-06
1.75223e-08
-2.8041e-06
-4.76945e-08
-2.79432e-06
-1.13792e-07
-2.77735e-06
-1.80367e-07
-2.75306e-06
-2.46992e-07
-2.72138e-06
-3.13208e-07
-2.68221e-06
-3.78525e-07
-2.6355e-06
-4.42418e-07
-5.04331e-07
-1.77238e-06
7.72307e-07
-1.87741e-06
7.80681e-07
-1.9801e-06
7.83713e-07
-2.07986e-06
7.81266e-07
-2.17617e-06
7.7328e-07
-2.26858e-06
7.59766e-07
-2.35669e-06
7.40798e-07
-2.44017e-06
7.16505e-07
-2.51873e-06
6.87057e-07
-2.59213e-06
6.52661e-07
-2.66016e-06
6.13548e-07
-2.72264e-06
5.69975e-07
-2.77941e-06
5.22208e-07
-2.83035e-06
4.70528e-07
-2.87531e-06
4.15226e-07
-2.91419e-06
3.56595e-07
-2.94689e-06
2.94939e-07
-2.97328e-06
2.30568e-07
-2.99327e-06
1.63797e-07
-3.00675e-06
9.49531e-08
-3.01361e-06
2.43763e-08
-3.01372e-06
-4.75795e-08
-3.00697e-06
-1.20539e-07
-2.99324e-06
-1.94106e-07
-2.97237e-06
-2.67856e-07
-2.94425e-06
-3.41333e-07
-2.90873e-06
-4.14045e-07
-2.86569e-06
-4.85461e-07
-5.55014e-07
-1.93867e-06
8.81822e-07
-2.04594e-06
8.8795e-07
-2.15039e-06
8.88156e-07
-2.25149e-06
8.82369e-07
-2.34881e-06
8.70597e-07
-2.44196e-06
8.52914e-07
-2.53061e-06
8.29453e-07
-2.61449e-06
8.0039e-07
-2.69338e-06
7.65942e-07
-2.76707e-06
7.26352e-07
-2.83541e-06
6.81883e-07
-2.89824e-06
6.32814e-07
-2.95547e-06
5.79435e-07
-3.00699e-06
5.22043e-07
-3.0527e-06
4.60938e-07
-3.09253e-06
3.96424e-07
-3.1264e-06
3.28809e-07
-3.15423e-06
2.58402e-07
-3.17595e-06
1.85518e-07
-3.19148e-06
1.10476e-07
-3.20071e-06
3.36072e-08
-3.20354e-06
-4.47443e-08
-3.19986e-06
-1.24218e-07
-3.18954e-06
-2.04434e-07
-3.17241e-06
-2.84984e-07
-3.14831e-06
-3.65427e-07
-3.11707e-06
-4.45284e-07
-3.0785e-06
-5.24032e-07
-6.01108e-07
-2.09512e-06
9.93057e-07
-2.20362e-06
9.9645e-07
-2.30887e-06
9.93405e-07
-2.41042e-06
9.83921e-07
-2.50789e-06
9.68069e-07
-2.60096e-06
9.45984e-07
-2.68936e-06
9.1785e-07
-2.77286e-06
8.83891e-07
-2.85128e-06
8.44362e-07
-2.92447e-06
7.99541e-07
-2.99231e-06
7.49721e-07
-3.0547e-06
6.95208e-07
-3.11158e-06
6.36312e-07
-3.16288e-06
5.73346e-07
-3.20857e-06
5.06624e-07
-3.2486e-06
4.36459e-07
-3.28296e-06
3.63162e-07
-3.3116e-06
2.87042e-07
-3.33449e-06
2.08409e-07
-3.35158e-06
1.27571e-07
-3.36282e-06
4.48425e-08
-3.36811e-06
-3.9448e-08
-3.36737e-06
-1.24958e-07
-3.36046e-06
-2.11343e-07
-3.34723e-06
-2.98217e-07
-3.32749e-06
-3.85167e-07
-3.30103e-06
-4.71743e-07
-3.26762e-06
-5.57446e-07
-6.41734e-07
-2.23987e-06
1.10498e-06
-2.3486e-06
1.10518e-06
-2.45369e-06
1.09849e-06
-2.55474e-06
1.08497e-06
-2.65143e-06
1.06476e-06
-2.74348e-06
1.03804e-06
-2.83068e-06
1.00504e-06
-2.91283e-06
9.66046e-07
-2.98981e-06
9.21339e-07
-3.06151e-06
8.71237e-07
-3.12785e-06
8.16067e-07
-3.1888e-06
7.5616e-07
-3.24434e-06
6.9185e-07
-3.29447e-06
6.23471e-07
-3.33919e-06
5.51351e-07
-3.37855e-06
4.75811e-07
-3.41255e-06
3.97166e-07
-3.44123e-06
3.15723e-07
-3.4646e-06
2.31781e-07
-3.48267e-06
1.45636e-07
-3.4954e-06
5.75794e-08
-3.50277e-06
-3.20869e-08
-3.50469e-06
-1.23038e-07
-3.50105e-06
-2.14978e-07
-3.49171e-06
-3.07555e-07
-3.47648e-06
-4.00399e-07
-3.45513e-06
-4.93097e-07
-3.42738e-06
-5.85194e-07
-6.76186e-07
-2.37118e-06
1.21654e-06
-2.47912e-06
1.21312e-06
-2.58302e-06
1.2024e-06
-2.68255e-06
1.1845e-06
-2.77742e-06
1.15963e-06
-2.8674e-06
1.12802e-06
-2.95232e-06
1.08996e-06
-3.03203e-06
1.04576e-06
-3.10646e-06
9.95769e-07
-3.17556e-06
9.40332e-07
-3.2393e-06
8.79814e-07
-3.29772e-06
8.14577e-07
-3.35086e-06
7.44984e-07
-3.39877e-06
6.71388e-07
-3.44155e-06
5.94132e-07
-3.47929e-06
5.13546e-07
-3.51207e-06
4.29945e-07
-3.53998e-06
3.43632e-07
-3.56309e-06
2.54893e-07
-3.58146e-06
1.64007e-07
-3.59512e-06
7.12369e-08
-3.60405e-06
-2.31563e-08
-3.60823e-06
-1.18852e-07
-3.60758e-06
-2.15628e-07
-3.60197e-06
-3.13172e-07
-3.5912e-06
-4.11162e-07
-3.57506e-06
-5.09241e-07
-3.55324e-06
-6.07008e-07
-7.04013e-07
-2.48747e-06
1.32668e-06
-2.59354e-06
1.31919e-06
-2.69518e-06
1.30404e-06
-2.79209e-06
1.28141e-06
-2.88402e-06
1.25156e-06
-2.9708e-06
1.2148e-06
-3.05229e-06
1.17145e-06
-3.12842e-06
1.12189e-06
-3.19915e-06
1.06651e-06
-3.26451e-06
1.00569e-06
-3.32455e-06
9.39854e-07
-3.37936e-06
8.69387e-07
-3.42906e-06
7.9468e-07
-3.47378e-06
7.16109e-07
-3.51368e-06
6.3403e-07
-3.54891e-06
5.48778e-07
-3.57963e-06
4.60668e-07
-3.606e-06
3.69993e-07
-3.62813e-06
2.77025e-07
-3.64614e-06
1.82018e-07
-3.66011e-06
8.5208e-08
-3.67005e-06
-1.32122e-08
-3.67602e-06
-1.12885e-07
-3.67794e-06
-2.13707e-07
-3.67571e-06
-3.15401e-07
-3.66918e-06
-4.17699e-07
-3.65811e-06
-5.20307e-07
-3.64223e-06
-6.22891e-07
-7.25069e-07
-2.58732e-06
1.43432e-06
-2.69043e-06
1.4223e-06
-2.7887e-06
1.4023e-06
-2.88185e-06
1.37457e-06
-2.96971e-06
1.33942e-06
-3.05214e-06
1.29723e-06
-3.12908e-06
1.24838e-06
-3.20051e-06
1.19332e-06
-3.26646e-06
1.13246e-06
-3.32704e-06
1.06627e-06
-3.38237e-06
9.95185e-07
-3.43262e-06
9.19634e-07
-3.47798e-06
8.40037e-07
-3.51865e-06
7.56785e-07
-3.55487e-06
6.70245e-07
-3.58685e-06
5.80757e-07
-3.61481e-06
4.88628e-07
-3.63895e-06
3.94137e-07
-3.65946e-06
2.97538e-07
-3.6765e-06
1.99059e-07
-3.69021e-06
9.89138e-08
-3.7006e-06
-2.82263e-09
-3.70782e-06
-1.0566e-07
-3.71181e-06
-2.09722e-07
-3.7125e-06
-3.14713e-07
-3.70976e-06
-4.20433e-07
-3.70341e-06
-5.26658e-07
-3.69318e-06
-6.33127e-07
-7.39535e-07
-2.66957e-06
1.53836e-06
-2.76862e-06
1.52136e-06
-2.86241e-06
1.49609e-06
-2.95072e-06
1.46288e-06
-3.03343e-06
1.42213e-06
-3.11046e-06
1.37426e-06
-3.18181e-06
1.31974e-06
-3.24755e-06
1.25906e-06
-3.30781e-06
1.19272e-06
-3.36273e-06
1.1212e-06
-3.41255e-06
1.045e-06
-3.45749e-06
9.64573e-07
-3.49781e-06
8.80364e-07
-3.53381e-06
7.92778e-07
-3.56575e-06
7.02187e-07
-3.59392e-06
6.08926e-07
-3.61858e-06
5.13293e-07
-3.64e-06
4.15551e-07
-3.65839e-06
3.15929e-07
-3.67395e-06
2.14625e-07
-3.68685e-06
1.11812e-07
-3.69726e-06
7.58197e-09
-3.70516e-06
-9.77538e-08
-3.71065e-06
-2.0423e-07
-3.7137e-06
-3.1167e-07
-3.7142e-06
-4.1993e-07
-3.712e-06
-5.28853e-07
-3.70688e-06
-6.38252e-07
-7.47905e-07
-2.73335e-06
1.63777e-06
-2.82732e-06
1.61532e-06
-2.91561e-06
1.58438e-06
-2.99809e-06
1.54536e-06
-3.07469e-06
1.49872e-06
-3.14542e-06
1.44499e-06
-3.21036e-06
1.38468e-06
-3.26965e-06
1.31835e-06
-3.32351e-06
1.24657e-06
-3.37216e-06
1.16986e-06
-3.41591e-06
1.08874e-06
-3.45505e-06
1.00372e-06
-3.48992e-06
9.15235e-07
-3.52085e-06
8.23709e-07
-3.54818e-06
7.29511e-07
-3.57222e-06
6.32966e-07
-3.59328e-06
5.34356e-07
-3.61165e-06
4.33924e-07
-3.62759e-06
3.3187e-07
-3.64133e-06
2.28364e-07
-3.65306e-06
1.23538e-07
-3.66296e-06
1.74882e-08
-3.6711e-06
-8.96187e-08
-3.67756e-06
-1.9777e-07
-3.68236e-06
-3.06873e-07
-3.68544e-06
-4.16844e-07
-3.68671e-06
-5.27591e-07
-3.68596e-06
-6.38999e-07
-7.50925e-07
-2.68439e-06
1.75084e-06
-2.77822e-06
1.7316e-06
-2.86618e-06
1.70328e-06
-2.94811e-06
1.66631e-06
-3.02394e-06
1.62119e-06
-3.09368e-06
1.56847e-06
-3.15744e-06
1.50874e-06
-3.21538e-06
1.44262e-06
-3.26773e-06
1.3707e-06
-3.31476e-06
1.29361e-06
-3.35682e-06
1.21191e-06
-3.39424e-06
1.12616e-06
-3.4274e-06
1.03687e-06
-3.45667e-06
9.44508e-07
-3.48244e-06
8.49475e-07
-3.50506e-06
7.52137e-07
-3.5249e-06
6.52804e-07
-3.54228e-06
5.51738e-07
-3.55751e-06
4.49153e-07
-3.57087e-06
3.45225e-07
-3.58259e-06
2.40088e-07
-3.5929e-06
1.33844e-07
-3.60197e-06
2.65656e-08
-3.60993e-06
-8.16624e-08
-3.61687e-06
-1.90831e-07
-3.62284e-06
-3.00903e-07
-3.62783e-06
-4.1185e-07
-3.63179e-06
-5.23637e-07
-3.63457e-06
-6.36217e-07
-7.4952e-07
-2.7167e-06
1.84434e-06
-2.80415e-06
1.81904e-06
-2.88535e-06
1.78448e-06
-2.96024e-06
1.7412e-06
-3.02883e-06
1.68978e-06
-3.09123e-06
1.63087e-06
-3.14762e-06
1.56513e-06
-3.19825e-06
1.49325e-06
-3.24344e-06
1.4159e-06
-3.28355e-06
1.33372e-06
-3.31897e-06
1.24733e-06
-3.35011e-06
1.1573e-06
-3.37738e-06
1.06414e-06
-3.40119e-06
9.68322e-07
-3.42195e-06
8.70239e-07
-3.44005e-06
7.70238e-07
-3.45586e-06
6.68606e-07
-3.4697e-06
5.65578e-07
-3.48188e-06
4.61342e-07
-3.4927e-06
3.56041e-07
-3.50239e-06
2.49779e-07
-3.51117e-06
1.42628e-07
-3.51924e-06
3.46294e-08
-3.52672e-06
-7.41822e-08
-3.53373e-06
-1.83817e-07
-3.54035e-06
-2.94281e-07
-3.54661e-06
-4.0559e-07
-3.55249e-06
-5.17758e-07
-3.55791e-06
-6.30794e-07
-7.44694e-07
-2.73112e-06
1.93121e-06
-2.81156e-06
1.89948e-06
-2.88548e-06
1.8584e-06
-2.95289e-06
1.80861e-06
-3.01391e-06
1.7508e-06
-3.06873e-06
1.68569e-06
-3.11763e-06
1.61403e-06
-3.16095e-06
1.53657e-06
-3.19908e-06
1.45402e-06
-3.23244e-06
1.36708e-06
-3.26148e-06
1.27636e-06
-3.28664e-06
1.18246e-06
-3.30837e-06
1.08587e-06
-3.32711e-06
9.87059e-07
-3.34326e-06
8.86395e-07
-3.35722e-06
7.84201e-07
-3.36935e-06
6.80736e-07
-3.37998e-06
5.76205e-07
-3.3894e-06
4.70765e-07
-3.39789e-06
3.64527e-07
-3.40568e-06
2.57567e-07
-3.41298e-06
1.49927e-07
-3.41997e-06
4.1622e-08
-3.4268e-06
-6.73511e-08
-3.4336e-06
-1.77022e-07
-3.44045e-06
-2.87431e-07
-3.44741e-06
-3.98625e-07
-3.45451e-06
-5.10659e-07
-3.46172e-06
-6.23582e-07
-7.37445e-07
-2.72828e-06
2.01095e-06
-2.80131e-06
1.97251e-06
-2.86765e-06
1.92474e-06
-2.9274e-06
1.86836e-06
-2.98078e-06
1.80417e-06
-3.02807e-06
1.73298e-06
-3.06964e-06
1.6556e-06
-3.10591e-06
1.57284e-06
-3.13733e-06
1.48544e-06
-3.16437e-06
1.39412e-06
-3.18751e-06
1.29951e-06
-3.20724e-06
1.20218e-06
-3.224e-06
1.10264e-06
-3.23824e-06
1.0013e-06
-3.25036e-06
8.98515e-07
-3.26073e-06
7.94578e-07
-3.26971e-06
6.89712e-07
-3.27759e-06
5.84088e-07
-3.28466e-06
4.77831e-07
-3.29115e-06
3.71021e-07
-3.29729e-06
2.63706e-07
-3.30327e-06
1.55902e-07
-3.30924e-06
4.76002e-08
-3.31537e-06
-6.12267e-08
-3.32176e-06
-1.70628e-07
-3.32853e-06
-2.80664e-07
-3.33575e-06
-3.91406e-07
-3.34347e-06
-5.02935e-07
-3.35172e-06
-6.15333e-07
-7.28688e-07
-2.70917e-06
2.08326e-06
-2.77462e-06
2.03797e-06
-2.83333e-06
1.98344e-06
-2.88548e-06
1.92052e-06
-2.9314e-06
1.85009e-06
-2.97146e-06
1.77304e-06
-3.00611e-06
1.69025e-06
-3.03582e-06
1.60255e-06
-3.0611e-06
1.51072e-06
-3.08245e-06
1.41547e-06
-3.10038e-06
1.31744e-06
-3.11537e-06
1.21717e-06
-3.12788e-06
1.11514e-06
-3.13832e-06
1.01174e-06
-3.1471e-06
9.07289e-07
-3.15455e-06
8.02027e-07
-3.16098e-06
6.96147e-07
-3.16668e-06
5.89784e-07
-3.17188e-06
4.8303e-07
-3.17679e-06
3.75938e-07
-3.18162e-06
2.68528e-07
-3.18651e-06
1.60794e-07
-3.19162e-06
5.27107e-08
-3.19708e-06
-5.57687e-08
-3.203e-06
-1.64705e-07
-3.20949e-06
-2.74173e-07
-3.21664e-06
-3.84258e-07
-3.22452e-06
-4.95054e-07
-3.23319e-06
-6.06664e-07
-7.19199e-07
-2.67509e-06
2.14809e-06
-2.73302e-06
2.0959e-06
-2.78425e-06
2.03468e-06
-2.82911e-06
1.96538e-06
-2.86798e-06
1.88896e-06
-2.90132e-06
1.80638e-06
-2.92964e-06
1.71857e-06
-2.95346e-06
1.62637e-06
-2.97333e-06
1.53058e-06
-2.98976e-06
1.43191e-06
-3.00328e-06
1.33095e-06
-3.01434e-06
1.22824e-06
-3.02339e-06
1.1242e-06
-3.03083e-06
1.01918e-06
-3.037e-06
9.13462e-07
-3.04222e-06
8.07249e-07
-3.04676e-06
7.00689e-07
-3.05086e-06
5.93882e-07
-3.05472e-06
4.86887e-07
-3.05851e-06
3.7973e-07
-3.06239e-06
2.72408e-07
-3.06649e-06
1.64899e-07
-3.07094e-06
5.71601e-08
-3.07585e-06
-5.08634e-08
-3.08131e-06
-1.59241e-07
-3.08744e-06
-2.68051e-07
-3.09431e-06
-3.77386e-07
-3.10202e-06
-4.87344e-07
-3.11065e-06
-5.98036e-07
-7.09585e-07
-2.62756e-06
2.20556e-06
-2.67821e-06
2.14655e-06
-2.72235e-06
2.07882e-06
-2.76039e-06
2.00341e-06
-2.79279e-06
1.92136e-06
-2.82007e-06
1.83367e-06
-2.8428e-06
1.7413e-06
-2.86154e-06
1.64511e-06
-2.87682e-06
1.54587e-06
-2.8892e-06
1.44428e-06
-2.89914e-06
1.3409e-06
-2.90712e-06
1.23621e-06
-2.91354e-06
1.13061e-06
-2.91874e-06
1.02439e-06
-2.92306e-06
9.17777e-07
-2.92675e-06
8.10936e-07
-2.93003e-06
7.03975e-07
-2.93311e-06
5.96958e-07
-2.93614e-06
4.89914e-07
-2.93925e-06
3.82844e-07
-2.94257e-06
2.75726e-07
-2.94619e-06
1.68523e-07
-2.95022e-06
6.11849e-08
-2.95473e-06
-4.63502e-08
-2.95982e-06
-1.54153e-07
-2.96557e-06
-2.62303e-07
-2.97207e-06
-3.70887e-07
-2.97941e-06
-4.80003e-07
-2.98768e-06
-5.89759e-07
-7.0028e-07
-2.56822e-06
2.25599e-06
-2.61202e-06
2.19035e-06
-2.64961e-06
2.1164e-06
-2.68145e-06
2.03525e-06
-2.70809e-06
1.948e-06
-2.7301e-06
1.85568e-06
-2.74806e-06
1.75926e-06
-2.76256e-06
1.6596e-06
-2.77414e-06
1.55745e-06
-2.78331e-06
1.45345e-06
-2.79054e-06
1.34813e-06
-2.79626e-06
1.24193e-06
-2.80083e-06
1.13518e-06
-2.80455e-06
1.02811e-06
-2.8077e-06
9.20926e-07
-2.81049e-06
8.13727e-07
-2.81311e-06
7.06588e-07
-2.81569e-06
5.99538e-07
-2.81835e-06
4.92579e-07
-2.8212e-06
3.8569e-07
-2.8243e-06
2.78834e-07
-2.82774e-06
1.71964e-07
-2.83158e-06
6.50241e-08
-2.83589e-06
-4.20482e-08
-2.84072e-06
-1.49322e-07
-2.84615e-06
-2.5687e-07
-2.85227e-06
-3.64772e-07
-2.85915e-06
-4.73117e-07
-2.86691e-06
-5.82005e-07
-6.9155e-07
-2.49879e-06
2.29982e-06
-2.5363e-06
2.22786e-06
-2.56797e-06
2.14807e-06
-2.59435e-06
2.06163e-06
-2.61601e-06
1.96967e-06
-2.63357e-06
1.87325e-06
-2.64763e-06
1.77332e-06
-2.65875e-06
1.67072e-06
-2.66747e-06
1.56617e-06
-2.67427e-06
1.46026e-06
-2.6796e-06
1.35346e-06
-2.68382e-06
1.24615e-06
-2.68725e-06
1.13861e-06
-2.69016e-06
1.03102e-06
-2.69275e-06
9.2352e-07
-2.6952e-06
8.16179e-07
-2.69764e-06
7.09029e-07
-2.70018e-06
6.0207e-07
-2.70288e-06
4.95279e-07
-2.7058e-06
3.88617e-07
-2.70901e-06
2.82037e-07
-2.71252e-06
1.75483e-07
-2.7164e-06
6.88981e-08
-2.72067e-06
-3.77769e-08
-2.72538e-06
-1.44607e-07
-2.7306e-06
-2.73638e-06
-2.74281e-06
-2.74999e-06
-2.42095e-06
2.33764e-06
-2.45282e-06
2.25974e-06
-2.4793e-06
2.17455e-06
-2.50099e-06
2.08331e-06
-2.51849e-06
1.98717e-06
-2.53243e-06
1.88719e-06
-2.54341e-06
1.78429e-06
-2.55197e-06
1.67929e-06
-2.55863e-06
1.57283e-06
-2.56384e-06
1.46546e-06
-2.56797e-06
1.3576e-06
-2.57137e-06
1.24954e-06
-2.57428e-06
1.14152e-06
-2.57693e-06
1.03367e-06
-2.57947e-06
9.26065e-07
-2.58204e-06
8.18745e-07
-2.58471e-06
7.11703e-07
-2.58755e-06
6.04913e-07
-2.59061e-06
4.98331e-07
-2.59389e-06
3.91905e-07
-2.59744e-06
2.85579e-07
-2.60125e-06
1.79294e-07
-2.60534e-06
7.29945e-08
-2.60975e-06
-3.33746e-08
-1.39871e-07
-2.33631e-06
2.37007e-06
-2.36324e-06
2.28668e-06
-2.38529e-06
2.19659e-06
-2.40306e-06
2.10108e-06
-2.4172e-06
2.00131e-06
-2.42832e-06
1.89831e-06
-2.437e-06
1.79297e-06
-2.44376e-06
1.68605e-06
-2.44907e-06
1.57814e-06
-2.45334e-06
1.46973e-06
-2.45689e-06
1.36115e-06
-2.46001e-06
1.25266e-06
-2.46291e-06
1.14442e-06
-2.46575e-06
1.0365e-06
-2.46864e-06
9.28958e-07
-2.47167e-06
8.21771e-07
-2.47487e-06
7.14912e-07
-2.47829e-06
6.0833e-07
-2.48193e-06
5.01965e-07
-2.48578e-06
3.95756e-07
-2.48984e-06
2.8964e-07
-2.4941e-06
1.83559e-07
-2.49857e-06
7.74598e-08
-2.50324e-06
-2.87054e-08
-1.34985e-07
-2.24634e-06
2.39779e-06
-2.26906e-06
2.30939e-06
-2.2874e-06
2.21494e-06
-2.30202e-06
2.1157e-06
-2.31355e-06
2.01283e-06
-2.32257e-06
1.90733e-06
-2.32965e-06
1.80005e-06
-2.33526e-06
1.69166e-06
-2.33983e-06
1.58271e-06
-2.34371e-06
1.47361e-06
-2.34718e-06
1.36462e-06
-2.35047e-06
1.25595e-06
-2.35374e-06
1.14768e-06
-2.35709e-06
1.03986e-06
-2.36062e-06
9.32481e-07
-2.36434e-06
8.255e-07
-2.36829e-06
7.18862e-07
-2.37246e-06
6.12496e-07
-2.37683e-06
5.06332e-07
-2.38137e-06
4.00301e-07
-2.38607e-06
2.94337e-07
-2.3909e-06
1.88386e-07
-2.39584e-06
8.23986e-08
-2.40088e-06
-2.36653e-08
-1.29843e-07
-2.15235e-06
2.42148e-06
-2.17155e-06
2.3286e-06
-2.18692e-06
2.2303e-06
-2.19908e-06
2.12787e-06
-2.20867e-06
2.02242e-06
-2.21624e-06
1.91491e-06
-2.22232e-06
1.80612e-06
-2.22733e-06
1.69667e-06
-2.23165e-06
1.58703e-06
-2.23558e-06
1.47753e-06
-2.23934e-06
1.36839e-06
-2.24312e-06
1.25972e-06
-2.24702e-06
1.15158e-06
-2.25112e-06
1.04396e-06
-2.25546e-06
9.36817e-07
-2.26004e-06
8.3008e-07
-2.26485e-06
7.2367e-07
-2.26986e-06
6.17507e-07
-2.27503e-06
5.1151e-07
-2.28034e-06
4.05606e-07
-2.28573e-06
2.99733e-07
-2.29118e-06
1.93836e-07
-2.29666e-06
8.78744e-08
-2.30214e-06
-1.81839e-08
-1.24366e-07
-2.05549e-06
2.44178e-06
-2.07184e-06
2.34494e-06
-2.08486e-06
2.24333e-06
-2.0952e-06
2.13821e-06
-2.10344e-06
2.03066e-06
-2.11011e-06
1.92158e-06
-2.11567e-06
1.81168e-06
-2.12052e-06
1.70152e-06
-2.12496e-06
1.59148e-06
-2.12926e-06
1.48183e-06
-2.13359e-06
1.37272e-06
-2.13807e-06
1.2642e-06
-2.14278e-06
1.15629e-06
-2.14775e-06
1.04894e-06
-2.153e-06
9.42062e-07
-2.15849e-06
8.35575e-07
-2.1642e-06
7.29383e-07
-2.17009e-06
6.23392e-07
-2.1761e-06
5.17518e-07
-2.18218e-06
4.11687e-07
-2.18828e-06
3.0584e-07
-2.19438e-06
1.99927e-07
-2.20042e-06
9.39147e-08
-2.20638e-06
-1.22214e-08
-1.18499e-07
-1.95671e-06
2.45932e-06
-1.97079e-06
2.35902e-06
-1.98206e-06
2.25459e-06
-1.99111e-06
2.14726e-06
-1.99849e-06
2.03804e-06
-2.0047e-06
1.92778e-06
-2.01014e-06
1.81712e-06
-2.01515e-06
1.70653e-06
-2.02e-06
1.59633e-06
-2.02488e-06
1.48672e-06
-2.02994e-06
1.37777e-06
-2.03525e-06
1.26951e-06
-2.04085e-06
1.16189e-06
-2.04675e-06
1.05484e-06
-2.05292e-06
9.48237e-07
-2.05934e-06
8.41989e-07
-2.06594e-06
7.35985e-07
-2.07267e-06
6.30126e-07
-2.07948e-06
5.24327e-07
-2.08631e-06
4.18516e-07
-2.09311e-06
3.12636e-07
-2.09983e-06
2.06646e-07
-2.10643e-06
1.00518e-07
-2.11289e-06
-5.76565e-09
-1.85678e-06
2.47464e-06
-1.86914e-06
2.37137e-06
-1.87913e-06
2.26459e-06
-1.88734e-06
2.15547e-06
-1.89427e-06
2.04497e-06
-1.90035e-06
1.93387e-06
-1.90596e-06
1.82273e-06
-1.91137e-06
1.71194e-06
-1.9168e-06
1.60176e-06
-1.92241e-06
1.49232e-06
-1.92828e-06
1.38364e-06
-1.93446e-06
1.2757e-06
-1.94096e-06
1.1684e-06
-1.94777e-06
1.06165e-06
-1.95485e-06
9.5531e-07
-1.96213e-06
8.49273e-07
-1.96957e-06
7.4342e-07
-1.97709e-06
6.3765e-07
-1.98464e-06
5.31879e-07
-1.99216e-06
4.26037e-07
-1.9996e-06
3.20074e-07
-2.00691e-06
2.13955e-07
-2.01405e-06
1.07658e-07
1.1755e-09
-1.75632e-06
2.48823e-06
-1.7674e-06
2.38245e-06
-1.77653e-06
2.27373e-06
-1.78426e-06
2.1632e-06
-1.79104e-06
2.05175e-06
-1.79726e-06
1.94009e-06
-1.80323e-06
1.82869e-06
-1.80919e-06
1.7179e-06
-1.8153e-06
1.60787e-06
-1.82168e-06
1.4987e-06
-1.82838e-06
1.39034e-06
-1.83542e-06
1.28274e-06
-1.84279e-06
1.17577e-06
-1.85045e-06
1.06931e-06
-1.85835e-06
9.63208e-07
-1.86642e-06
8.57346e-07
-1.87461e-06
7.51603e-07
-1.88283e-06
6.45878e-07
-1.89105e-06
5.4009e-07
-1.89918e-06
4.34175e-07
-1.9072e-06
3.28087e-07
-1.91504e-06
-1.92268e-06
-1.65579e-06
2.5005e-06
-1.66596e-06
2.39262e-06
-1.67457e-06
2.28234e-06
-1.6821e-06
2.17072e-06
-1.68896e-06
2.05861e-06
-1.69548e-06
1.94661e-06
-1.70193e-06
1.83515e-06
-1.70851e-06
1.72447e-06
-1.71533e-06
1.6147e-06
-1.72248e-06
1.50584e-06
-1.72998e-06
1.39784e-06
-1.73783e-06
1.29059e-06
-1.74599e-06
1.18393e-06
-1.75441e-06
1.07773e-06
-1.76303e-06
9.71831e-07
-1.77179e-06
8.66105e-07
-1.78062e-06
7.60431e-07
-1.78945e-06
6.54711e-07
-1.79823e-06
5.48867e-07
-1.8069e-06
4.42844e-07
3.366e-07
-1.55553e-06
2.5118e-06
-1.5651e-06
2.40218e-06
-1.57343e-06
2.29067e-06
-1.58096e-06
2.17825e-06
-1.58804e-06
2.0657e-06
-1.59498e-06
1.95355e-06
-1.60197e-06
1.84215e-06
-1.60919e-06
1.73168e-06
-1.61671e-06
1.62222e-06
-1.62458e-06
1.51371e-06
-1.6328e-06
1.40607e-06
-1.64136e-06
1.29914e-06
-1.6502e-06
1.19277e-06
-1.65928e-06
1.0868e-06
-1.66851e-06
9.81067e-07
-1.67784e-06
8.75437e-07
-1.68721e-06
7.69793e-07
-1.69654e-06
6.64042e-07
-1.70578e-06
5.58113e-07
-1.7149e-06
4.51956e-07
3.45536e-07
-1.45578e-06
2.5224e-06
-1.46497e-06
2.41137e-06
-1.47321e-06
2.2989e-06
-1.48087e-06
2.18591e-06
-1.48828e-06
2.0731e-06
-1.49566e-06
1.96093e-06
-1.50321e-06
1.84969e-06
-1.51103e-06
1.7395e-06
-1.51919e-06
1.63038e-06
-1.5277e-06
1.52223e-06
-1.53656e-06
1.41493e-06
-1.54572e-06
1.30831e-06
-1.55514e-06
1.20219e-06
-1.56474e-06
1.09641e-06
-1.57447e-06
9.90796e-07
-1.58426e-06
8.85225e-07
-1.59405e-06
7.79579e-07
-1.60377e-06
6.7377e-07
-1.6134e-06
5.67733e-07
-1.62287e-06
4.61426e-07
3.54821e-07
-1.35668e-06
2.53252e-06
-1.36567e-06
2.42036e-06
-1.37393e-06
2.30717e-06
-1.38181e-06
2.19379e-06
-1.38957e-06
2.08086e-06
-1.39742e-06
1.96878e-06
-1.40548e-06
1.85776e-06
-1.41386e-06
1.74788e-06
-1.42257e-06
1.63909e-06
-1.43163e-06
1.53129e-06
-1.44101e-06
1.4243e-06
-1.45065e-06
1.31795e-06
-1.46052e-06
1.21205e-06
-1.47053e-06
1.10642e-06
-1.48064e-06
1.0009e-06
-1.49077e-06
8.95358e-07
-1.50088e-06
7.89684e-07
-1.5109e-06
6.83797e-07
-1.52081e-06
5.7764e-07
-1.53056e-06
4.71177e-07
3.64387e-07
-1.2583e-06
2.54231e-06
-1.26721e-06
2.42927e-06
-1.27558e-06
2.31554e-06
-1.28371e-06
2.20193e-06
-1.29183e-06
2.08898e-06
-1.3001e-06
1.97705e-06
-1.30862e-06
1.86628e-06
-1.31746e-06
1.75672e-06
-1.32663e-06
1.64826e-06
-1.33613e-06
1.54078e-06
-1.34591e-06
1.43408e-06
-1.35592e-06
1.32797e-06
-1.36612e-06
1.22225e-06
-1.37643e-06
1.11673e-06
-1.3868e-06
1.01127e-06
-1.39717e-06
9.0573e-07
-1.4075e-06
8.0001e-07
-1.41773e-06
6.94034e-07
-1.42785e-06
5.87752e-07
-1.4378e-06
4.81136e-07
3.7417e-07
-1.1607e-06
2.55189e-06
-1.16959e-06
2.43816e-06
-1.1781e-06
2.32405e-06
-1.18648e-06
2.21031e-06
-1.19492e-06
2.09742e-06
-1.20356e-06
1.98568e-06
-1.21246e-06
1.87519e-06
-1.22167e-06
1.76593e-06
-1.2312e-06
1.65779e-06
-1.24101e-06
1.5506e-06
-1.25108e-06
1.44415e-06
-1.26134e-06
1.33823e-06
-1.27175e-06
1.23266e-06
-1.28225e-06
1.12723e-06
-1.29278e-06
1.0218e-06