/*--------------------------------*- C++ -*----------------------------------*\
  =========                 |
  \\      /  F ield         | OpenFOAM: The Open Source CFD Toolbox
   \\    /   O peration     | Website:  https://openfoam.org
    \\  /    A nd           | Version:  9
     \\/     M anipulation  |
\*---------------------------------------------------------------------------*/
FoamFile
{
    format      ascii;
    class       volVectorField;
    location    "0.25";
    object      U;
}
// * * * * * * * * * * * * * * * * * * * * * * * * * * * * * * * * * * * * * //

dimensions      [0 1 -1 0 0 0 0];

internalField   nonuniform List<vector> 
1250
(
(-2.71215e-05 0.00302914 0)
(-0.000189052 0.00816698 0)
(-2.74551e-05 0.00312734 0)
(-0.00019174 0.00843431 0)
(-0.000540491 0.0129014 0)
(-0.00102313 0.0166238 0)
(-0.00161415 0.0196876 0)
(-0.00229504 0.0221724 0)
(-0.00304794 0.0241526 0)
(-0.00385695 0.0256985 0)
(-0.00470863 0.0268761 0)
(-0.00559177 0.0277462 0)
(-0.00649725 0.0283643 0)
(-0.00741783 0.0287792 0)
(-0.00834788 0.0290331 0)
(-0.00928318 0.0291615 0)
(-0.0102206 0.0291933 0)
(-0.011158 0.0291513 0)
(-0.0120938 0.0290534 0)
(-0.0130269 0.0289128 0)
(-0.0139569 0.0287392 0)
(-0.0148833 0.0285395 0)
(-0.015806 0.0283186 0)
(-0.016725 0.0280796 0)
(-0.0176405 0.0278246 0)
(-0.0185527 0.0275551 0)
(-0.0194618 0.0272717 0)
(-0.0203682 0.0269749 0)
(-0.0212723 0.026665 0)
(-0.0221742 0.0263419 0)
(-0.0230748 0.0260053 0)
(-0.0239745 0.0256543 0)
(-0.0248734 0.0252883 0)
(-0.0257724 0.0249067 0)
(-0.0266719 0.0245089 0)
(-0.0275731 0.0240941 0)
(-2.78021e-05 0.00322692 0)
(-0.000194543 0.00870574 0)
(-0.000548817 0.0133191 0)
(-0.00103936 0.0171641 0)
(-0.00164024 0.0203289 0)
(-0.0023326 0.0228953 0)
(-0.00309818 0.02494 0)
(-0.00392073 0.0265356 0)
(-0.00478652 0.0277505 0)
(-0.00568409 0.0286477 0)
(-0.00660413 0.0292845 0)
(-0.00753923 0.0297116 0)
(-0.0084837 0.0299729 0)
(-0.00943322 0.0301049 0)
(-0.0103846 0.0301376 0)
(-0.0113358 0.0300947 0)
(-0.012285 0.0299946 0)
(-0.0132315 0.029851 0)
(-0.0141745 0.0296739 0)
(-0.0151138 0.0294705 0)
(-0.0160493 0.0292458 0)
(-0.016981 0.0290032 0)
(-0.0179092 0.0287448 0)
(-0.018834 0.0284721 0)
(-0.0197558 0.0281859 0)
(-0.0206751 0.0278868 0)
(-0.0215923 0.0275748 0)
(-0.0225078 0.0272501 0)
(-0.023422 0.0269123 0)
(-0.0243355 0.0265608 0)
(-0.0252491 0.0261948 0)
(-0.0261633 0.0258139 0)
(-0.0270789 0.0254175 0)
(-0.0279962 0.0250047 0)
(-0.0289171 0.0245746 0)
(-0.0298413 0.0241258 0)
(-0.0307698 0.0236571 0)
(-0.0317033 0.023167 0)
(-0.0326423 0.022654 0)
(-0.0335875 0.0221161 0)
(-0.0345394 0.0215514 0)
(-0.0354982 0.0209573 0)
(-0.0364655 0.0203312 0)
(-2.81657e-05 0.00332795 0)
(-0.000197463 0.00898142 0)
(-0.000557485 0.0137436 0)
(-0.00105624 0.0177134 0)
(-0.00166737 0.0209811 0)
(-0.00237161 0.0236304 0)
(-0.00315031 0.0257407 0)
(-0.00398686 0.0273868 0)
(-0.00486719 0.0286394 0)
(-0.00577959 0.0295638 0)
(-0.00671455 0.0302194 0)
(-0.00766451 0.0306587 0)
(-0.00862366 0.0309271 0)
(-0.00958762 0.0310624 0)
(-0.0105532 0.0310958 0)
(-0.0115182 0.0310517 0)
(-0.012481 0.0309492 0)
(-0.0134408 0.0308023 0)
(-0.0143968 0.0306215 0)
(-0.0153489 0.0304143 0)
(-0.016297 0.0301858 0)
(-0.0172412 0.0299394 0)
(-0.0181818 0.0296776 0)
(-0.0191189 0.0294017 0)
(-0.0200531 0.0291128 0)
(-0.0209849 0.0288114 0)
(-0.0219146 0.0284976 0)
(-0.0228429 0.0281716 0)
(-0.0237702 0.027833 0)
(-0.0246973 0.0274813 0)
(-0.025625 0.027116 0)
(-0.026554 0.0267365 0)
(-0.0274853 0.0263423 0)
(-0.0284195 0.0259325 0)
(-0.0293575 0.0255061 0)
(-0.0303004 0.025062 0)
(-0.0312491 0.0245987 0)
(-0.0322043 0.0241147 0)
(-0.0331669 0.0236085 0)
(-0.0341376 0.0230781 0)
(-0.0351173 0.0225213 0)
(-0.0361065 0.021936 0)
(-0.0371053 0.0213192 0)
(-0.038116 0.020668 0)
(-0.0391377 0.0199791 0)
(-0.0401709 0.0192492 0)
(-0.0412158 0.0184746 0)
(-0.0422709 0.0176512 0)
(-0.0433363 0.0167746 0)
(-2.8545e-05 0.00343049 0)
(-0.00020051 0.00926154 0)
(-0.000566523 0.0141752 0)
(-0.00107383 0.0182721 0)
(-0.00169561 0.0216445 0)
(-0.00241217 0.0243783 0)
(-0.00320445 0.0265552 0)
(-0.00405545 0.0282525 0)
(-0.00495076 0.0295432 0)
(-0.0058784 0.030495 0)
(-0.00682863 0.0311694 0)
(-0.00779376 0.0316207 0)
(-0.00876785 0.0318959 0)
(-0.00974645 0.0320344 0)
(-0.0107263 0.0320681 0)
(-0.0117053 0.0320225 0)
(-0.0126817 0.0319171 0)
(-0.0136546 0.0317667 0)
(-0.0146236 0.031582 0)
(-0.0155883 0.0313707 0)
(-0.0165488 0.0311381 0)
(-0.0175051 0.0308879 0)
(-0.0184576 0.0306225 0)
(-0.0194067 0.0303435 0)
(-0.0203527 0.0300518 0)
(-0.0212963 0.0297482 0)
(-0.022238 0.0294328 0)
(-0.0231784 0.0291057 0)
(-0.0241182 0.0287667 0)
(-0.0250583 0.0284154 0)
(-0.0259993 0.0280514 0)
(-0.0269425 0.0276741 0)
(-0.0278886 0.0272828 0)
(-0.0288387 0.026877 0)
(-0.0297937 0.0264556 0)
(-0.0307548 0.0260174 0)
(-0.031723 0.0255609 0)
(-0.0326993 0.0250848 0)
(-0.0336848 0.0245873 0)
(-0.0346806 0.0240665 0)
(-0.0356876 0.0235201 0)
(-0.0367068 0.0229459 0)
(-0.037739 0.0223411 0)
(-0.0387847 0.0217027 0)
(-0.0398453 0.0210269 0)
(-0.0409212 0.0203104 0)
(-0.0420128 0.019549 0)
(-0.0431188 0.0187384 0)
(-0.0442393 0.0178736 0)
(-2.89415e-05 0.0035346 0)
(-0.000203697 0.0095463 0)
(-0.000575974 0.0146142 0)
(-0.00109221 0.0188406 0)
(-0.00172508 0.0223196 0)
(-0.00245445 0.0251394 0)
(-0.00326081 0.0273839 0)
(-0.00412675 0.0291331 0)
(-0.00503751 0.0304623 0)
(-0.00598082 0.0314417 0)
(-0.00694672 0.0321347 0)
(-0.00792734 0.0325979 0)
(-0.00891662 0.0328797 0)
(-0.00991005 0.0330209 0)
(-0.0109044 0.0330546 0)
(-0.0118973 0.033007 0)
(-0.0128872 0.0328985 0)
(-0.0138733 0.0327442 0)
(-0.0148551 0.0325552 0)
(-0.0158322 0.0323395 0)
(-0.0168047 0.0321025 0)
(-0.0177728 0.0318482 0)
(-0.0187368 0.0315791 0)
(-0.0196973 0.0312968 0)
(-0.0206546 0.0310024 0)
(-0.0216094 0.0306966 0)
(-0.0225624 0.0303797 0)
(-0.0235142 0.0300518 0)
(-0.0244657 0.0297128 0)
(-0.0254178 0.0293624 0)
(-0.0263714 0.0290002 0)
(-0.0273277 0.0286257 0)
(-0.0282878 0.0282384 0)
(-0.0292527 0.0278375 0)
(-0.0302236 0.0274221 0)
(-0.0312017 0.0269911 0)
(-0.0321883 0.0265431 0)
(-0.0331848 0.0260765 0)
(-0.0341923 0.0255897 0)
(-0.0352121 0.0250807 0)
(-0.0362455 0.0245473 0)
(-0.0372938 0.023987 0)
(-0.0383581 0.0233972 0)
(-0.0394395 0.0227746 0)
(-0.0405388 0.0221155 0)
(-0.0416572 0.0214162 0)
(-0.0427954 0.0206723 0)
(-0.0439527 0.019879 0)
(-0.0451294 0.0190311 0)
(-2.93585e-05 0.00364037 0)
(-0.000207045 0.0098359 0)
(-0.000585889 0.015061 0)
(-0.00111147 0.0194193 0)
(-0.00175591 0.0230069 0)
(-0.00249864 0.0259142 0)
(-0.00331963 0.0282274 0)
(-0.00420106 0.0300291 0)
(-0.00512777 0.0313972 0)
(-0.00608722 0.0324042 0)
(-0.00706919 0.0331159 0)
(-0.00806564 0.0335906 0)
(-0.00907039 0.0338786 0)
(-0.0100789 0.0340221 0)
(-0.0110877 0.0340553 0)
(-0.0120946 0.0340054 0)
(-0.0130982 0.0338932 0)
(-0.0140973 0.0337345 0)
(-0.0150916 0.0335408 0)
(-0.0160808 0.0333203 0)
(-0.017065 0.0330787 0)
(-0.0180445 0.03282 0)
(-0.0190196 0.0325469 0)
(-0.0199908 0.0322612 0)
(-0.0209588 0.0319639 0)
(-0.0219241 0.0316559 0)
(-0.0228876 0.0313376 0)
(-0.02385 0.031009 0)
(-0.0248123 0.0306703 0)
(-0.0257755 0.0303211 0)
(-0.0267407 0.0299613 0)
(-0.027709 0.0295903 0)
(-0.0286818 0.0292077 0)
(-0.0296603 0.0288128 0)
(-0.0306458 0.0284046 0)
(-0.0316397 0.0279821 0)
(-0.0326436 0.0275439 0)
(-0.0336588 0.0270887 0)
(-0.0346869 0.0266146 0)
(-0.0357295 0.0261197 0)
(-0.0367881 0.0256018 0)
(-0.0378643 0.0250584 0)
(-0.0389594 0.0244865 0)
(-0.0400749 0.0238832 0)
(-0.0412121 0.0232445 0)
(-0.0423723 0.0225664 0)
(-0.0435568 0.0218444 0)
(-0.0447654 0.0210735 0)
(-0.045999 0.0202481 0)
(-2.97999e-05 0.00374788 0)
(-0.000210577 0.0101306 0)
(-0.000596332 0.0155159 0)
(-0.00113172 0.0200087 0)
(-0.00178829 0.023707 0)
(-0.00254495 0.0267032 0)
(-0.00338119 0.0290863 0)
(-0.00427869 0.0309412 0)
(-0.00522193 0.0323484 0)
(-0.00619801 0.033383 0)
(-0.00719649 0.0341131 0)
(-0.00820914 0.0345991 0)
(-0.00922965 0.0348929 0)
(-0.0102534 0.0350382 0)
(-0.0112769 0.0350703 0)
(-0.0122979 0.0350175 0)
(-0.0133149 0.0349011 0)
(-0.0143269 0.0347376 0)
(-0.0153335 0.0345386 0)
(-0.0163346 0.0343129 0)
(-0.0173301 0.0340662 0)
(-0.0183205 0.0338028 0)
(-0.0193061 0.0335254 0)
(-0.0202875 0.033236 0)
(-0.0212653 0.0329357 0)
(-0.0222404 0.0326254 0)
(-0.0232135 0.0323056 0)
(-0.0241856 0.0319765 0)
(-0.0251577 0.0316382 0)
(-0.0261309 0.0312907 0)
(-0.0271064 0.0309337 0)
(-0.0280856 0.0305668 0)
(-0.0290698 0.0301896 0)
(-0.0300605 0.0298015 0)
(-0.0310592 0.0294015 0)
(-0.0320675 0.0289888 0)
(-0.033087 0.028562 0)
(-0.0341194 0.0281198 0)
(-0.0351666 0.0276604 0)
(-0.0362304 0.0271819 0)
(-0.0373126 0.026682 0)
(-0.038415 0.0261583 0)
(-0.0395394 0.0256078 0)
(-0.0406876 0.0250272 0)
(-0.0418613 0.0244127 0)
(-0.0430621 0.0237603 0)
(-0.0442921 0.0230652 0)
(-0.0455515 0.0223222 0)
(-0.046842 0.0215253 0)
(-3.02701e-05 0.00385723 0)
(-0.000214319 0.0104307 0)
(-0.000607373 0.0159793 0)
(-0.00115309 0.0206093 0)
(-0.00182239 0.0244204 0)
(-0.00259365 0.0275072 0)
(-0.0034458 0.0299611 0)
(-0.00436003 0.0318698 0)
(-0.00532039 0.0333165 0)
(-0.00631366 0.0343787 0)
(-0.00732913 0.035127 0)
(-0.00835838 0.0356237 0)
(-0.00939497 0.0359228 0)
(-0.0104341 0.0360693 0)
(-0.0114724 0.0360998 0)
(-0.0125076 0.0360433 0)
(-0.013538 0.0359222 0)
(-0.0145628 0.0357531 0)
(-0.0155815 0.0355484 0)
(-0.016594 0.0353169 0)
(-0.0176004 0.0350646 0)
(-0.0186012 0.034796 0)
(-0.0195967 0.0345139 0)
(-0.0205876 0.0342204 0)
(-0.0215745 0.0339168 0)
(-0.0225585 0.0336041 0)
(-0.0235403 0.0332827 0)
(-0.024521 0.0329532 0)
(-0.0255017 0.0326155 0)
(-0.0264837 0.0322698 0)
(-0.0274683 0.031916 0)
(-0.0284569 0.0315537 0)
(-0.0294511 0.0311826 0)
(-0.0304525 0.0308021 0)
(-0.0314627 0.0304115 0)
(-0.0324836 0.0300097 0)
(-0.033517 0.0295958 0)
(-0.0345649 0.0291682 0)
(-0.0356293 0.0287255 0)
(-0.0367123 0.0282655 0)
(-0.0378161 0.0277863 0)
(-0.0389428 0.0272851 0)
(-0.0400946 0.0267591 0)
(-0.0412737 0.026205 0)
(-0.042482 0.0256189 0)
(-0.043722 0.0249967 0)
(-0.0449961 0.0243337 0)
(-0.0463053 0.0236244 0)
(-0.0476519 0.0228626 0)
(-3.07739e-05 0.00396853 0)
(-0.000218304 0.0107365 0)
(-0.000619095 0.0164518 0)
(-0.00117572 0.0212218 0)
(-0.00185845 0.0251478 0)
(-0.00264504 0.0283268 0)
(-0.00351384 0.0308526 0)
(-0.00444551 0.0328157 0)
(-0.00542367 0.034302 0)
(-0.00643474 0.0353917 0)
(-0.00746772 0.0361578 0)
(-0.00851399 0.0366649 0)
(-0.00956698 0.0369686 0)
(-0.0106218 0.0371156 0)
(-0.0116751 0.0371438 0)
(-0.0127244 0.037083 0)
(-0.0137681 0.0369563 0)
(-0.0148055 0.036781 0)
(-0.015836 0.0365698 0)
(-0.0168596 0.0363318 0)
(-0.0178765 0.0360734 0)
(-0.0188871 0.035799 0)
(-0.0198918 0.0355118 0)
(-0.0208914 0.0352138 0)
(-0.0218866 0.0349066 0)
(-0.0228785 0.0345911 0)
(-0.0238679 0.034268 0)
(-0.0248561 0.0339379 0)
(-0.0258442 0.0336009 0)
(-0.0268337 0.0332572 0)
(-0.0278259 0.0329069 0)
(-0.0288224 0.0325496 0)
(-0.029825 0.0321851 0)
(-0.0308353 0.031813 0)
(-0.0318553 0.0314326 0)
(-0.0328869 0.031043 0)
(-0.0339322 0.0306432 0)
(-0.0349934 0.030232 0)
(-0.0360728 0.0298077 0)
(-0.0371729 0.0293686 0)
(-0.038296 0.0289124 0)
(-0.0394446 0.0284367 0)
(-0.0406215 0.0279386 0)
(-0.041829 0.0274145 0)
(-0.0430698 0.026861 0)
(-0.0443467 0.0262738 0)
(-0.0456629 0.0256484 0)
(-0.0470201 0.0249789 0)
(-0.0484214 0.0242592 0)
(-3.1317e-05 0.00408192 0)
(-0.000222567 0.0110483 0)
(-0.000631593 0.0169338 0)
(-0.0011998 0.0218467 0)
(-0.0018967 0.0258899 0)
(-0.00269943 0.0291627 0)
(-0.00358571 0.0317615 0)
(-0.00453563 0.0337796 0)
(-0.00553233 0.0353057 0)
(-0.00656184 0.0364227 0)
(-0.0076129 0.0372062 0)
(-0.00867667 0.037723 0)
(-0.00974643 0.0380306 0)
(-0.0108172 0.0381774 0)
(-0.0118856 0.0382023 0)
(-0.012949 0.0381363 0)
(-0.014006 0.0380033 0)
(-0.0150558 0.037821 0)
(-0.0160979 0.0376026 0)
(-0.0171322 0.0373573 0)
(-0.018159 0.037092 0)
(-0.0191787 0.0368112 0)
(-0.0201919 0.0365182 0)
(-0.0211994 0.0362152 0)
(-0.022202 0.0359039 0)
(-0.0232007 0.0355853 0)
(-0.0241967 0.0352603 0)
(-0.0251911 0.0349294 0)
(-0.0261852 0.034593 0)
(-0.0271807 0.0342514 0)
(-0.0281789 0.0339047 0)
(-0.0291817 0.0335528 0)
(-0.0301908 0.0331954 0)
(-0.0312082 0.0328323 0)
(-0.0322359 0.032463 0)
(-0.0332761 0.0320866 0)
(-0.0343311 0.0317022 0)
(-0.0354033 0.0313088 0)
(-0.0364954 0.0309048 0)
(-0.0376098 0.0304885 0)
(-0.0387495 0.0300579 0)
(-0.0399175 0.0296106 0)
(-0.0411165 0.0291434 0)
(-0.0423496 0.0286532 0)
(-0.0436197 0.0281363 0)
(-0.0449308 0.0275892 0)
(-0.0462864 0.0270069 0)
(-0.0476891 0.0263837 0)
(-0.0491428 0.0257133 0)
(-3.19058e-05 0.00419755 0)
(-0.000227148 0.0113666 0)
(-0.000644974 0.017426 0)
(-0.0012255 0.0224848 0)
(-0.00193744 0.0266476 0)
(-0.00275722 0.0300159 0)
(-0.00366189 0.0326888 0)
(-0.00463094 0.0347623 0)
(-0.00564699 0.0363282 0)
(-0.00669568 0.0374723 0)
(-0.00776545 0.0382726 0)
(-0.00884723 0.0387984 0)
(-0.00993415 0.0391092 0)
(-0.0110212 0.0392547 0)
(-0.0121047 0.0392755 0)
(-0.0131824 0.0392034 0)
(-0.0142526 0.0390631 0)
(-0.0153145 0.0388728 0)
(-0.0163678 0.0386462 0)
(-0.0174124 0.0383929 0)
(-0.0184486 0.0381199 0)
(-0.0194768 0.0378319 0)
(-0.0204977 0.0375324 0)
(-0.0215122 0.0372238 0)
(-0.0225211 0.0369078 0)
(-0.0235256 0.0365857 0)
(-0.0245268 0.0362583 0)
(-0.0255261 0.0359264 0)
(-0.0265249 0.0355905 0)
(-0.0275247 0.0352509 0)
(-0.0285273 0.0349078 0)
(-0.0295345 0.0345614 0)
(-0.0305482 0.0342116 0)
(-0.0315706 0.033858 0)
(-0.0326038 0.0335004 0)
(-0.0336503 0.0331381 0)
(-0.0347125 0.0327704 0)
(-0.0357932 0.0323961 0)
(-0.0368951 0.0320141 0)
(-0.0380211 0.0316226 0)
(-0.0391745 0.0312199 0)
(-0.0403584 0.0308035 0)
(-0.0415763 0.0303704 0)
(-0.0428311 0.0299175 0)
(-0.0441276 0.029442 0)
(-0.0454698 0.0289399 0)
(-0.046862 0.0284065 0)
(-0.0483073 0.0278361 0)
(-0.049811 0.0272223 0)
(-3.25478e-05 0.0043156 0)
(-0.000232094 0.0116919 0)
(-0.000659361 0.0179291 0)
(-0.00125305 0.023137 0)
(-0.00198098 0.0274219 0)
(-0.00281884 0.0308873 0)
(-0.00374292 0.0336352 0)
(-0.00473207 0.0357647 0)
(-0.00576837 0.0373704 0)
(-0.00683705 0.0385411 0)
(-0.00792621 0.0393577 0)
(-0.00902656 0.0398916 0)
(-0.0101311 0.0402045 0)
(-0.0112346 0.0403479 0)
(-0.0123336 0.0403635 0)
(-0.0134255 0.0402842 0)
(-0.0145088 0.0401354 0)
(-0.0155827 0.0399362 0)
(-0.0166468 0.0397004 0)
(-0.0177012 0.0394381 0)
(-0.0187461 0.0391564 0)
(-0.0197821 0.0388604 0)
(-0.0208099 0.0385536 0)
(-0.0218305 0.0382386 0)
(-0.0228446 0.0379173 0)
(-0.0238537 0.037591 0)
(-0.0248588 0.0372607 0)
(-0.0258615 0.0369274 0)
(-0.0268633 0.0365916 0)
(-0.0278658 0.0362538 0)
(-0.0288709 0.0359144 0)
(-0.0298805 0.0355736 0)
(-0.0308968 0.0352315 0)
(-0.0319219 0.0348879 0)
(-0.0329583 0.0345426 0)
(-0.0340086 0.0341952 0)
(-0.0350754 0.033845 0)
(-0.0361616 0.0334912 0)
(-0.0372704 0.0331326 0)
(-0.0384049 0.0327678 0)
(-0.0395687 0.0323951 0)
(-0.0407654 0.0320121 0)
(-0.0419985 0.0316162 0)
(-0.0432725 0.0312047 0)
(-3.32512e-05 0.00443626 0)
(-0.000237457 0.0120246 0)
(-0.000674891 0.0184439 0)
(-0.00128269 0.0238043 0)
(-0.0020277 0.0282137 0)
(-0.00288477 0.031778 0)
(-0.0038294 0.034602 0)
(-0.00483974 0.0367877 0)
(-0.00589729 0.0384332 0)
(-0.00698684 0.0396301 0)
(-0.00809615 0.0404621 0)
(-0.00921569 0.0410032 0)
(-0.0103383 0.0413172 0)
(-0.0114587 0.0414572 0)
(-0.0125732 0.0414663 0)
(-0.0136793 0.0413786 0)
(-0.0147757 0.0412203 0)
(-0.0158613 0.0410108 0)
(-0.0169359 0.0407647 0)
(-0.0179995 0.0404922 0)
(-0.0190526 0.0402008 0)
(-0.0200956 0.0398958 0)
(-0.0211294 0.0395808 0)
(-0.0221549 0.0392585 0)
(-0.0231732 0.038931 0)
(-0.0241855 0.0385998 0)
(-0.0251932 0.0382661 0)
(-0.0261977 0.0379308 0)
(-0.0272008 0.0375947 0)
(-0.0282042 0.0372584 0)
(-0.0292099 0.0369225 0)
(-0.0302198 0.0365872 0)
(-0.0312364 0.0362529 0)
(-0.0322618 0.0359195 0)
(-0.0332989 0.035587 0)
(-0.0343501 0.0352551 0)
(-0.0354186 0.0349234 0)
(-0.0365075 0.0345911 0)
(-0.03762 0.0342573 0)
(-0.0387597 0.0339209 0)
(-0.0399305 0.0335801 0)
(-0.0411366 0.0332332 0)
(-0.0423819 0.0328778 0)
(-0.0436716 0.0325114 0)
(-3.40257e-05 0.00455978 0)
(-0.000243297 0.0123654 0)
(-0.000691724 0.0189712 0)
(-0.00131471 0.0244877 0)
(-0.002078 0.0290242 0)
(-0.00295556 0.0326892 0)
(-0.00392202 0.0355902 0)
(-0.00495475 0.0378325 0)
(-0.00603466 0.0395175 0)
(-0.00714606 0.0407399 0)
(-0.00827634 0.0415865 0)
(-0.00941575 0.0421337 0)
(-0.0105569 0.0424475 0)
(-0.0116945 0.0425828 0)
(-0.0128248 0.0425841 0)
(-0.0139453 0.0424867 0)
(-0.0150545 0.0423173 0)
(-0.0161516 0.0420964 0)
(-0.0172362 0.0418386 0)
(-0.0183086 0.0415547 0)
(-0.0193691 0.0412525 0)
(-0.0204183 0.0409372 0)
(-0.0214571 0.0406129 0)
(-0.0224865 0.0402824 0)
(-0.0235077 0.0399478 0)
(-0.0245219 0.0396109 0)
(-0.0255306 0.0392729 0)
(-0.0265354 0.038935 0)
(-0.027538 0.038598 0)
(-0.0285403 0.0382628 0)
(-0.0295444 0.03793 0)
(-0.0305525 0.0376 0)
(-0.0315669 0.0372734 0)
(-0.0325902 0.0369503 0)
(-0.033625 0.0366308 0)
(-0.0346744 0.0363149 0)
(-0.0357415 0.0360023 0)
(-0.0368297 0.0356925 0)
(-0.0379425 0.0353848 0)
(-0.0390838 0.0350783 0)
(-0.0402578 0.0347716 0)
(-0.0414693 0.0344633 0)
(-0.0427227 0.0341514 0)
(-0.0440234 0.0338339 0)
(-3.48822e-05 0.0046864 0)
(-0.000249683 0.012715 0)
(-0.000710039 0.019512 0)
(-0.00134942 0.0251884 0)
(-0.00213237 0.0298548 0)
(-0.00303185 0.0336222 0)
(-0.00402153 0.0366011 0)
(-0.005078 0.0389003 0)
(-0.00618151 0.0406244 0)
(-0.00731583 0.0418717 0)
(-0.00846801 0.0427317 0)
(-0.00962802 0.0432837 0)
(-0.0107883 0.0435959 0)
(-0.0119435 0.043725 0)
(-0.0130898 0.0437171 0)
(-0.0142246 0.0436083 0)
(-0.0153466 0.0434265 0)
(-0.0164548 0.0431925 0)
(-0.0175492 0.0429217 0)
(-0.0186297 0.042625 0)
(-0.0196969 0.0423105 0)
(-0.0207514 0.0419838 0)
(-0.0217942 0.0416489 0)
(-0.0228263 0.041309 0)
(-0.023849 0.0409663 0)
(-0.0248637 0.0406227 0)
(-0.0258718 0.0402795 0)
(-0.0268751 0.0399382 0)
(-0.0278753 0.0395996 0)
(-0.0288746 0.0392648 0)
(-0.0298749 0.0389346 0)
(-0.0308787 0.0386096 0)
(-0.0318884 0.0382905 0)
(-0.0329068 0.0379776 0)
(-0.0339366 0.0376712 0)
(-0.034981 0.0373715 0)
(-0.0360434 0.0370785 0)
(-0.0371273 0.0367919 0)
(-0.0382366 0.0365113 0)
(-0.0393754 0.0362361 0)
(-0.0405484 0.0359653 0)
(-0.0417606 0.0356978 0)
(-0.0430169 0.0354321 0)
(-0.0443231 0.0351666 0)
(-3.58332e-05 0.00481643 0)
(-0.000256693 0.0130742 0)
(-0.000730039 0.0200676 0)
(-0.00138718 0.0259077 0)
(-0.00219132 0.0307069 0)
(-0.00311432 0.0345785 0)
(-0.00412883 0.0376363 0)
(-0.00521053 0.0399924 0)
(-0.00633897 0.0417553 0)
(-0.00749741 0.0430264 0)
(-0.00867249 0.0438986 0)
(-0.00985392 0.044454 0)
(-0.011034 0.0447629 0)
(-0.0122072 0.0448842 0)
(-0.0133697 0.0448652 0)
(-0.014519 0.0447435 0)
(-0.0156535 0.0445475 0)
(-0.0167727 0.0442989 0)
(-0.0178761 0.0440134 0)
(-0.0189642 0.0437024 0)
(-0.0200373 0.0433742 0)
(-0.0210962 0.0430345 0)
(-0.0221419 0.0426878 0)
(-0.0231755 0.0423372 0)
(-0.0241984 0.0419851 0)
(-0.0252119 0.0416336 0)
(-0.0262178 0.0412843 0)
(-0.0272177 0.0409385 0)
(-0.0282136 0.0405975 0)
(-0.0292076 0.0402623 0)
(-0.0302019 0.0399341 0)
(-0.031199 0.0396135 0)
(-0.0322013 0.0393014 0)
(-0.0332119 0.0389984 0)
(-0.0342336 0.038705 0)
(-0.0352697 0.0384216 0)
(-0.0363238 0.0381484 0)
(-0.0373996 0.0378855 0)
(-0.0385012 0.0376328 0)
(-0.0396332 0.03739 0)
(-0.0408003 0.0371565 0)
(-0.042008 0.0369316 0)
(-0.0432614 0.0367142 0)
(-0.044567 0.0365033 0)
(-3.6893e-05 0.00495022 0)
(-0.000264413 0.0134438 0)
(-0.000751957 0.0206391 0)
(-0.00142841 0.0266473 0)
(-0.00225547 0.0315823 0)
(-0.00320379 0.0355599 0)
(-0.00424487 0.0386973 0)
(-0.00535346 0.0411104 0)
(-0.00650836 0.0429113 0)
(-0.00769223 0.0442052 0)
(-0.00889131 0.0450882 0)
(-0.010095 0.0456452 0)
(-0.0112956 0.0459491 0)
(-0.0124872 0.0460607 0)
(-0.0136662 0.0460288 0)
(-0.0148299 0.0458921 0)
(-0.015977 0.0456802 0)
(-0.0171066 0.0454151 0)
(-0.0182188 0.0451132 0)
(-0.0193136 0.0447861 0)
(-0.0203918 0.0444425 0)
(-0.0214541 0.0440884 0)
(-0.0225016 0.0437283 0)
(-0.0235354 0.0433655 0)
(-0.0245569 0.0430027 0)
(-0.0255678 0.0426421 0)
(-0.0265697 0.0422853 0)
(-0.0275643 0.041934 0)
(-0.0285538 0.0415895 0)
(-0.0295403 0.0412531 0)
(-0.0305261 0.0409259 0)
(-0.0315138 0.040609 0)
(-0.032506 0.0403033 0)
(-0.0335057 0.0400097 0)
(-0.034516 0.0397289 0)
(-0.0355404 0.0394616 0)
(-0.0365824 0.0392083 0)
(-0.0376461 0.0389693 0)
(-0.0387357 0.0387448 0)
(-0.039856 0.0385351 0)
(-0.0410121 0.0383398 0)
(-0.0422095 0.0381588 0)
(-0.043454 0.0379914 0)
(-0.044752 0.037837 0)
(-3.80777e-05 0.00508816 0)
(-0.000272947 0.0138248 0)
(-0.000776056 0.021228 0)
(-0.00147356 0.0274088 0)
(-0.0023255 0.0324826 0)
(-0.00330114 0.0365681 0)
(-0.00437078 0.039786 0)
(-0.00550811 0.0422559 0)
(-0.00669111 0.044094 0)
(-0.00790186 0.0454093 0)
(-0.00912616 0.0463014 0)
(-0.0103532 0.0468582 0)
(-0.0115748 0.0471551 0)
(-0.0127855 0.0472548 0)
(-0.0139811 0.0472079 0)
(-0.0151594 0.0470542 0)
(-0.0163188 0.0468242 0)
(-0.0174586 0.0465407 0)
(-0.0185789 0.0462204 0)
(-0.0196799 0.0458754 0)
(-0.0207622 0.0455146 0)
(-0.0218268 0.0451442 0)
(-0.0228748 0.044769 0)
(-0.0239074 0.0443926 0)
(-0.0249262 0.0440175 0)
(-0.0259326 0.0436463 0)
(-0.0269286 0.0432807 0)
(-0.027916 0.0429226 0)
(-0.0288969 0.0425734 0)
(-0.0298736 0.0422346 0)
(-0.0308484 0.0419075 0)
(-0.031824 0.0415933 0)
(-0.0328031 0.0412933 0)
(-0.0337889 0.0410083 0)
(-0.0347844 0.0407396 0)
(-0.0357933 0.0404879 0)
(-0.0368194 0.040254 0)
(-0.0378666 0.0400388 0)
(-0.0389396 0.0398427 0)
(-0.0400432 0.0396662 0)
(-0.0411826 0.0395097 0)
(-0.0423638 0.0393733 0)
(-0.0435926 0.039257 0)
(-0.0448761 0.0391606 0)
(-3.94061e-05 0.00523071 0)
(-0.000282408 0.0142185 0)
(-0.000802638 0.0218361 0)
(-0.00152318 0.0281943 0)
(-0.00240218 0.0334102 0)
(-0.00340741 0.0376054 0)
(-0.0045078 0.0409043 0)
(-0.00567592 0.0434307 0)
(-0.00688887 0.045305 0)
(-0.00812809 0.0466402 0)
(-0.00937893 0.0475394 0)
(-0.0106303 0.0480938 0)
(-0.0118739 0.0483814 0)
(-0.013104 0.0484669 0)
(-0.0143166 0.0484027 0)
(-0.0155094 0.0482297 0)
(-0.016681 0.0479794 0)
(-0.0178306 0.0476752 0)
(-0.0189584 0.0473344 0)
(-0.0200647 0.0469694 0)
(-0.0211503 0.0465894 0)
(-0.0222161 0.0462009 0)
(-0.0232633 0.0458088 0)
(-0.0242933 0.0454169 0)
(-0.0253076 0.0450279 0)
(-0.0263079 0.0446445 0)
(-0.0272961 0.0442686 0)
(-0.0282742 0.0439022 0)
(-0.0292442 0.043547 0)
(-0.0302086 0.0432045 0)
(-0.0311699 0.0428762 0)
(-0.0321306 0.0425637 0)
(-0.0330937 0.0422681 0)
(-0.0340622 0.041991 0)
(-0.0350395 0.0417333 0)
(-0.0360292 0.0414965 0)
(-0.0370351 0.0412815 0)
(-0.0380615 0.0410894 0)
(-0.0391129 0.0409213 0)
(-0.0401945 0.0407779 0)
(-0.0413115 0.0406601 0)
(-0.0424701 0.0405686 0)
(-0.0436764 0.0405039 0)
(-0.0449376 0.0404665 0)
(-4.08995e-05 0.00537837 0)
(-0.000292928 0.0146261 0)
(-0.000832046 0.022465 0)
(-0.00157786 0.0290058 0)
(-0.00248639 0.0343672 0)
(-0.00352374 0.038674 0)
(-0.00465734 0.0420545 0)
(-0.00585853 0.0446369 0)
(-0.00710346 0.0465461 0)
(-0.0083729 0.0478994 0)
(-0.00965173 0.0488035 0)
(-0.0109285 0.0493531 0)
(-0.0121949 0.0496287 0)
(-0.013445 0.0496975 0)
(-0.014675 0.0496133 0)
(-0.0158824 0.0494185 0)
(-0.0170658 0.0491454 0)
(-0.0182249 0.0488181 0)
(-0.0193595 0.0484545 0)
(-0.0204703 0.0480673 0)
(-0.0215581 0.0476659 0)
(-0.0226238 0.0472572 0)
(-0.0236689 0.0468462 0)
(-0.0246947 0.0464368 0)
(-0.0257029 0.0460322 0)
(-0.0266953 0.0456348 0)
(-0.0276737 0.045247 0)
(-0.0286402 0.0448707 0)
(-0.0295972 0.0445078 0)
(-0.0305468 0.0441602 0)
(-0.0314918 0.0438294 0)
(-0.0324348 0.0435171 0)
(-0.0333787 0.0432248 0)
(-0.0343267 0.0429541 0)
(-0.0352821 0.0427065 0)
(-0.0362487 0.0424834 0)
(-0.0372303 0.0422863 0)
(-0.0382312 0.0421165 0)
(-0.0392562 0.0419755 0)
(-0.0403102 0.0418646 0)
(-0.0413988 0.041785 0)
(-0.0425282 0.041738 0)
(-0.0437048 0.0417248 0)
(-0.044936 0.0417463 0)
(-4.25825e-05 0.00553173 0)
(-0.00030466 0.0150491 0)
(-0.000864674 0.0231171 0)
(-0.0016383 0.029846 0)
(-0.00257914 0.0353565 0)
(-0.00365146 0.0397766 0)
(-0.00482101 0.043239 0)
(-0.00605779 0.0458768 0)
(-0.00733696 0.0478194 0)
(-0.00863853 0.0491884 0)
(-0.00994692 0.050095 0)
(-0.0112504 0.050637 0)
(-0.0125405 0.0508979 0)
(-0.0138112 0.050947 0)
(-0.0150587 0.05084 0)
(-0.0162807 0.0506205 0)
(-0.0174758 0.0503219 0)
(-0.0186437 0.0499689 0)
(-0.0197845 0.0495798 0)
(-0.0208989 0.049168 0)
(-0.0219877 0.0487429 0)
(-0.0230522 0.0483118 0)
(-0.0240937 0.0478797 0)
(-0.0251138 0.0474509 0)
(-0.0261141 0.0470284 0)
(-0.0270965 0.0466152 0)
(-0.0280631 0.0462136 0)
(-0.0290159 0.0458257 0)
(-0.0299573 0.0454535 0)
(-0.0308897 0.0450991 0)
(-0.0318157 0.0447641 0)
(-0.032738 0.0444505 0)
(-0.0336596 0.04416 0)
(-0.0345836 0.0438944 0)
(-0.0355136 0.0436553 0)
(-0.0364531 0.0434446 0)
(-0.0374061 0.043264 0)
(-0.0383769 0.0431152 0)
(-0.0393703 0.0430001 0)
(-0.0403912 0.0429204 0)
(-0.0414453 0.042878 0)
(-0.0425388 0.0428745 0)
(-0.0436783 0.0429118 0)
(-0.0448712 0.0429917 0)
(-4.44835e-05 0.00569147 0)
(-0.000317777 0.0154892 0)
(-0.000900974 0.0237946 0)
(-0.00170528 0.0307176 0)
(-0.00268158 0.0363808 0)
(-0.00379206 0.0409162 0)
(-0.00500062 0.0444608 0)
(-0.0062758 0.0471529 0)
(-0.00759167 0.0491269 0)
(-0.00892747 0.0505093 0)
(-0.0102671 0.0514154 0)
(-0.0115986 0.0519466 0)
(-0.0129133 0.0521895 0)
(-0.0142053 0.0522157 0)
(-0.0154706 0.0520828 0)
(-0.0167071 0.0518356 0)
(-0.0179136 0.0515084 0)
(-0.0190898 0.0511268 0)
(-0.020236 0.0507096 0)
(-0.021353 0.0502705 0)
(-0.0224417 0.0498192 0)
(-0.0235035 0.0493632 0)
(-0.0245399 0.0489077 0)
(-0.0255525 0.0484572 0)
(-0.026543 0.0480149 0)
(-0.0275136 0.0475838 0)
(-0.0284662 0.0471663 0)
(-0.029403 0.0467649 0)
(-0.0303265 0.0463816 0)
(-0.031239 0.0460185 0)
(-0.0321432 0.0456776 0)
(-0.0330419 0.045361 0)
(-0.033938 0.0450705 0)
(-0.0348347 0.0448081 0)
(-0.0357355 0.0445759 0)
(-0.036644 0.0443759 0)
(-0.0375641 0.0442101 0)
(-0.0385001 0.0440806 0)
(-0.0394567 0.0439897 0)
(-0.0404389 0.0439396 0)
(-0.0414523 0.0439325 0)
(-0.0425031 0.0439709 0)
(-0.043598 0.0440572 0)
(-0.0447444 0.044194 0)
(-4.66357e-05 0.00585836 0)
(-0.000332481 0.0159484 0)
(-0.00094147 0.0245004 0)
(-0.00177972 0.0316238 0)
(-0.00279503 0.0374437 0)
(-0.00394724 0.042096 0)
(-0.00519823 0.0457228 0)
(-0.00651493 0.0484679 0)
(-0.00787022 0.050471 0)
(-0.00924255 0.0518639 0)
(-0.0106153 0.0527661 0)
(-0.0119762 0.0532831 0)
(-0.0133165 0.0535044 0)
(-0.0146303 0.0535042 0)
(-0.0159137 0.0533418 0)
(-0.0171646 0.0530635 0)
(-0.0183821 0.0527046 0)
(-0.019566 0.0522913 0)
(-0.0207167 0.051843 0)
(-0.0218351 0.0513736 0)
(-0.0229225 0.0508935 0)
(-0.0239802 0.0504099 0)
(-0.0250098 0.0499286 0)
(-0.0260131 0.049454 0)
(-0.0269921 0.0489896 0)
(-0.0279487 0.0485383 0)
(-0.0288851 0.048103 0)
(-0.0298036 0.0476859 0)
(-0.0307066 0.0472894 0)
(-0.0315966 0.0469157 0)
(-0.0324763 0.046567 0)
(-0.0333484 0.0462453 0)
(-0.0342158 0.0459529 0)
(-0.0350819 0.0456919 0)
(-0.0359498 0.0454645 0)
(-0.0368233 0.0452731 0)
(-0.0377062 0.04512 0)
(-0.0386028 0.0450078 0)
(-0.0395175 0.0449389 0)
(-0.0404554 0.044916 0)
(-0.0414219 0.0449421 0)
(-0.0424232 0.0450201 0)
(-0.0434659 0.045153 0)
(-0.0445573 0.0453444 0)
(-4.90778e-05 0.00603328 0)
(-0.000349009 0.0164289 0)
(-0.000986766 0.0252375 0)
(-0.00186266 0.0325682 0)
(-0.002921 0.0385489 0)
(-0.00411897 0.0433197 0)
(-0.00541621 0.0470285 0)
(-0.00677787 0.0498249 0)
(-0.00817558 0.0518545 0)
(-0.00958692 0.0532544 0)
(-0.0109948 0.054149 0)
(-0.0123866 0.0546477 0)
(-0.0137535 0.0548435 0)
(-0.0150896 0.0548128 0)
(-0.0163913 0.0546171 0)
(-0.0176565 0.054304 0)
(-0.0188845 0.0539097 0)
(-0.0200753 0.0534614 0)
(-0.0212296 0.0529788 0)
(-0.0223483 0.0524763 0)
(-0.0234329 0.0519642 0)
(-0.0244848 0.0514504 0)
(-0.025506 0.0509407 0)
(-0.0264982 0.0504394 0)
(-0.0274635 0.0499504 0)
(-0.028404 0.0494768 0)
(-0.029322 0.0490212 0)
(-0.0302199 0.0485864 0)
(-0.0310999 0.0481746 0)
(-0.0319648 0.0477881 0)
(-0.0328171 0.0474293 0)
(-0.0336596 0.0471005 0)
(-0.0344953 0.046804 0)
(-0.0353273 0.0465421 0)
(-0.0361588 0.0463173 0)
(-0.0369934 0.0461322 0)
(-0.0378349 0.0459895 0)
(-0.0386873 0.0458918 0)
(-0.0395552 0.0458423 0)
(-0.0404433 0.045844 0)
(-0.0413569 0.0459003 0)
(-0.0423019 0.0460148 0)
(-0.0432849 0.0461912 0)
(-0.044313 0.0464338 0)
(-5.18555e-05 0.00621725 0)
(-0.000367634 0.0169332 0)
(-0.00103757 0.0260095 0)
(-0.00195533 0.033555 0)
(-0.00306123 0.0397006 0)
(-0.0043095 0.0445915 0)
(-0.00565725 0.0483818 0)
(-0.0070677 0.0512272 0)
(-0.00851111 0.0532801 0)
(-0.00996416 0.054683 0)
(-0.0114092 0.0555658 0)
(-0.0128335 0.0560418 0)
(-0.0142281 0.0562074 0)
(-0.0155871 0.056142 0)
(-0.0169072 0.0559087 0)
(-0.0181865 0.0555567 0)
(-0.0194244 0.0551233 0)
(-0.0206213 0.0546363 0)
(-0.0217779 0.0541159 0)
(-0.0228956 0.0535769 0)
(-0.0239758 0.05303 0)
(-0.0250204 0.052483 0)
(-0.0260312 0.051942 0)
(-0.0270103 0.0514115 0)
(-0.0279599 0.0508954 0)
(-0.0288822 0.0503968 0)
(-0.0297795 0.0499188 0)
(-0.0306542 0.0494638 0)
(-0.0315088 0.0490344 0)
(-0.0323459 0.0486329 0)
(-0.0331681 0.0482618 0)
(-0.0339781 0.0479235 0)
(-0.0347789 0.0476205 0)
(-0.0355735 0.0473553 0)
(-0.0363651 0.0471307 0)
(-0.037157 0.0469492 0)
(-0.037953 0.046814 0)
(-0.0387569 0.046728 0)
(-0.039573 0.0466948 0)
(-0.0404059 0.0467177 0)
(-0.0412607 0.0468008 0)
(-0.0421428 0.0469481 0)
(-0.0430589 0.0471641 0)
(-0.0440155 0.0474536 0)
(-5.50233e-05 0.00641145 0)
(-0.000388682 0.0174643 0)
(-0.0010947 0.0268204 0)
(-0.00205914 0.0345887 0)
(-0.00321777 0.0409036 0)
(-0.00452143 0.0459161 0)
(-0.00592445 0.0497868 0)
(-0.00738793 0.0526787 0)
(-0.00888063 0.0547509 0)
(-0.0103783 0.0561524 0)
(-0.0118629 0.0570183 0)
(-0.0133212 0.0574665 0)
(-0.0147444 0.0575971 0)
(-0.0161269 0.0574919 0)
(-0.0174654 0.0572164 0)
(-0.0187584 0.0568212 0)
(-0.0200056 0.0563445 0)
(-0.0212075 0.0558149 0)
(-0.0223652 0.0552531 0)
(-0.0234803 0.0546741 0)
(-0.0245545 0.054089 0)
(-0.0255898 0.0535059 0)
(-0.0265884 0.0529306 0)
(-0.0275524 0.0523681 0)
(-0.028484 0.0518222 0)
(-0.0293858 0.0512963 0)
(-0.0302601 0.0507933 0)
(-0.0311093 0.0503158 0)
(-0.031936 0.0498663 0)
(-0.0327427 0.0494474 0)