/*--------------------------------*- C++ -*----------------------------------*\
  =========                 |
  \\      /  F ield         | OpenFOAM: The Open Source CFD Toolbox
   \\    /   O peration     | Website:  https://openfoam.org
    \\  /    A nd           | Version:  9
     \\/     M anipulation  |
\*---------------------------------------------------------------------------*/
FoamFile
{
    format      ascii;
    class       volScalarField;
    location    "3.75";
    object      p;
}
// * * * * * * * * * * * * * * * * * * * * * * * * * * * * * * * * * * * * * //

dimensions      [0 2 -2 0 0 0 0];

internalField   nonuniform List<scalar> 
10000
(
6.89838e-07
2.27609e-05
3.61407e-05
3.6442e-05
1.96396e-05
-1.55461e-05
-6.851e-05
-0.000137786
-0.000221556
-0.000317982
-0.000425429
-0.000542566
-0.000668425
-0.000802413
-0.000944303
-0.00109417
-0.00125234
-0.00141928
-0.00159555
-0.0017817
-0.00197821
-0.00218544
-0.00240355
-0.00263249
-0.00287197
-0.0031214
-0.00337988
-0.0036462
-0.0039188
-0.00419575
-0.00447476
-0.00475313
-0.00502781
-0.00529538
-0.00555206
-0.00579381
-0.00601631
-0.00621509
-0.00638558
-0.00652325
-0.00662368
-0.00668275
-0.00669672
-0.00666241
-0.00657734
-0.00643984
-0.00624925
-0.00600598
-0.00571164
-0.00536912
-0.00498262
-0.0045576
-0.00410054
-0.00362013
-0.00312513
-0.00262555
-0.00213213
-0.001656
-0.00120846
-0.000800548
-0.000442781
-0.00014474
8.52557e-05
0.000240473
0.000316036
0.000309139
0.000219177
4.77932e-05
-0.00020117
-0.000521827
-0.000906547
-0.00134602
-0.00182999
-0.00234747
-0.00288714
-0.00343789
-0.00398915
-0.00453122
-0.00505556
-0.00555495
-0.00602363
-0.00645731
-0.00685313
-0.00720954
-0.00752617
-0.00780363
-0.00804328
-0.00824707
-0.00841726
-0.00855625
-0.0086664
-0.00874983
-0.00880841
-0.00884369
-0.0088571
-0.00885029
-0.00882596
-0.00878914
-0.00874779
-0.00871553
-2.00264e-05
1.59349e-06
9.95426e-06
5.16378e-06
-1.40893e-05
-4.88965e-05
-9.90989e-05
-0.000163746
-0.000241548
-0.000331142
-0.000431263
-0.000540844
-0.000659076
-0.000785478
-0.000919832
-0.00106218
-0.00121277
-0.001372
-0.00154031
-0.00171817
-0.001906
-0.00210408
-0.00231257
-0.00253145
-0.00276045
-0.00299906
-0.0032465
-0.00350168
-0.00376319
-0.00402929
-0.00429788
-0.00456649
-0.00483227
-0.00509205
-0.0053423
-0.00557919
-0.00579865
-0.00599641
-0.00616811
-0.00630937
-0.00641594
-0.00648376
-0.00650918
-0.00648902
-0.00642076
-0.00630267
-0.00613394
-0.0059148
-0.00564663
-0.00533208
-0.00497514
-0.00458096
-0.00415533
-0.00370627
-0.00324256
-0.0027737
-0.00230994
-0.00186194
-0.00144052
-0.0010563
-0.00071936
-0.000438917
-0.000222958
-7.7944e-05
-8.54244e-06
-1.74249e-05
-0.000105142
-0.000270084
-0.000508533
-0.000814813
-0.00118154
-0.00159994
-0.00206008
-0.00255156
-0.00306365
-0.00358586
-0.00410823
-0.00462168
-0.00511825
-0.00559125
-0.00603538
-0.00644669
-0.00682259
-0.0071617
-0.00746369
-0.00772917
-0.0079594
-0.00815617
-0.00832159
-0.0084579
-0.00856732
-0.00865196
-0.00871375
-0.00875442
-0.00877564
-0.00877925
-0.00876776
-0.00874507
-0.00871563
-0.00868323
-3.31776e-05
-6.51631e-06
1.75247e-06
-4.58164e-06
-2.47112e-05
-5.9298e-05
-0.000108092
-0.000170205
-0.000244515
-0.000329843
-0.000425085
-0.000529315
-0.000641864
-0.000762299
-0.000890471
-0.00102645
-0.0011705
-0.001323
-0.00148441
-0.00165518
-0.00183574
-0.0020264
-0.00222735
-0.00243862
-0.00266004
-0.00289118
-0.00313139
-0.00337971
-0.0036349
-0.00389537
-0.00415919
-0.00442405
-0.00468729
-0.00494588
-0.00519642
-0.00543521
-0.00565825
-0.00586136
-0.00604018
-0.00619033
-0.00630751
-0.00638759
-0.00642678
-0.00642178
-0.00636989
-0.00626918
-0.00611863
-0.00591824
-0.00566914
-0.00537378
-0.00503589
-0.00465947
-0.00425209
-0.00382047
-0.00337309
-0.0029194
-0.0024695
-0.00203397
-0.00162351
-0.0012487
-0.000919567
-0.000645311
-0.000433912
-0.000291835
-0.000223765
-0.000232392
-0.000318286
-0.000479856
-0.000713406
-0.00101328
-0.00137211
-0.00178112
-0.00223055
-0.00270999
-0.00320881
-0.0037167
-0.0042239
-0.00472155
-0.00520194
-0.00565867
-0.00608671
-0.00648243
-0.00684352
-0.00716881
-0.00745821
-0.00771247
-0.00793299
-0.00812162
-0.00828053
-0.00841198
-0.00851821
-0.00860136
-0.00866337
-0.00870596
-0.00873071
-0.00873914
-0.00873316
-0.0087154
-0.00868628
-0.00864179
-3.36555e-05
-1.77656e-06
7.62405e-06
8.40042e-07
-1.98446e-05
-5.45651e-05
-0.000102796
-0.000163527
-0.000235622
-0.000317941
-0.00040945
-0.000509306
-0.000616916
-0.000731949
-0.000854333
-0.000984217
-0.00112193
-0.00126792
-0.0014227
-0.0015868
-0.0017607
-0.0019448
-0.00213939
-0.00234459
-0.00256034
-0.00278639
-0.00302221
-0.00326702
-0.00351974
-0.00377896
-0.00404289
-0.00430938
-0.00457588
-0.00483945
-0.00509676
-0.00534411
-0.00557747
-0.00579258
-0.00598496
-0.00615009
-0.00628344
-0.00638068
-0.00643776
-0.00645111
-0.00641776
-0.0063355
-0.00620305
-0.00602015
-0.00578772
-0.00550812
-0.00518524
-0.00482123
-0.00442508
-0.00400328
-0.00356415
-0.00311706
-0.00267214
-0.00224002
-0.00183154
-0.00145737
-0.00112771
-0.000851945
-0.000638223
-0.000493198
-0.000421722
-0.000426628
-0.000508597
-0.000666105
-0.000895469
-0.00119101
-0.00154527
-0.00194935
-0.00239326
-0.00286684
-0.00335872
-0.00385884
-0.0043573
-0.00484519
-0.00531488
-0.00576005
-0.00617586
-0.00655886
-0.00690709
-0.00721959
-0.00749656
-0.00773903
-0.00794865
-0.00812751
-0.00827794
-0.00840236
-0.00850314
-0.00858246
-0.00864228
-0.00868424
-0.00870968
-0.00871965
-0.0087153
-0.00869807
-0.00866506
-0.00860671
-1.70966e-05
1.73361e-05
2.69177e-05
1.92544e-05
-2.44584e-06
-3.78797e-05
-8.62449e-05
-0.000146362
-0.000217009
-0.00029703
-0.00038542
-0.000481399
-0.000584455
-0.000694359
-0.000811149
-0.00093509
-0.00106663
-0.00120634
-0.00135485
-0.0015128
-0.00168081
-0.00185943
-0.00204908
-0.00225006
-0.00246249
-0.00268627
-0.00292111
-0.0031664
-0.00342124
-0.00368439
-0.0039542
-0.00422863
-0.00450518
-0.00478092
-0.00505246
-0.00531599
-0.00556734
-0.00580201
-0.00601528
-0.0062023
-0.00635825
-0.00647843
-0.00655847
-0.00659443
-0.00658302
-0.00652173
-0.00640899
-0.00624432
-0.00602845
-0.00576313
-0.00545083
-0.00509896
-0.0047113
-0.00429545
-0.00385998
-0.00341435
-0.0029688
-0.0025341
-0.00212125
-0.00174118
-0.00140434
-0.00112038
-0.000897768
-0.000743468
-0.000662628
-0.000658354
-0.000731555
-0.000880876
-0.00110274
-0.00139148
-0.00173959
-0.00213805
-0.00257672
-0.00304488
-0.00353144
-0.0040257
-0.00451763
-0.00499808
-0.00545933
-0.00589503
-0.00630037
-0.00667208
-0.00700815
-0.00730814
-0.00757246
-0.00780244
-0.00800005
-0.00816768
-0.00830793
-0.00842345
-0.00851678
-0.00859024
-0.0086458
-0.00868506
-0.00870912
-0.00871858
-0.00871393
-0.00869564
-0.00865828
-0.00858812
1.85411e-05
5.24831e-05
6.0723e-05
5.12837e-05
2.78023e-05
-9.08909e-06
-5.83412e-05
-0.000118601
-0.000188544
-0.000266973
-0.000352896
-0.000445592
-0.000544641
-0.000649931
-0.000761644
-0.000880202
-0.00100622
-0.00114044
-0.00128369
-0.00143678
-0.00160054
-0.00177572
-0.00196297
-0.0021628
-0.00237557
-0.00260143
-0.00284028
-0.00309173
-0.00335508
-0.00362919
-0.00391253
-0.00420305
-0.00449823
-0.004795
-0.0050898
-0.00537855
-0.00565676
-0.00591958
-0.00616186
-0.00637837
-0.00656382
-0.00671311
-0.00682146
-0.00688456
-0.00689878
-0.00686129
-0.00677025
-0.00662497
-0.00642598
-0.00617499
-0.00587472
-0.00553076
-0.00514857
-0.0047354
-0.00429971
-0.00385103
-0.0033997
-0.00295666
-0.00253313
-0.00214031
-0.00178898
-0.00148917
-0.00124976
-0.00107813
-0.000979892
-0.000958564
-0.00101544
-0.0011495
-0.0013574
-0.00163364
-0.00197074
-0.00235962
-0.00278999
-0.00325082
-0.00373076
-0.00421868
-0.00470449
-0.00517823
-0.00563217
-0.00605973
-0.00645595
-0.00681752
-0.00714262
-0.00743083
-0.00768288
-0.00790036
-0.00808556
-0.0082412
-0.0083702
-0.00847549
-0.00855987
-0.00862581
-0.00867538
-0.00871017
-0.00873113
-0.00873852
-0.00873231
-0.00871228
-0.00867132
-0.00859292
7.37774e-05
0.00010431
0.000109565
9.72609e-05
7.10864e-05
3.1928e-05
-1.89593e-05
-8.00804e-05
-0.000150021
-0.000227553
-0.000311701
-0.000401812
-0.000497579
-0.000599039
-0.000706554
-0.000820747
-0.000942455
-0.00107266
-0.00121241
-0.00136283
-0.00152498
-0.00169991
-0.00188855
-0.00209171
-0.00231002
-0.00254389
-0.00279348
-0.0030586
-0.00333866
-0.00363261
-0.00393889
-0.00425537
-0.00457932
-0.00490742
-0.00523573
-0.00555977
-0.00587458
-0.0061748
-0.00645478
-0.00670877
-0.00693099
-0.00711589
-0.00725826
-0.00735341
-0.00739739
-0.00738708
-0.0073204
-0.00719643
-0.00701552
-0.00677929
-0.00649056
-0.00615422
-0.00577604
-0.00536323
-0.00492422
-0.00446856
-0.00400667
-0.00354966
-0.00310896
-0.00269606
-0.00232212
-0.00199761
-0.00173192
-0.00153302
-0.00140709
-0.00135828
-0.00138845
-0.00149711
-0.00168137
-0.00193605
-0.00225392
-0.00262595
-0.00304179
-0.0034902
-0.00395955
-0.00443836
-0.00491582
-0.00538197
-0.00582839
-0.00624814
-0.00663599
-0.00698846
-0.00730364
-0.00758106
-0.00782176
-0.00802738
-0.00820051
-0.0083442
-0.00846167
-0.00855617
-0.00863077
-0.00868817
-0.0087306
-0.0087597
-0.00877637
-0.00878069
-0.00877229
-0.0087505
-0.00870725
-0.00862466
0.00014841
0.000172876
0.000173523
0.000157211
0.000127408
8.51963e-05
3.19812e-05
-3.06539e-05
-0.000101246
-0.000178566
-0.000261682
-0.000350037
-0.000443468
-0.0005422
-0.000646818
-0.000758199
-0.000877456
-0.00100587
-0.00114483
-0.00129577
-0.00146013
-0.00163929
-0.00183455
-0.00204705
-0.00227774
-0.00252732
-0.00279616
-0.00308421
-0.00339095
-0.00371528
-0.00405548
-0.00440918
-0.00477329
-0.00514403
-0.00551697
-0.00588705
-0.00624871
-0.006596
-0.0069227
-0.00722248
-0.00748908
-0.00771647
-0.00789904
-0.00803175
-0.00811035
-0.00813145
-0.00809275
-0.00799311
-0.00783267
-0.0076129
-0.0073366
-0.00700832
-0.00663374
-0.00621996
-0.00577536
-0.00530943
-0.00483264
-0.00435618
-0.00389169
-0.00345092
-0.00304546
-0.00268626
-0.00238334
-0.00214535
-0.00197925
-0.00188999
-0.00188025
-0.00195031
-0.00209799
-0.00231871
-0.00260567
-0.00295013
-0.00334186
-0.00376953
-0.0042213
-0.00468531
-0.00515023
-0.00560567
-0.00604258
-0.00645353
-0.00683283
-0.00717661
-0.00748272
-0.00775064
-0.00798101
-0.00817591
-0.008338
-0.00847052
-0.00857701
-0.00866099
-0.00872581
-0.00877444
-0.00880931
-0.0088322
-0.00884406
-0.00884492
-0.00883427
-0.00881116
-0.00876723
-0.00868432
0.000241891
0.000257871
0.000252383
0.000230982
0.000196691
0.000150726
9.45689e-05
2.9822e-05
-4.20537e-05
-0.000119879
-0.000202814
-0.000290439
-0.000382779
-0.000480294
-0.000583841
-0.000694609
-0.000814055
-0.000943837
-0.00108574
-0.00124161
-0.00141332
-0.00160266
-0.00181133
-0.00204086
-0.00229252
-0.00256725
-0.0028656
-0.00318755
-0.00353251
-0.0038992
-0.00428558
-0.00468884
-0.00510536
-0.00553076
-0.00595994
-0.00638718
-0.00680625
-0.00721054
-0.00759321
-0.0079474
-0.00826635
-0.00854359
-0.00877314
-0.00894965
-0.00906855
-0.00912625
-0.00912018
-0.00904899
-0.00891256
-0.00871212
-0.00845043
-0.00813164
-0.00776123
-0.00734609
-0.00689443
-0.00641562
-0.00592005
-0.00541893
-0.00492403
-0.00444738
-0.00400092
-0.00359618
-0.00324384
-0.00295338
-0.0027327
-0.00258775
-0.0025223
-0.00253769
-0.00263274
-0.00280378
-0.00304476
-0.00334751
-0.00370214
-0.00409745
-0.0045215
-0.00496216
-0.00540763
-0.00584695
-0.00627044
-0.00667001
-0.00703934
-0.00737399
-0.00767133
-0.00793048
-0.00815197
-0.00833763
-0.00849021
-0.00861304
-0.00870984
-0.00878438
-0.00884026
-0.0088807
-0.00890839
-0.00892529
-0.00893248
-0.00893008
-0.00891756
-0.00889389
-0.00885091
-0.00877107
0.000353372
0.000358628
0.000345606
0.000318171
0.000278659
0.000228355
0.000168733
0.000101331
2.75186e-05
-5.16202e-05
-0.000135397
-0.000223588
-0.000316461
-0.000414763
-0.000519687
-0.000632797
-0.000755971
-0.000891314
-0.00104109
-0.00120762
-0.00139326
-0.00160028
-0.00183081
-0.00208676
-0.00236967
-0.00268068
-0.00302036
-0.00338864
-0.00378467
-0.00420681
-0.00465251
-0.00511836
-0.00560005
-0.00609246
-0.00658975
-0.00708545
-0.00757261
-0.00804397
-0.0084921
-0.0089096
-0.00928925
-0.00962419
-0.0099081
-0.0101353
-0.010301
-0.0104014
-0.0104335
-0.0103958
-0.010288
-0.0101108
-0.00986689
-0.00956002
-0.00919532
-0.00877937
-0.00832008
-0.00782657
-0.00730905
-0.00677865
-0.00624717
-0.0057268
-0.00522986
-0.0047684
-0.00435383
-0.00399653
-0.0037055
-0.00348792
-0.00334886
-0.00329103
-0.00331461
-0.0034172
-0.00359385
-0.00383734
-0.00413842
-0.00448633
-0.00486925
-0.00527488
-0.00569108
-0.00610632
-0.00651022
-0.00689391
-0.0072503
-0.00757416
-0.00786223
-0.008113
-0.00832661
-0.00850451
-0.00864939
-0.00876444
-0.00885343
-0.00892029
-0.0089688
-0.00900241
-0.00902404
-0.00903586
-0.00903917
-0.00903422
-0.0090206
-0.00899732
-0.00895678
-0.00888276
0.000481639
0.000474089
0.000452255
0.000418017
0.000372712
0.000317602
0.000254062
0.000183466
0.00010702
2.56223e-05
-6.02562e-05
-0.00015065
-0.000246133
-0.000347806
-0.000457265
-0.000576528
-0.000707962
-0.000854198
-0.00101803
-0.00120235
-0.00141002
-0.0016438
-0.00190625
-0.00219959
-0.00252559
-0.00288544
-0.0032796
-0.00370774
-0.0041686
-0.00465997
-0.00517863
-0.00572041
-0.0062802
-0.00685205
-0.0074293
-0.00800472
-0.00857064
-0.00911918
-0.00964233
-0.0101322
-0.0105812
-0.010982
-0.011328
-0.0116134
-0.0118329
-0.0119824
-0.012059
-0.0120605
-0.0119864
-0.0118372
-0.0116151
-0.0113234
-0.0109669
-0.0105516
-0.0100852
-0.00957619
-0.00903463
-0.00847137
-0.00789811
-0.00732711
-0.00677094
-0.00624212
-0.00575276
-0.00531421
-0.00493662
-0.00462856
-0.00439667
-0.00424533
-0.0041764
-0.00418916
-0.00428022
-0.00444369
-0.00467143
-0.00495344
-0.00527835
-0.00563397
-0.00600793
-0.00638822
-0.00676374
-0.00712479
-0.00746333
-0.00777321
-0.00805023
-0.00829212
-0.00849832
-0.0086698
-0.00880861
-0.00891793
-0.00900135
-0.00906278
-0.00910607
-0.00913484
-0.00915217
-0.00916045
-0.00916119
-0.00915486
-0.00914121
-0.00911938
-0.00908259
-0.0090164
0.000625036
0.000602616
0.000571039
0.00052933
0.000477784
0.000417512
0.000349656
0.000275309
0.00019542
0.000110617
2.10762e-05
-7.3568e-05
-0.000174266
-0.000282549
-0.000400494
-0.000530647
-0.000675941
-0.000839593
-0.001025
-0.00123562
-0.00147487
-0.00174598
-0.00205188
-0.002395
-0.00277721
-0.00319956
-0.00366227
-0.00416452
-0.00470446
-0.00527913
-0.0058845
-0.00651551
-0.00716616
-0.00782963
-0.00849843
-0.00916457
-0.00981969
-0.0104553
-0.0110629
-0.011634
-0.0121608
-0.0126356
-0.0130516
-0.0134023
-0.0136826
-0.0138881
-0.0140152
-0.0140619
-0.0140271
-0.0139109
-0.013715
-0.0134424
-0.0130973
-0.0126852
-0.0122131
-0.0116892
-0.0111229
-0.0105248
-0.00990626
-0.00927941
-0.00865693
-0.00805166
-0.00747635
-0.00694322
-0.00646361
-0.00604758
-0.00570348
-0.0054376
-0.00525387
-0.00515363
-0.00513551
-0.00519547
-0.00532696
-0.00552125
-0.00576783
-0.00605498
-0.00637035
-0.00670163
-0.00703708
-0.00736609
-0.00767959
-0.00797033
-0.008233
-0.00846424
-0.00866256
-0.0088281
-0.00896237
-0.00906793
-0.0091481
-0.00920659
-0.00924719
-0.00927353
-0.00928881
-0.00929557
-0.00929551
-0.00928933
-0.00927694
-0.00925768
-0.00922571
-0.00916863
0.000781339
0.000742237
0.000699937
0.000650307
0.000592236
0.000526533
0.000453968
0.000375244
0.00029094
0.000201323
0.000106196
4.77917e-06
-0.000104335
-0.000223189
-0.00035442
-0.000501176
-0.000667019
-0.00085581
-0.00107157
-0.00131836
-0.00160009
-0.00192042
-0.00228251
-0.00268891
-0.00314135
-0.00364062
-0.00418642
-0.00477731
-0.00541063
-0.00608254
-0.00678808
-0.0075212
-0.00827498
-0.00904171
-0.00981307
-0.0105803
-0.0113344
-0.0120664
-0.0127671
-0.0134278
-0.0140402
-0.0145965
-0.0150892
-0.0155121
-0.0158596
-0.0161268
-0.0163104
-0.0164076
-0.0164172
-0.0163389
-0.0161739
-0.0159246
-0.0155947
-0.0151891
-0.0147141
-0.0141774
-0.0135876
-0.0129546
-0.0122896
-0.0116041
-0.0109109
-0.0102228
-0.00955293
-0.00891435
-0.00831945
-0.00777972
-0.00730532
-0.00690462
-0.00658386
-0.00634682
-0.00619464
-0.00612565
-0.0061355
-0.00621729
-0.00636195
-0.00655869
-0.00679564
-0.00706042
-0.00734084
-0.00762547
-0.00790412
-0.00816829
-0.00841133
-0.0086286
-0.00881736
-0.00897667
-0.00910711
-0.00921049
-0.00928955
-0.00934758
-0.00938815
-0.00941473
-0.00943052
-0.00943812
-0.00943933
-0.00943504
-0.00942536
-0.00940979
-0.00938348
-0.00933614
0.000947688
0.000890184
0.000836373
0.000778487
0.000713767
0.000642388
0.000564685
0.000480829
0.000390916
0.000294762
0.000191702
8.04599e-05
-4.09182e-05
-0.000175067
-0.00032526
-0.000495314
-0.000689474
-0.000912271
-0.00116836
-0.00146236
-0.00179862
-0.00218108
-0.00261303
-0.0030969
-0.00363413
-0.00422498
-0.00486849
-0.00556235
-0.00630298
-0.00708553
-0.00790398
-0.00875131
-0.0096196
-0.0105003
-0.0113841
-0.0122618
-0.0131235
-0.0139598
-0.0147611
-0.0155184
-0.0162228
-0.0168663
-0.0174416
-0.0179418
-0.0183612
-0.0186951
-0.0189395
-0.0190917
-0.01915
-0.0191139
-0.018984
-0.0187622
-0.0184517
-0.0180567
-0.0175828
-0.0170367
-0.0164264
-0.0157611
-0.015051
-0.0143074
-0.0135424
-0.0127686
-0.0119995
-0.0112484
-0.0105286
-0.00985293
-0.00923314
-0.00867975
-0.00820146
-0.00780482
-0.00749383
-0.00726977
-0.00713108
-0.00707338
-0.00708971
-0.00717092
-0.00730613
-0.0074834
-0.00769038
-0.00791499
-0.00814598
-0.0083735
-0.0085894
-0.00878746
-0.00896345
-0.00911499
-0.00924144
-0.00934355
-0.00942321
-0.00948305
-0.00952615
-0.0095557
-0.00957466
-0.0095856
-0.00959034
-0.00958985
-0.00958438
-0.00957357
-0.00955352
-0.00951595
0.00112046
0.00104299
0.000977073
0.000910976
0.00083929
0.000761982
0.000678623
0.000588695
0.000491707
0.000386922
0.000273114
0.000148421
1.02558e-05
-0.000144687
-0.000320386
-0.000521379
-0.000752623
-0.00101932
-0.00132673
-0.00167994
-0.00208363
-0.00254186
-0.00305782
-0.00363366
-0.00427027
-0.0049672
-0.00572258
-0.00653313
-0.00739417
-0.00829974
-0.00924275
-0.0102151
-0.0112079
-0.0122117
-0.0132165
-0.0142121
-0.0151883
-0.016135
-0.0170424
-0.0179009
-0.0187016
-0.0194363
-0.0200973
-0.0206779
-0.0211723
-0.0215755
-0.0218836
-0.0220936
-0.0222036
-0.0222128
-0.0221215
-0.0219311
-0.0216442
-0.0212642
-0.020796
-0.0202455
-0.0196197
-0.0189269
-0.0181763
-0.0173783
-0.0165444
-0.0156867
-0.0148182
-0.0139525
-0.0131033
-0.0122843
-0.0115088
-0.0107891
-0.0101365
-0.00956037
-0.00906783
-0.00866356
-0.0083494
-0.00812421
-0.00798396
-0.00792189
-0.00792892
-0.00799419
-0.00810574
-0.00825117
-0.00841837
-0.00859616
-0.00877476
-0.00894615
-0.00910427
-0.00924502
-0.00936615
-0.00946702
-0.00954835
-0.00961181
-0.00965976
-0.00969483
-0.00971956
-0.00973637
-0.00974691
-0.00975215
-0.00975239
-0.00974735
-0.00973396
-0.00970575
0.00129518
0.00119644
0.00111811
0.00104338
0.000964818
0.000881324
0.000791649
0.000694482
0.000588634
0.000472712
0.000344841
0.000202478
4.23272e-05
-0.000139661
-0.000348225
-0.000588654
-0.000866622
-0.00118797
-0.00155847
-0.00198355
-0.00246807
-0.003016
-0.00363023
-0.00431235
-0.00506252
-0.00587935
-0.0067599
-0.00769975
-0.00869302
-0.00973257
-0.0108102
-0.0119166
-0.013042
-0.014176
-0.0153079
-0.0164267
-0.0175217
-0.0185824
-0.0195985
-0.0205603
-0.0214588
-0.0222856
-0.0230331
-0.0236946
-0.0242643
-0.0247372
-0.0251095
-0.0253782
-0.0255413
-0.0255977
-0.0255473
-0.0253914
-0.0251317
-0.0247712
-0.024314
-0.0237649
-0.0231301
-0.0224166
-0.0216327
-0.0207877
-0.0198918
-0.0189563
-0.0179937
-0.0170169
-0.0160398
-0.0150764
-0.014141
-0.0132477
-0.0124097
-0.0116391
-0.0109464
-0.0103399
-0.00982522
-0.00940527
-0.0090797
-0.00884508
-0.00869507
-0.0086208
-0.00861145
-0.00865492
-0.00873864
-0.00885026
-0.00897838
-0.00911302
-0.00924602
-0.00937116
-0.00948422
-0.00958277
-0.00966599
-0.00973428
-0.00978889
-0.0098317
-0.00986468
-0.00988972
-0.00990824
-0.00992107
-0.00992844
-0.00993008
-0.00992359
-0.00990402
0.00146653
0.00134554
0.0012543
0.00117112
0.00108557
0.000995499
0.000898662
0.000792819
0.00067597
0.000545973
0.00040021
0.000235379
4.74006e-05
-0.000168575
-0.000418079
-0.000707162
-0.00104218
-0.00142952
-0.00187535
-0.0023853
-0.00296416
-0.0036156
-0.00434197
-0.00514408
-0.0060211
-0.00697052
-0.00798819
-0.00906838
-0.0102039
-0.0113865
-0.0126065
-0.0138538
-0.0151175
-0.0163862
-0.0176484
-0.0188927
-0.0201079
-0.0212829
-0.0224073
-0.0234713
-0.0244659
-0.0253828
-0.0262145
-0.0269544
-0.027597
-0.0281376
-0.0285724
-0.0288985
-0.029114
-0.0292177
-0.0292092
-0.0290897
-0.0288603
-0.0285234
-0.0280823
-0.027541
-0.0269046
-0.026179
-0.0253711
-0.024489
-0.0235415
-0.0225389
-0.0214922
-0.0204137
-0.0193165
-0.0182146
-0.0171227
-0.0160556
-0.0150284
-0.0140555
-0.0131503
-0.0123249
-0.011589
-0.0109499
-0.0104117
-0.00997541
-0.00963836
-0.00939479
-0.00923608
-0.00915134
-0.0091282
-0.00915361
-0.00921471
-0.00929953
-0.00939756
-0.00950016
-0.00960068
-0.0096945
-0.00977878
-0.00985224
-0.00991481
-0.00996716
-0.0100104
-0.0100458
-0.0100743
-0.0100965
-0.0101123
-0.0101214
-0.010122
-0.0101102
0.00162871
0.00148433
0.00138014
0.00128855
0.00119586
0.00109868
0.000993612
0.000877354
0.00074699
0.000599541
0.000431565
0.000238927
1.67071e-05
-0.000240785
-0.000539884
-0.000887367
-0.00129019
-0.0017552
-0.00228877
-0.0028965
-0.00358291
-0.00435113
-0.00520269
-0.00613738
-0.00715321
-0.00824634
-0.00941125
-0.0106408
-0.0119265
-0.0132586
-0.0146264
-0.0160185
-0.017423
-0.0188277
-0.0202205
-0.0215893
-0.0229224
-0.0242087
-0.0254376
-0.0265995
-0.0276853
-0.0286871
-0.0295977
-0.030411
-0.0311216
-0.0317253
-0.0322185
-0.0325987
-0.0328641
-0.0330134
-0.0330464
-0.0329638
-0.0327666
-0.0324565
-0.0320362
-0.0315089
-0.0308785
-0.0301499
-0.0293287
-0.0284214
-0.0274356
-0.0263796
-0.0252634
-0.0240976
-0.0228942
-0.0216665
-0.0204288
-0.0191961
-0.0179843
-0.0168095
-0.0156878
-0.0146343
-0.013663
-0.0127857
-0.0120116
-0.0113467
-0.0107933
-0.0103498
-0.0100113
-0.00976917
-0.0096123
-0.00952773
-0.00950161
-0.00952015
-0.00957042
-0.00964103
-0.00972254
-0.00980758
-0.00989087
-0.00996896
-0.0100399
-0.0101031
-0.0101582
-0.0102058
-0.010246
-0.010279
-0.0103044
-0.0103218
-0.0103295
-0.0103245
0.00177421
0.00160625
0.00148914
0.0013892
0.00128916
0.00118418
0.00106956
0.000940831
0.000794068
0.000625376
0.000430419
0.000204171
-5.91753e-05
-0.00036616
-0.000723899
-0.00113983
-0.0016214
-0.00217572
-0.0028092
-0.00352719
-0.00433365
-0.00523091
-0.00621944
-0.00729781
-0.00846263
-0.00970858
-0.0110286
-0.0124142
-0.0138552
-0.0153405
-0.0168583
-0.018396
-0.0199407
-0.0214793
-0.0229993
-0.024488
-0.0259335
-0.0273247
-0.0286512
-0.0299033
-0.0310726
-0.0321514
-0.0331331
-0.0340121
-0.0347836
-0.0354438
-0.0359895
-0.0364186
-0.0367297
-0.0369216
-0.0369939
-0.0369475
-0.0367831
-0.036502
-0.0361062
-0.0355982
-0.0349811
-0.0342585
-0.0334348
-0.0325151
-0.0315053
-0.0304121
-0.0292436
-0.0280087
-0.026718
-0.025383
-0.0240171
-0.0226346
-0.0212515
-0.0198846
-0.0185515
-0.0172702
-0.0160579
-0.0149311
-0.0139041
-0.0129884
-0.0121923
-0.0115197
-0.0109704
-0.0105398
-0.0102195
-0.00999765
-0.00986034
-0.00979245
-0.00977879
-0.00980507
-0.00985865
-0.00992896
-0.0100077
-0.0100887
-0.0101677
-0.0102421
-0.0103103
-0.0103714
-0.0104248
-0.0104699
-0.010506
-0.0105323
-0.0105472
-0.0105483
0.00189577
0.00170405
0.00157416
0.00146592
0.00135821
0.00124455
0.0011188
0.000975234
0.000808845
0.000614755
0.000387676
0.000121647
-0.000190041
-0.000554764
-0.000980359
-0.00147482
-0.00204593
-0.00270088
-0.00344587
-0.00428572
-0.0052236
-0.00626077
-0.00739641
-0.00862763
-0.00994945
-0.011355
-0.0128354
-0.0143807
-0.0159792
-0.0176184
-0.0192851
-0.0209657
-0.0226464
-0.0243135
-0.0259539
-0.0275547
-0.029104
-0.0305907
-0.0320048
-0.0333371
-0.0345796
-0.0357254
-0.0367685
-0.0377038
-0.0385274
-0.0392359
-0.0398268
-0.0402984
-0.0406496
-0.0408796
-0.0409879
-0.0409759
-0.0408436
-0.0405923
-0.0402235
-0.0397391
-0.0391413
-0.0384328
-0.0376167
-0.0366969
-0.0356775
-0.0345637
-0.0333615
-0.032078
-0.0307216
-0.0293021
-0.0278309
-0.0263211
-0.0247876
-0.023247
-0.0217174
-0.0202183
-0.0187697
-0.0173917
-0.0161034
-0.0149223
-0.0138627
-0.0129353
-0.012146
-0.0114958
-0.0109806
-0.0105913
-0.0103153
-0.010137
-0.0100395
-0.0100058
-0.0100197
-0.010067
-0.0101358
-0.0102167
-0.0103024
-0.0103878
-0.0104696
-0.0105452
-0.0106128
-0.0106712
-0.0107188
-0.0107546
-0.0107768
-0.0107836
0.00198516
0.00176991
0.0016275
0.001511
0.00139516
0.00127173
0.00113302
0.000971971
0.000782437
0.000558502
0.000293886
-1.83254e-05
-0.000385735
-0.000816508
-0.00131911
-0.00190193
-0.00257293
-0.00333913
-0.00420626
-0.00517837
-0.00625756
-0.00744375
-0.00873461
-0.0101256
-0.01161
-0.013179
-0.0148224
-0.016528
-0.018283
-0.0200733
-0.0218845
-0.0237021
-0.0255113
-0.0272982
-0.0290491
-0.0307513
-0.032393
-0.0339635
-0.0354532
-0.0368537
-0.0381578
-0.0393591
-0.0404525
-0.0414339
-0.0422998
-0.0430476
-0.0436756
-0.0441825
-0.0445675
-0.0448303
-0.0449708
-0.04499
-0.0448882
-0.0446662
-0.0443255
-0.0438673
-0.0432933
-0.0426054
-0.0418055
-0.0408963
-0.0398806
-0.0387618
-0.0375441
-0.0362326
-0.0348335
-0.0333542
-0.031804
-0.0301939
-0.0285368
-0.0268482
-0.0251455
-0.0234483
-0.0217783
-0.020158
-0.0186106
-0.0171588
-0.0158233
-0.0146218
-0.0135676
-0.0126686
-0.011927
-0.0113385
-0.0108934
-0.0105772
-0.0103722
-0.0102591
-0.0102183
-0.0102317
-0.0102831
-0.010359
-0.0104487
-0.0105442
-0.0106394
-0.0107299
-0.0108127
-0.0108851
-0.0109451
-0.010991
-0.0110208
-0.011033
0.00203378
0.00179563
0.00164109
0.00151629
0.00139174
0.00125725
0.00110353
0.000922114
0.000705688
0.000447263
0.000139546
-0.00022533
-0.00065582
-0.00116079
-0.00174921
-0.00242971
-0.00321017
-0.00409721
-0.00509585
-0.00620906
-0.00743762
-0.00877988
-0.0102318
-0.0117869
-0.0134366
-0.0151704
-0.0169759
-0.0188396
-0.0207467
-0.0226822
-0.0246303
-0.0265756
-0.0285031
-0.0303982
-0.0322474
-0.0340381
-0.0357589
-0.0373999
-0.038952
-0.0404078
-0.0417607
-0.0430056
-0.044138
-0.0451547
-0.0460531
-0.0468313
-0.0474881
-0.0480228
-0.0484351
-0.0487252
-0.048894
-0.0489402
-0.0488659
-0.0486719
-0.0483591
-0.0479284
-0.0473811
-0.0467182
-0.0459411
-0.0450511
-0.0440501
-0.0429399
-0.041723
-0.0404025
-0.0389825
-0.0374681
-0.0358659
-0.0341843
-0.032434
-0.0306281
-0.0287822
-0.026915
-0.0250479
-0.0232048
-0.0214116
-0.0196948
-0.0180811
-0.016595
-0.0152579
-0.0140859
-0.0130888
-0.0122695
-0.0116232
-0.0111385
-0.0107987
-0.0105829
-0.0104689
-0.0104342
-0.0104581
-0.0105225
-0.0106123
-0.0107156
-0.0108234
-0.0109289
-0.0110272
-0.0111144
-0.0111875
-0.0112441
-0.011282
-0.0112997
0.00203289
0.00177283
0.00160663
0.00147345
0.00133947
0.00119247
0.00102149
0.000816655
0.000569454
0.000271808
-8.4586e-05
-0.000508514
-0.00100922
-0.00159615
-0.00227862
-0.00306529
-0.00396373
-0.00497991
-0.00611783
-0.00737916
-0.00876307
-0.0102661
-0.0118824
-0.0136033
-0.0154184
-0.0173149
-0.0192789
-0.021295
-0.0233471
-0.0254187
-0.0274932
-0.0295547
-0.0315876
-0.0335774
-0.0355108
-0.0373758
-0.0391616
-0.0408589
-0.0424598
-0.0439577
-0.0453471
-0.0466236
-0.0477841
-0.0488259
-0.0497474
-0.0505474
-0.0512253
-0.0517808
-0.0522142
-0.052526
-0.0527169
-0.0527871
-0.0527376
-0.0525693
-0.0522831
-0.0518799
-0.0513603
-0.050725
-0.0499749
-0.0491104
-0.0481323
-0.0470414
-0.0458386
-0.0445254
-0.0431038
-0.0415766
-0.039948
-0.0382236
-0.0364111
-0.0345207
-0.0325655
-0.0305619
-0.0285297
-0.0264925
-0.0244769
-0.0225123
-0.0206294
-0.0188591
-0.0172305
-0.0157684
-0.014492
-0.0134127
-0.0125333
-0.0118481
-0.0113429
-0.0109977
-0.0107879
-0.0106875
-0.010671
-0.0107148
-0.0107988
-0.0109067
-0.0110256
-0.0111456
-0.0112595
-0.0113619
-0.0114488
-0.0115168
-0.0115634
-0.0115872
0.00197379
0.00169317
0.00151587
0.00137418
0.00122992
0.0010688
0.000878197
0.000646803
0.000364905
2.33473e-05
-0.000387156
-0.000876254
-0.00145387
-0.00212991
-0.00291383
-0.00381411
-0.00483774
-0.00598978
-0.00727294
-0.00868734
-0.0102303
-0.0118965
-0.0136777
-0.0155634
-0.0175408
-0.0195954
-0.0217112
-0.0238713
-0.0260583
-0.0282545
-0.0304428
-0.0326067
-0.0347307
-0.0368005
-0.0388032
-0.0407277
-0.0425639
-0.0443037
-0.04594
-0.0474675
-0.0488816
-0.0501791
-0.0513575
-0.0524153
-0.0533515
-0.0541656
-0.0548576
-0.0554278
-0.0558766
-0.056205
-0.0564138
-0.0565036
-0.0564755
-0.0563303
-0.0560688
-0.0556917
-0.0551996
-0.0545928
-0.0538717
-0.0530363
-0.0520865
-0.0510223
-0.0498435
-0.0485502
-0.0471426
-0.0456215
-0.0439888
-0.0422474
-0.040402
-0.0384596
-0.0364299
-0.0343262
-0.0321656
-0.0299696
-0.0277639
-0.0255786
-0.023447
-0.0214045
-0.0194868
-0.0177275
-0.0161554
-0.0147923
-0.0136507
-0.0127327
-0.0120301
-0.0115253
-0.0111936
-0.0110062
-0.0109328
-0.0109443
-0.0110149
-0.0111226
-0.0112499
-0.0113833
-0.0115128
-0.0116308
-0.011732
-0.0118122
-0.0118684
-0.0118991
0.00184808
0.00154861
0.00136083
0.00121043
0.00105495
0.000878029
0.000665372
0.000404269
8.38267e-05
-0.000306159
-0.000775908
-0.00133584
-0.00199645
-0.00276792
-0.00365964
-0.00467965
-0.00583416
-0.00712701
-0.0085594
-0.0101296
-0.011833
-0.013662
-0.0156061
-0.0176527
-0.0197869
-0.021992
-0.0242505
-0.0265438
-0.0288533
-0.0311607
-0.0334484
-0.0356998
-0.0378997
-0.0400342
-0.0420913
-0.0440607
-0.0459335
-0.0477026
-0.0493621
-0.0509078
-0.0523363
-0.0536452
-0.054833
-0.055899
-0.0568429
-0.0576647
-0.058365
-0.0589445
-0.059404
-0.0597447
-0.0599674
-0.0600732
-0.0600631
-0.0599379
-0.0596986
-0.0593457
-0.0588796
-0.0583006
-0.0576088
-0.0568038
-0.0558851
-0.054852
-0.0537036
-0.0524388
-0.0510567
-0.0495563
-0.0479375
-0.0462008
-0.044348
-0.042383
-0.0403118
-0.0381441
-0.0358933
-0.0335775
-0.0312199
-0.0288492
-0.0264992
-0.0242076
-0.0220152
-0.0199628
-0.0180888
-0.016426
-0.014998
-0.0138177
-0.0128853
-0.0121888
-0.0117059
-0.0114063
-0.0112561
-0.0112206
-0.0112675
-0.0113685
-0.0115006
-0.0116457
-0.0117902
-0.0119241
-0.0120404
-0.0121335
-0.0122002
-0.0122393
0.00164792
0.00133162
0.00113406
0.000974712
0.000807019
0.000612564
0.000375434
8.15634e-05
-0.000281084
-0.000723709
-0.00125739
-0.00189321
-0.00264208
-0.00351427
-0.0045189
-0.00566334
-0.00695271
-0.00838943
-0.00997292
-0.0116995
-0.0135622
-0.0155512
-0.0176538
-0.0198549
-0.0221376