/*--------------------------------*- C++ -*----------------------------------*\
  =========                 |
  \\      /  F ield         | OpenFOAM: The Open Source CFD Toolbox
   \\    /   O peration     | Website:  https://openfoam.org
    \\  /    A nd           | Version:  9
     \\/     M anipulation  |
\*---------------------------------------------------------------------------*/
FoamFile
{
    format      ascii;
    class       surfaceScalarField;
    location    "3.75";
    object      phi;
}
// * * * * * * * * * * * * * * * * * * * * * * * * * * * * * * * * * * * * * //

dimensions      [0 3 -1 0 0 0 0];

internalField   nonuniform List<scalar> 
19800
(
6.94839e-11
-7.48881e-11
9.52445e-10
-8.82969e-10
2.52963e-09
-1.57717e-09
4.50529e-09
-1.97567e-09
6.62886e-09
-2.12354e-09
8.71083e-09
-2.082e-09
1.06165e-08
-1.90562e-09
1.22565e-08
-1.64001e-09
1.35776e-08
-1.32114e-09
1.45539e-08
-9.76267e-10
1.5179e-08
-6.25113e-10
1.54598e-08
-2.80783e-10
1.54105e-08
4.93132e-11
1.50477e-08
3.6279e-10
1.43866e-08
6.61096e-10
1.34381e-08
9.48538e-10
1.22067e-08
1.23134e-09
1.069e-08
1.51667e-09
8.87833e-09
1.81171e-09
6.7553e-09
2.12303e-09
4.29927e-09
2.45604e-09
1.48457e-09
2.81469e-09
-1.71678e-09
3.20135e-09
-5.33358e-09
3.6168e-09
-9.3939e-09
4.06032e-09
-1.39237e-08
4.52979e-09
-1.89455e-08
5.02186e-09
-2.44776e-08
5.53202e-09
-3.05323e-08
6.05469e-09
-3.71155e-08
6.58324e-09
-4.42255e-08
7.11003e-09
-5.18519e-08
7.62642e-09
-5.99748e-08
8.12288e-09
-6.85638e-08
8.589e-09
-7.75775e-08
9.01369e-09
-8.69628e-08
9.38529e-09
-9.66546e-08
9.69182e-09
-1.06576e-07
9.92117e-09
-1.16637e-07
1.00614e-08
-1.26738e-07
1.01011e-08
-1.36768e-07
1.00294e-08
-1.46604e-07
9.83669e-09
-1.56119e-07
9.51469e-09
-1.65176e-07
9.05673e-09
-1.73634e-07
8.45816e-09
-1.8135e-07
7.71657e-09
-1.88182e-07
6.83201e-09
-1.9399e-07
5.80731e-09
-1.98638e-07
4.64849e-09
-2.02004e-07
3.36539e-09
-2.03975e-07
1.97091e-09
-2.04458e-07
4.83233e-10
-2.03352e-07
-1.10559e-09
-2.0062e-07
-2.73253e-09
-1.96223e-07
-4.39699e-09
-1.90156e-07
-6.06702e-09
-1.82443e-07
-7.71299e-09
-1.73139e-07
-9.30375e-09
-1.62332e-07
-1.08072e-08
-1.50141e-07
-1.21911e-08
-1.36716e-07
-1.34242e-08
-1.2224e-07
-1.44769e-08
-1.06917e-07
-1.53227e-08
-9.09777e-08
-1.59392e-08
-7.46686e-08
-1.63091e-08
-5.82474e-08
-1.64212e-08
-4.19762e-08
-1.62712e-08
-2.6114e-08
-1.58621e-08
-1.09095e-08
-1.52045e-08
3.40734e-09
-1.43168e-08
1.66323e-08
-1.32249e-08
2.85898e-08
-1.19575e-08
3.91419e-08
-1.05521e-08
4.81895e-08
-9.04765e-09
5.56754e-08
-7.48586e-09
6.15827e-08
-5.90731e-09
6.59339e-08
-4.35114e-09
6.87873e-08
-2.85341e-09
7.02326e-08
-1.44533e-09
7.0385e-08
-1.52431e-10
6.9379e-08
1.00608e-09
6.73613e-08
2.0176e-09
6.44852e-08
2.87619e-09
6.09035e-08
3.58167e-09
5.67641e-08
4.13939e-09
5.2205e-08
4.5591e-09
4.73511e-08
4.85388e-09
4.23124e-08
5.03874e-09
3.71832e-08
5.12921e-09
3.20437e-08
5.1395e-09
2.69631e-08
5.08053e-09
2.20056e-08
4.95752e-09
1.72383e-08
4.7673e-09
1.27429e-08
4.49545e-09
8.62922e-09
4.11366e-09
5.04995e-09
3.57927e-09
2.20828e-09
2.84167e-09
3.44372e-10
1.86391e-09
-3.47255e-10
6.91628e-10
-3.47253e-10
8.77803e-10
-9.52701e-10
3.41215e-09
-3.41735e-09
7.17007e-09
-5.33508e-09
1.16588e-08
-6.46433e-09
1.64105e-08
-6.87539e-09
2.10319e-08
-6.7033e-09
2.52167e-08
-6.09049e-09
2.87438e-08
-5.16707e-09
3.14653e-08
-4.04271e-09
3.32939e-08
-2.8048e-09
3.41878e-08
-1.51895e-09
3.4137e-08
-2.29991e-10
3.31524e-08
1.03386e-09
3.1252e-08
2.2632e-09
2.8454e-08
3.45912e-09
2.47691e-08
4.6334e-09
2.01963e-08
5.80419e-09
1.47201e-08
6.99288e-09
8.31058e-09
8.22122e-09
9.24607e-10
9.509e-09
-7.49151e-09
1.08721e-08
-1.69984e-08
1.23216e-08
-2.76598e-08
1.38627e-08
-3.95381e-08
1.54952e-08
-5.2691e-08
1.72132e-08
-6.71668e-08
1.90057e-08
-8.3002e-08
2.0857e-08
-1.00217e-07
2.2747e-08
-1.18814e-07
2.46516e-08
-1.38773e-07
2.6543e-08
-1.60053e-07
2.83899e-08
-1.82585e-07
3.01581e-08
-2.06273e-07
3.18105e-08
-2.30992e-07
3.33081e-08
-2.56588e-07
3.46104e-08
-2.8288e-07
3.56763e-08
-3.09653e-07
3.64649e-08
-3.36668e-07
3.69363e-08
-3.6366e-07
3.70533e-08
-3.9034e-07
3.67814e-08
-4.16401e-07
3.60905e-08
-4.4152e-07
3.49558e-08
-4.65364e-07
3.33582e-08
-4.87593e-07
3.12857e-08
-5.07868e-07
2.87337e-08
-5.25857e-07
2.57055e-08
-5.41238e-07
2.22132e-08
-5.53709e-07
1.82777e-08
-5.6299e-07
1.39296e-08
-5.68835e-07
9.21038e-09
-5.71034e-07
4.17035e-09
-5.6943e-07
-1.12058e-09
-5.63873e-07
-6.66292e-09
-5.54302e-07
-1.23037e-08
-5.40709e-07
-1.79902e-08
-5.2314e-07
-2.36355e-08
-5.01706e-07
-2.91474e-08
-4.76579e-07
-3.44303e-08
-4.47998e-07
-3.93879e-08
-4.16265e-07
-4.39244e-08
-3.81741e-07
-4.79479e-08
-3.44846e-07
-5.13725e-08
-3.06047e-07
-5.41215e-08
-2.65856e-07
-5.61299e-08
-2.24818e-07
-5.73476e-08
-1.83497e-07
-5.77417e-08
-1.4247e-07
-5.72985e-08
-1.02307e-07
-5.60252e-08
-6.35606e-08
-5.39507e-08
-2.67519e-08
-5.11256e-08
7.64429e-09
-4.76211e-08
3.92143e-08
-4.35275e-08
6.76092e-08
-3.89471e-08
9.25602e-08
-3.39987e-08
1.13883e-07
-2.88086e-08
1.31479e-07
-2.35031e-08
1.45334e-07
-1.82068e-08
1.55519e-07
-1.30381e-08
1.62177e-07
-8.10349e-09
1.65519e-07
-3.49416e-09
1.65809e-07
7.16096e-10
1.63353e-07
4.47389e-09
1.58483e-07
7.74547e-09
1.51549e-07
1.05164e-08
1.42897e-07
1.27907e-08
1.32868e-07
1.45879e-08
1.21783e-07
1.59398e-08
1.09935e-07
1.68864e-08
9.75934e-08
1.74707e-08
8.49995e-08
1.77334e-08
7.23743e-08
1.77057e-08
5.99292e-08
1.74027e-08
4.78809e-08
1.68156e-08
3.6471e-08
1.59054e-08
2.59855e-08
1.45991e-08
1.67693e-08
1.27955e-08
9.22184e-09
1.03891e-08
3.75832e-09
7.32743e-09
7.17024e-10
3.73292e-09
3.6977e-10
1.57977e-09
-2.53245e-09
5.35274e-09
-7.19035e-09
1.05892e-08
-1.05715e-08
1.66324e-08
-1.25076e-08
2.28874e-08
-1.31304e-08
2.88467e-08
-1.26626e-08
3.41032e-08
-1.1347e-08
3.83495e-08
-9.41334e-09
4.13683e-08
-7.06151e-09
4.30185e-08
-4.45506e-09
4.32191e-08
-1.71952e-09
4.19325e-08
1.0566e-09
3.91475e-08
3.81881e-09
3.48675e-08
6.54324e-09
2.90963e-08
9.23035e-09
2.18301e-08
1.18996e-08
1.30515e-08
1.45828e-08
2.726e-09
1.73184e-08
-9.19773e-09
2.0145e-08
-2.2786e-08
2.30973e-08
-3.81158e-08
2.6202e-08
-5.52698e-08
2.94756e-08
-7.433e-08
3.29229e-08
-9.53718e-08
3.65369e-08
-1.18457e-07
4.02989e-08
-1.43631e-07
4.41789e-08
-1.70911e-07
4.81374e-08
-2.0029e-07
5.21254e-08
-2.31724e-07
5.60856e-08
-2.65134e-07
5.99536e-08
-3.00403e-07
6.36585e-08
-3.37369e-07
6.71243e-08
-3.7583e-07
7.02709e-08
-4.15538e-07
7.30162e-08
-4.56204e-07
7.52772e-08
-4.975e-07
7.69723e-08
-5.39059e-07
7.80232e-08
-5.80479e-07
7.83569e-08
-6.21334e-07
7.79079e-08
-6.61172e-07
7.66197e-08
-6.99528e-07
7.44467e-08
-7.35928e-07
7.13559e-08
-7.69898e-07
6.73276e-08
-8.00969e-07
6.23569e-08
-8.28689e-07
5.6454e-08
-8.52629e-07
4.9645e-08
-8.72387e-07
4.19717e-08
-8.87602e-07
3.34922e-08
-8.97952e-07
2.42801e-08
-9.0317e-07
1.44282e-08
-9.03063e-07
4.06308e-09
-8.97415e-07
-6.76841e-09
-8.86187e-07
-1.78911e-08
-8.69339e-07
-2.9151e-08
-8.46924e-07
-4.04058e-08
-8.19063e-07
-5.14965e-08
-7.85954e-07
-6.22562e-08
-7.4787e-07
-7.25142e-08
-7.05159e-07
-8.20994e-08
-6.58239e-07
-9.08437e-08
-6.07601e-07
-9.85859e-08
-5.53798e-07
-1.05176e-07
-4.9744e-07
-1.10479e-07
-4.39188e-07
-1.14382e-07
-3.7974e-07
-1.16795e-07
-3.19824e-07
-1.17658e-07
-2.6018e-07
-1.16942e-07
-2.01549e-07
-1.14657e-07
-1.44654e-07
-1.10845e-07
-9.01885e-08
-1.05592e-07
-3.87953e-08
-9.90143e-08
8.94456e-09
-9.12674e-08
5.25325e-08
-8.2535e-08
9.1549e-08
-7.30152e-08
1.25687e-07
-6.29462e-08
1.54737e-07
-5.25539e-08
1.78603e-07
-4.20724e-08
1.97294e-07
-3.17293e-08
2.10925e-07
-2.17339e-08
2.19703e-07
-1.22726e-08
2.23922e-07
-3.50277e-09
2.23944e-07
4.45217e-09
2.20181e-07
1.15079e-08
2.13086e-07
1.76114e-08
2.03129e-07
2.27481e-08
1.90783e-07
2.69343e-08
1.76511e-07
3.02118e-08
1.60756e-07
3.26409e-08
1.43936e-07
3.42913e-08
1.26438e-07
3.5231e-08
1.0863e-07
3.55141e-08
9.08642e-08
3.5168e-08
7.34992e-08
3.41806e-08
5.69143e-08
3.24903e-08
4.15301e-08
2.99834e-08
2.78196e-08
2.65059e-08
1.6304e-08
2.19047e-08
7.52145e-09
1.611e-08
1.95975e-09
9.29463e-09
2.32952e-09
2.00217e-09
-4.53461e-09
6.54658e-09
-1.17347e-08
1.2631e-08
-1.6656e-08
1.9447e-08
-1.93235e-08
2.63039e-08
-1.99873e-08
3.26237e-08
-1.89824e-08
3.794e-08
-1.66633e-08
4.18927e-08
-1.33661e-08
4.4218e-08
-9.3867e-09
4.47335e-08
-4.97058e-09
4.33224e-08
-3.08463e-10
3.99157e-08
4.46336e-09
3.44748e-08
9.2597e-09
2.69771e-08
1.40409e-08
1.74025e-08
1.88049e-08
5.72384e-09
2.35783e-08
-8.09965e-09
2.84063e-08
-2.41248e-08
3.33435e-08
-4.24239e-08
3.84441e-08
-6.30818e-08
4.37552e-08
-8.61899e-08
4.931e-08
-1.11839e-07
5.51249e-08
-1.40112e-07
6.11962e-08
-1.71076e-07
6.75007e-08
-2.04772e-07
7.39952e-08
-2.41212e-07
8.06185e-08
-2.80367e-07
8.72926e-08
-3.22167e-07
9.39249e-08
-3.66491e-07
1.0041e-07
-4.13168e-07
1.06631e-07
-4.61972e-07
1.12463e-07
-5.12623e-07
1.17776e-07
-5.64787e-07
1.22435e-07
-6.18079e-07
1.26308e-07
-6.72065e-07
1.29263e-07
-7.26269e-07
1.31176e-07
-7.8018e-07
1.31935e-07
-8.3326e-07
1.31436e-07
-8.84949e-07
1.29597e-07
-9.3468e-07
1.2635e-07
-9.81882e-07
1.21649e-07
-1.026e-06
1.15469e-07
-1.06647e-06
1.07807e-07
-1.1028e-06
9.86851e-08
-1.13449e-06
8.81459e-08
-1.16111e-06
7.62559e-08
-1.18224e-06
6.31035e-08
-1.19754e-06
4.87989e-08
-1.20674e-06
3.34718e-08
-1.20957e-06
1.72646e-08
-1.20596e-06
4.50207e-10
-1.19567e-06
-1.70624e-08
-1.17875e-06
-3.48058e-08
-1.15524e-06
-5.2663e-08
-1.12524e-06
-7.04058e-08
-1.08894e-06
-8.78e-08
-1.04659e-06
-1.04605e-07
-9.98525e-07
-1.20576e-07
-9.45154e-07
-1.3547e-07
-8.8695e-07
-1.49048e-07
-8.24456e-07
-1.6108e-07
-7.58281e-07
-1.71352e-07
-6.8909e-07
-1.7967e-07
-6.17602e-07
-1.8587e-07
-5.44579e-07
-1.89818e-07
-4.70817e-07
-1.91421e-07
-3.97129e-07
-1.9063e-07
-3.2434e-07
-1.87446e-07
-2.53264e-07
-1.81921e-07
-1.84693e-07
-1.74163e-07
-1.19377e-07
-1.6433e-07
-5.80121e-08
-1.52632e-07
-1.22203e-09
-1.39325e-07
5.04728e-08
-1.2471e-07
9.66253e-08
-1.09099e-07
1.36914e-07
-9.28426e-08
1.71132e-07
-7.62908e-08
1.99194e-07
-5.97909e-08
2.21131e-07
-4.36709e-08
2.3709e-07
-2.82312e-08
2.47321e-07
-1.37338e-08
2.52173e-07
-3.99722e-10
2.52062e-07
1.16184e-08
2.47475e-07
2.21982e-08
2.38937e-07
3.12866e-08
2.26996e-07
3.88752e-08
2.12209e-07
4.49984e-08
1.95127e-07
4.97227e-08
1.76285e-07
5.31339e-08
1.56195e-07
5.53208e-08
1.35352e-07
5.63571e-08
1.14238e-07
5.62825e-08
9.33333e-08
5.50849e-08
7.31371e-08
5.26865e-08
5.41796e-08
4.89409e-08
3.70366e-08
4.36489e-08
2.23355e-08
3.66058e-08
1.07533e-08
2.76922e-08
3.01906e-09
1.70289e-08
5.34858e-09
2.18909e-09
-6.72366e-09
7.05118e-09
-1.65969e-08
1.33907e-08
-2.29955e-08
2.02768e-08
-2.62096e-08
2.69465e-08
-2.6657e-08
3.27759e-08
-2.48118e-08
3.72643e-08
-2.11517e-08
4.00215e-08
-1.61232e-08
4.07539e-08
-1.01191e-08
3.92496e-08
-3.4663e-09
3.53616e-08
3.57952e-09
2.89905e-08
1.08345e-08
2.00675e-08
1.81827e-08
8.53991e-09
2.55685e-08
-5.64181e-09
3.29866e-08
-2.2533e-08
4.04695e-08
-4.22002e-08
4.80736e-08
-6.47229e-08
5.58661e-08
-9.0191e-08
6.39122e-08
-1.187e-07
7.22646e-08
-1.50345e-07
8.0955e-08
-1.8521e-07
8.9989e-08
-2.23356e-07
9.93431e-08
-2.6482e-07
1.08964e-07
-3.09596e-07
1.18771e-07
-3.57632e-07
1.28655e-07
-4.08823e-07
1.38484e-07
-4.63006e-07
1.48107e-07
-5.19953e-07
1.57357e-07
-5.79373e-07
1.66051e-07
-6.40912e-07
1.74002e-07
-7.04154e-07
1.81017e-07
-7.68623e-07
1.86905e-07
-8.33796e-07
1.91481e-07
-8.99104e-07
1.94571e-07
-9.63947e-07
1.96019e-07
-1.0277e-06
1.95687e-07
-1.08973e-06
1.93463e-07
-1.14939e-06
1.8926e-07
-1.20606e-06
1.83021e-07
-1.25913e-06
1.74719e-07
-1.30802e-06
1.64359e-07
-1.35219e-06
1.51974e-07
-1.39113e-06
1.37629e-07
-1.4244e-06
1.21415e-07
-1.45159e-06
1.03451e-07
-1.47237e-06
8.38818e-08
-1.48645e-06
6.28753e-08
-1.4936e-06
4.06213e-08
-1.49367e-06
1.73362e-08
-1.48648e-06
-6.73748e-09
-1.47211e-06
-3.14329e-08
-1.45051e-06
-5.64058e-08
-1.42178e-06
-8.13995e-08
-1.38605e-06
-1.06129e-07
-1.34355e-06
-1.30297e-07
-1.29456e-06
-1.53597e-07
-1.23942e-06
-1.75719e-07
-1.17854e-06
-1.96352e-07
-1.1124e-06
-2.1519e-07
-1.04153e-06
-2.31941e-07
-9.66562e-07
-2.46324e-07
-8.88145e-07
-2.58088e-07
-8.07004e-07
-2.67011e-07
-7.23911e-07
-2.72911e-07
-6.39677e-07
-2.75654e-07
-5.55145e-07
-2.75162e-07
-4.71174e-07
-2.71417e-07
-3.88628e-07
-2.64467e-07
-3.08361e-07
-2.5443e-07
-2.31199e-07
-2.41493e-07
-1.5792e-07
-2.2591e-07
-8.92442e-08
-2.08001e-07
-2.58157e-08
-1.88139e-07
3.18242e-08
-1.66739e-07
8.3234e-08
-1.44252e-07
1.28084e-07
-1.21141e-07
1.66178e-07
-9.78849e-08
1.9744e-07
-7.49325e-08
2.21919e-07
-5.27105e-08
2.39788e-07
-3.1602e-08
2.51323e-07
-1.19351e-08
2.56913e-07
6.02882e-09
2.57015e-07
2.20954e-08
2.52162e-07
3.61403e-08
2.42928e-07
4.81086e-08
2.29922e-07
5.80051e-08
2.13761e-07
6.58835e-08
1.95065e-07
7.18291e-08
1.74447e-07
7.59392e-08
1.52505e-07
7.82989e-08
1.29831e-07
7.89568e-08
1.07014e-07
7.79016e-08
8.46567e-08
7.50441e-08
6.33868e-08
7.02108e-08
4.3877e-08
6.31587e-08
2.68639e-08
5.36189e-08
1.3177e-08
4.13791e-08
3.79359e-09
2.64123e-08
9.14217e-09
2.19142e-09
-8.91512e-09
6.96519e-09
-2.13706e-08
1.30141e-08
-2.90444e-08
1.93274e-08
-3.25229e-08
2.50959e-08
-3.24255e-08
2.96698e-08
-2.93857e-08
3.2532e-08
-2.40139e-08
3.32774e-08
-1.68687e-08
3.15958e-08
-8.43748e-09
2.72548e-08
8.74747e-10
2.00829e-08
1.07515e-08
9.9528e-09
2.09646e-08
-3.23412e-09
3.13696e-08
-1.9562e-08
4.18963e-08
-3.91111e-08
5.25357e-08
-6.19656e-08
6.3324e-08
-8.82169e-08
7.43249e-08
-1.17963e-07
8.56123e-08
-1.51305e-07
9.72539e-08
-1.88338e-07
1.09298e-07
-2.29144e-07
1.21761e-07
-2.73781e-07
1.34626e-07
-3.22271e-07
1.47833e-07
-3.74589e-07
1.61282e-07
-4.30657e-07
1.74838e-07
-4.90332e-07
1.8833e-07
-5.53405e-07
2.01557e-07
-6.19592e-07
2.14295e-07
-6.88539e-07
2.26304e-07
-7.5982e-07
2.37332e-07
-8.32942e-07
2.47123e-07
-9.07351e-07
2.55426e-07
-9.82443e-07
2.61997e-07
-1.05758e-06
2.66613e-07
-1.13208e-06
2.69072e-07
-1.20526e-06
2.69201e-07
-1.27643e-06
2.66862e-07
-1.34492e-06
2.61953e-07
-1.41007e-06
2.54408e-07
-1.47125e-06
2.44203e-07
-1.52788e-06
2.3135e-07
-1.57942e-06
2.159e-07
-1.62539e-06
1.97937e-07
-1.66534e-06
1.77579e-07
-1.69889e-06
1.54974e-07
-1.72574e-06
1.30296e-07
-1.7456e-06
1.03744e-07
-1.75827e-06
7.55405e-08
-1.76358e-06
4.59298e-08
-1.76142e-06
1.51825e-08
-1.75172e-06
-1.64401e-08
-1.7345e-06
-4.86493e-08
-1.7098e-06
-8.11083e-08
-1.6777e-06
-1.13495e-07
-1.63836e-06
-1.4547e-07
-1.59198e-06
-1.7668e-07
-1.53882e-06
-2.06763e-07
-1.47918e-06
-2.3535e-07
-1.41347e-06
-2.6207e-07
-1.3421e-06
-2.86555e-07
-1.2656e-06
-3.08445e-07
-1.18452e-06
-3.27399e-07
-1.09951e-06
-3.431e-07
-1.01126e-06
-3.55264e-07
-9.20515e-07
-3.63653e-07
-8.28088e-07
-3.68081e-07
-7.34822e-07
-3.68428e-07
-6.41595e-07
-3.64644e-07
-5.49304e-07
-3.56758e-07
-4.58848e-07
-3.44886e-07
-3.71114e-07
-3.29227e-07
-2.86958e-07
-3.10067e-07
-2.07186e-07
-2.87773e-07
-1.3254e-07
-2.62785e-07
-6.36734e-08
-2.35605e-07
-1.14444e-09
-2.06781e-07
5.4615e-08
-1.76901e-07
1.03274e-07
-1.46543e-07
1.44642e-07
-1.16301e-07
1.78661e-07
-8.67295e-08
2.05401e-07
-5.83418e-08
2.25055e-07
-3.15893e-08
2.37935e-07
-6.85129e-09
2.44453e-07
1.55776e-08
2.45105e-07
3.54881e-08
2.40461e-07
5.27525e-08
2.31141e-07
6.7325e-08
2.178e-07
7.92246e-08
2.01112e-07
8.85172e-08
1.81759e-07
9.52924e-08
1.60423e-07
9.96347e-08
1.37785e-07
1.01594e-07
1.14529e-07
1.01158e-07
9.13489e-08
9.82243e-08
6.89649e-08
9.25948e-08
4.81449e-08
8.39787e-08
2.9736e-08
7.20278e-08
1.47152e-08
5.63999e-08
4.27314e-09
3.68544e-08
1.34153e-08
2.04674e-09
-1.09618e-08
6.37576e-09
-2.56996e-08
1.16372e-08
-3.43059e-08
1.67867e-08
-3.76724e-08
2.09978e-08
-3.66366e-08
2.36158e-08
-3.20037e-08
2.41227e-08
-2.45207e-08
2.21111e-08
-1.48571e-08
1.72637e-08
-3.59017e-09
9.33505e-09
8.80345e-09
-1.86589e-09
2.19524e-08
-1.64909e-08
3.55896e-08
-3.46672e-08
4.95458e-08
-5.65085e-08
6.37377e-08
-8.21245e-08
7.81517e-08
-1.11625e-07
9.28246e-08
-1.45121e-07
1.07821e-07
-1.82722e-07
1.23213e-07
-2.24528e-07
1.39059e-07
-2.70618e-07
1.55388e-07
-3.21045e-07
1.72188e-07
-3.75817e-07
1.89398e-07
-4.34891e-07
2.06907e-07
-4.98159e-07
2.2455e-07
-5.65442e-07
2.42121e-07
-6.36483e-07
2.59371e-07
-7.10946e-07
2.7602e-07
-7.88415e-07
2.91763e-07
-8.68396e-07
3.06285e-07
-9.50327e-07
3.19263e-07
-1.03359e-06
3.30382e-07
-1.1175e-06
3.39341e-07
-1.20137e-06
3.45865e-07
-1.28446e-06
3.49708e-07
-1.36606e-06
3.50666e-07
-1.44543e-06
3.48575e-07
-1.52189e-06
3.43321e-07
-1.59477e-06
3.34834e-07
-1.66346e-06
3.23094e-07
-1.72738e-06
3.08125e-07
-1.78602e-06
2.89993e-07
-1.83893e-06
2.68806e-07
-1.8857e-06
2.44704e-07
-1.92598e-06
2.17858e-07
-1.95947e-06
1.8847e-07
-1.98594e-06
1.56763e-07
-2.00518e-06
1.22984e-07
-2.01704e-06
8.73961e-08
-2.02139e-06
5.02854e-08
-2.01817e-06
1.19639e-08
-2.00733e-06
-2.72855e-08
-1.98887e-06
-6.71082e-08
-1.96283e-06
-1.07149e-07
-1.92928e-06
-1.47045e-07
-1.88834e-06
-1.86412e-07
-1.84016e-06
-2.24855e-07
-1.78496e-06
-2.61961e-07
-1.723e-06
-2.9731e-07
-1.6546e-06
-3.30472e-07
-1.58014e-06
-3.6102e-07
-1.50005e-06
-3.88528e-07
-1.41487e-06
-4.12587e-07
-1.32516e-06
-4.3281e-07
-1.23158e-06
-4.48844e-07
-1.13485e-06
-4.60382e-07
-1.03575e-06
-4.67177e-07
-9.3513e-07
-4.69049e-07
-8.3387e-07
-4.65903e-07
-7.32896e-07
-4.57733e-07
-6.33149e-07
-4.44632e-07
-5.35576e-07
-4.268e-07
-4.41106e-07
-4.04536e-07
-3.50634e-07
-3.78245e-07
-2.64998e-07
-3.48422e-07
-1.8496e-07
-3.15643e-07
-1.11189e-07
-2.80552e-07
-4.4252e-08
-2.43838e-07
1.5416e-08
-2.06211e-07
6.75041e-08
-1.68389e-07
1.11838e-07
-1.31063e-07
1.48379e-07
-9.48835e-08
1.77227e-07
-6.04366e-08
1.98603e-07
-2.82278e-08
2.12858e-07
1.32276e-09
2.2043e-07
2.79163e-08
2.2186e-07
5.13226e-08
2.17756e-07
7.14288e-08
2.08783e-07
8.81979e-08
1.95643e-07
1.01657e-07
1.79066e-07
1.1187e-07
1.59794e-07
1.18906e-07
1.38582e-07
1.22807e-07
1.16191e-07
1.23549e-07
9.33983e-08
1.21017e-07
7.10112e-08
1.14982e-07
4.9889e-08
1.05101e-07
3.09834e-08
9.09334e-08
1.53979e-08
7.19854e-08
4.48025e-09
4.7772e-08
1.78956e-08
1.77914e-09
-1.2741e-08
5.34689e-09
-2.92674e-08
9.36714e-09
-3.83262e-08
1.28062e-08
-4.11114e-08
1.48527e-08
-3.86831e-08
1.48686e-08
-3.20196e-08
1.23506e-08
-2.20027e-08
6.90025e-09
-9.40669e-09
-1.7987e-09
5.10879e-09
-1.39993e-08
2.1004e-08
-2.99076e-08
3.78608e-08
-4.9697e-08
5.5379e-08
-7.35196e-08
7.33684e-08
-1.01516e-07
9.1734e-08
-1.3382e-07
1.10456e-07
-1.70562e-07
1.29566e-07
-2.11862e-07
1.49122e-07
-2.57829e-07
1.6918e-07
-3.08546e-07
1.89776e-07
-3.64061e-07
2.10903e-07
-4.24372e-07
2.32499e-07
-4.89417e-07
2.54444e-07
-5.59062e-07
2.76552e-07
-6.33094e-07
2.98582e-07
-7.11212e-07
3.20239e-07
-7.93028e-07
3.41187e-07
-8.78069e-07
3.61061e-07
-9.65783e-07
3.79477e-07
-1.05554e-06
3.96046e-07
-1.14667e-06
4.1039e-07
-1.23844e-06
4.22148e-07
-1.33009e-06
4.30995e-07
-1.42087e-06
4.36644e-07
-1.51002e-06
4.38858e-07
-1.59681e-06
4.37454e-07
-1.68054e-06
4.32305e-07
-1.76056e-06
4.23342e-07
-1.83627e-06
4.1055e-07
-1.90715e-06
3.93966e-07
-1.9727e-06
3.73674e-07
-2.0325e-06
3.49799e-07
-2.0862e-06
3.22504e-07
-2.13348e-06
2.91982e-07
-2.17407e-06
2.58453e-07
-2.20776e-06
2.22159e-07
-2.23436e-06
1.83362e-07
-2.25372e-06
1.42341e-07
-2.26571e-06
9.93903e-08
-2.27025e-06
5.482e-08
-2.26725e-06
8.97027e-09
-2.25668e-06
-3.78614e-08
-2.2385e-06
-8.52804e-08
-2.21274e-06
-1.32916e-07
-2.1794e-06
-1.80376e-07
-2.13857e-06
-2.27244e-07
-2.09034e-06
-2.73087e-07
-2.03485e-06
-3.17451e-07
-1.97229e-06
-3.59869e-07
-1.90291e-06
-3.99856e-07
-1.827e-06
-4.36925e-07
-1.74495e-06
-4.70585e-07
-1.65718e-06
-5.00354e-07
-1.56422e-06
-5.25769e-07
-1.46666e-06
-5.46399e-07
-1.36519e-06
-5.61858e-07
-1.26055e-06
-5.71819e-07
-1.15356e-06
-5.76032e-07
-1.04513e-06
-5.74334e-07
-9.36198e-07
-5.66667e-07
-8.27744e-07
-5.53086e-07
-7.20777e-07
-5.33767e-07
-6.16302e-07
-5.09011e-07
-5.15306e-07
-4.79241e-07
-4.18732e-07
-4.44996e-07
-3.27456e-07
-4.06919e-07
-2.42269e-07
-3.65739e-07
-1.63855e-07
-3.22252e-07
-9.27772e-08
-2.77289e-07
-2.94669e-08
-2.31699e-07
2.57866e-08
-1.86316e-07
7.28371e-08
-1.41934e-07
1.11682e-07
-9.92818e-08
1.42459e-07
-5.90049e-08
1.65431e-07
-2.16487e-08
1.80992e-07
1.23556e-08
1.89628e-07
4.26858e-08
1.91924e-07
6.91328e-08
1.88536e-07
9.15864e-08
1.80177e-07
1.10016e-07
1.67604e-07
1.24443e-07
1.51604e-07
1.34906e-07
1.32987e-07
1.41424e-07
1.1258e-07
1.43956e-07
9.1235e-08
1.42362e-07
6.9837e-08
1.3638e-07
4.93304e-08
1.25607e-07
3.0757e-08
1.09507e-07
1.53165e-08
8.74259e-08
4.452e-09
5.86365e-08
2.23476e-08
1.40186e-09
-1.41428e-08
3.91958e-09
-3.17851e-08
6.27921e-09
-4.06858e-08
7.50051e-09
-4.23326e-08
6.81934e-09
-3.8002e-08
3.63744e-09
-2.88377e-08
-2.51825e-09
-1.5847e-08
-1.2027e-08
1.02062e-10
-2.51971e-08
1.82789e-08
-4.22842e-08
3.80912e-08
-6.35059e-08
5.90824e-08
-8.9053e-08
8.09261e-08
-1.19099e-07
1.03414e-07
-1.53806e-07
1.26441e-07
-1.93324e-07
1.49975e-07
-2.37793e-07
1.74035e-07
-2.87333e-07
1.98662e-07
-3.42034e-07
2.23881e-07
-4.01944e-07
2.49686e-07
-4.67056e-07
2.76015e-07
-5.37296e-07
3.02738e-07
-6.12506e-07
3.29654e-07
-6.92443e-07
3.56489e-07
-7.76768e-07
3.82907e-07
-8.65047e-07
4.08518e-07
-9.56757e-07
4.32897e-07
-1.05129e-06
4.55595e-07
-1.14797e-06
4.76156e-07
-1.24606e-06
4.94138e-07
-1.3448e-06
5.09124e-07
-1.44338e-06
5.20735e-07
-1.54104e-06
5.28648e-07
-1.63699e-06
5.32593e-07
-1.7305e-06
5.3237e-07
-1.82089e-06
5.27842e-07
-1.90752e-06
5.1894e-07
-1.98983e-06
5.05656e-07
-2.06732e-06
4.8804e-07
-2.13955e-06
4.66192e-07
-2.20613e-06
4.40257e-07
-2.26675e-06
4.10414e-07
-2.32112e-06
3.76875e-07
-2.36901e-06
3.39876e-07
-2.41023e-06
2.99671e-07
-2.44461e-06
2.56534e-07
-2.47199e-06
2.10748e-07
-2.49227e-06
1.62614e-07
-2.50532e-06
1.12441e-07
-2.51105e-06
6.05544e-08
-2.50939e-06
7.30461e-09
-2.50025e-06
-4.6994e-08
-2.4836e-06
-1.01933e-07
-2.45939e-06
-1.5713e-07
-2.42759e-06
-2.12169e-07
-2.38822e-06
-2.66615e-07
-2.34131e-06
-3.20002e-07
-2.28692e-06
-3.71843e-07
-2.22516e-06
-4.21628e-07
-2.15619e-06
-4.68824e-07
-2.08023e-06
-5.12884e-07
-1.99756e-06
-5.53253e-07
-1.90854e-06
-5.89373e-07
-1.81361e-06
-6.20703e-07
-1.71329e-06
-6.46722e-07
-1.60819e-06
-6.66954e-07
-1.49903e-06
-6.80981e-07
-1.3866e-06
-6.8846e-07
-1.27179e-06
-6.89146e-07
-1.15555e-06
-6.82904e-07
-1.03891e-06
-6.69727e-07
-9.22928e-07
-6.49749e-07
-8.08693e-07
-6.23247e-07
-6.97286e-07
-5.90647e-07
-5.89766e-07
-5.52516e-07
-4.87134e-07
-5.09551e-07
-3.90313e-07
-4.62561e-07
-3.0012e-07
-4.12444e-07
-2.17255e-07
-3.60155e-07
-1.42275e-07
-3.06679e-07
-7.55923e-08
-2.52999e-07
-1.74645e-08
-2.00062e-07
3.20049e-08
-1.48751e-07
7.28632e-08
-9.98632e-08
1.053e-07
-5.40857e-08
1.29642e-07
-1.1986e-08
1.46332e-07
2.59958e-08
1.55918e-07
5.95464e-08
1.59041e-07
8.84635e-08
1.56414e-07
1.12643e-07
1.48809e-07
1.32048e-07
1.37043e-07
1.46671e-07
1.2197e-07
1.56497e-07
1.04472e-07
1.61453e-07
8.5465e-08
1.61369e-07
6.59032e-08
1.55942e-07
4.68041e-08
1.44707e-07
2.92814e-08
1.2703e-07
1.45972e-08
1.0211e-07
4.23241e-09
6.90012e-08
2.658e-08
9.20806e-10
-1.50636e-08
2.11778e-09
-3.29821e-08
2.42402e-09
-4.09921e-08
9.5519e-10
-4.08638e-08
-2.9738e-09
-3.4073e-08
-9.89879e-09
-2.19127e-08
-2.02476e-08
-5.49826e-09
-3.43702e-08
1.42247e-08
-5.25614e-08
3.64701e-08
-7.50751e-08
6.06049e-08
-1.02136e-07
8.61437e-08
-1.3395e-07
1.1274e-07
-1.70705e-07
1.40169e-07
-2.12576e-07
1.68312e-07
-2.59723e-07
1.97121e-07
-3.1228e-07
2.26593e-07
-3.70349e-07
2.56731e-07
-4.33986e-07
2.87517e-07
-5.03183e-07
3.18883e-07
-5.77856e-07
3.50689e-07
-6.57836e-07
3.82719e-07
-7.42854e-07
4.14672e-07
-8.3254e-07
4.46175e-07
-9.26422e-07
4.76789e-07
-1.02393e-06
5.06029e-07
-1.12442e-06
5.33383e-07
-1.22716e-06
5.58333e-07
-1.33137e-06
5.8037e-07
-1.43625e-06
5.99021e-07
-1.54099e-06
6.13858e-07
-1.64477e-06
6.24516e-07
-1.74682e-06
6.30699e-07
-1.84641e-06
6.32186e-07
-1.94288e-06
6.28833e-07
-2.0356e-06
6.20569e-07
-2.12406e-06
6.07395e-07
-2.20777e-06
5.89371e-07
-2.28635e-06
5.66614e-07
-2.35944e-06
5.39284e-07
-2.42676e-06
5.07578e-07
-2.48807e-06
4.71722e-07
-2.54316e-06
4.31965e-07
-2.59185e-06
3.88573e-07
-2.63401e-06
3.41824e-07
-2.66948e-06
2.92009e-07
-2.69816e-06
2.39425e-07
-2.71993e-06
1.84381e-07
-2.73468e-06
1.27193e-07
-2.74232e-06
6.81912e-08
-2.74273e-06
7.72312e-09
-2.73585e-06
-5.38746e-08
-2.72158e-06
-1.16204e-07
-2.69984e-06
-1.78872e-07
-2.67056e-06
-2.41452e-07
-2.63368e-06
-3.03492e-07
-2.58917e-06
-3.64509e-07
-2.53703e-06
-4.23988e-07
-2.47727e-06
-4.81385e-07
-2.40997e-06
-5.36124e-07
-2.33525e-06
-5.87607e-07
-2.25329e-06
-6.35215e-07
-2.16434e-06
-6.78318e-07
-2.06875e-06
-7.16291e-07
-1.96695e-06
-7.48522e-07
-1.85948e-06
-7.74432e-07
-1.74696e-06
-7.93498e-07
-1.63015e-06
-8.05269e-07
-1.5099e-06
-8.09392e-07
-1.38718e-06
-8.05633e-07
-1.26301e-06
-7.93896e-07
-1.13851e-06
-7.74244e-07
-1.01485e-06
-7.46904e-07
-8.93221e-07
-7.1228e-07
-7.74792e-07
-6.70945e-07
-6.60708e-07
-6.23635e-07
-5.52042e-07
-5.71227e-07
-4.49767e-07
-5.14718e-07
-3.54734e-07
-4.55188e-07
-2.67648e-07
-3.93765e-07
-1.89056e-07
-3.31591e-07
-1.19338e-07
-2.6978e-07
-5.87043e-08
-2.09385e-07
-7.19991e-09
-1.51368e-07
3.52897e-08
-9.65754e-08
6.90263e-08
-4.57226e-08
9.44114e-08
6.10709e-10
1.11955e-07
4.20024e-08
1.22283e-07
7.81358e-08
1.26103e-07
1.08823e-07
1.24196e-07
1.33954e-07
1.17404e-07
1.53464e-07
1.06615e-07
1.67287e-07
9.27578e-08
1.7531e-07
7.68017e-08
1.77326e-07
5.97613e-08
1.72982e-07
4.27133e-08
1.61755e-07
2.68232e-08
1.4292e-07
1.33846e-08
1.15549e-07
3.86901e-09
7.85169e-08
3.0449e-08
3.37794e-10
-1.54014e-08
-4.81967e-11
-3.25961e-08
-2.16247e-09
-3.88778e-08
-6.76006e-09
-3.62662e-08
-1.44142e-08
-2.64188e-08
-2.55755e-08
-1.07514e-08
-4.06119e-08
9.53817e-09
-5.98363e-08
3.34491e-08
-8.35238e-08
6.01576e-08
-1.11923e-07
8.90042e-08
-1.45264e-07
1.19484e-07
-1.83758e-07
1.51234e-07
-2.27604e-07
1.84016e-07
-2.76982e-07
2.17689e-07
-3.32043e-07
2.52183e-07
-3.92906e-07
2.87455e-07
-4.59634e-07
3.2346e-07
-5.32228e-07
3.60111e-07
-6.10605e-07
3.97259e-07
-6.94585e-07
4.3467e-07
-7.83886e-07
4.7202e-07
-8.78115e-07
5.08901e-07
-9.7677e-07
5.44829e-07
-1.07925e-06
5.79266e-07
-1.18486e-06
6.11638e-07
-1.29284e-06
6.41363e-07
-1.40237e-06
6.6787e-07
-1.51263e-06
6.90628e-07
-1.62277e-06
7.09161e-07
-1.73197e-06
7.2306e-07
-1.83946e-06
7.32001e-07
-1.9445e-06
7.35743e-07
-2.04645e-06
7.34133e-07
-2.14472e-06
7.27099e-07
-2.23879e-06
7.14647e-07
-2.32825e-06
6.96847e-07
-2.4127e-06
6.7383e-07
-2.49186e-06
6.4577e-07
-2.56546e-06
6.1288e-07
-2.63328e-06
5.75401e-07
-2.69515e-06
5.33592e-07
-2.75092e-06
4.87731e-07
-2.80045e-06
4.38102e-07
-2.84362e-06
3.85e-07
-2.88034e-06
3.28723e-07
-2.91049e-06
2.69576e-07
-2.93397e-06
2.07868e-07
-2.9507e-06
1.43917e-07
-2.96056e-06
7.805e-08
-2.96344e-06
1.06072e-08
-2.95925e-06
-5.80616e-08
-2.94788e-06
-1.27577e-07
-2.92921e-06
-1.97541e-07
-2.90314e-06
-2.67528e-07
-2.86955e-06
-3.37081e-07
-2.82835e-06
-4.05707e-07
-2.77946e-06
-4.72878e-07
-2.72282e-06
-5.38024e-07
-2.6584e-06
-6.0054e-07
-2.58623e-06
-6.59783e-07
-2.50636e-06
-7.15081e-07
-2.41894e-06
-7.65736e-07
-2.32419e-06
-8.11041e-07
-2.22243e-06
-8.5029e-07
-2.11406e-06
-8.82797e-07
-1.99964e-06
-9.07921e-07
-1.87982e-06
-9.25087e-07
-1.7554e-06
-9.33811e-07
-1.6273e-06
-9.33732e-07
-1.49656e-06
-9.24635e-07
-1.36433e-06
-9.06477e-07
-1.23183e-06
-8.79403e-07
-1.10035e-06
-8.43758e-07
-9.71203e-07
-8.00093e-07
-8.4568e-07
-7.49158e-07
-7.25024e-07
-6.91883e-07
-6.10391e-07
-6.29352e-07
-5.02811e-07
-5.62767e-07
-4.03167e-07
-4.9341e-07
-3.12165e-07
-4.22593e-07
-2.3033e-07
-3.51615e-07
-1.57996e-07
-2.81719e-07
-9.53099e-08
-2.14054e-07
-4.22371e-08
-1.49648e-07
1.42345e-09
-8.93831e-08
3.60207e-08
-3.39865e-08
6.20493e-08
1.59737e-08
8.01117e-08
6.00734e-08
9.09156e-08
9.80194e-08
9.52528e-08
1.29617e-07
9.39853e-08
1.54731e-07
8.80333e-08
1.73239e-07
7.83665e-08
1.84977e-07
6.60009e-08
1.89691e-07
5.20011e-08
1.86982e-07
3.74899e-08
1.76266e-07
2.36664e-08
1.56743e-07
1.18302e-08
1.27385e-07
3.41002e-09
8.69371e-08
3.3859e-08
-3.47222e-10
-1.50542e-08
-2.56125e-09
-3.0382e-08
-7.44848e-09
-3.39906e-08
-1.55812e-08
-2.81336e-08
-2.7392e-08
-1.4608e-08
-4.32264e-08
5.08298e-09
-6.33798e-08
2.96916e-08
-8.81204e-08
5.81896e-08
-1.17699e-07
8.97367e-08
-1.52357e-07
1.23662e-07
-1.92322e-07
1.59449e-07
-2.37809e-07
1.96722e-07
-2.89017e-07
2.35224e-07
-3.46116e-07
2.74789e-07
-4.09241e-07
3.15307e-07
-4.7847e-07
3.56685e-07
-5.53816e-07
3.98805e-07
-6.35201e-07
4.41497e-07
-7.22448e-07
4.84507e-07
-8.15268e-07
5.2749e-07
-9.13255e-07
5.70006e-07
-1.01588e-06
6.11531e-07
-1.12253e-06
6.51475e-07
-1.23247e-06
6.89206e-07
-1.34491e-06
7.24078e-07
-1.45901e-06
7.55462e-07
-1.5739e-06
7.82766e-07
-1.68874e-06
8.05461e-07
-1.80267e-06
8.23099e-07
-1.91493e-06
8.3532e-07
-2.0248e-06
8.41864e-07
-2.13162e-06
8.42563e-07
-2.23483e-06
8.37343e-07
-2.33394e-06
8.26212e-07
-2.42854e-06
8.0925e-07
-2.51829e-06
7.86596e-07
-2.6029e-06
7.58441e-07
-2.68214e-06
7.25011e-07
-2.75582e-06
6.8656e-07
-2.82378e-06
6.43362e-07
-2.8859e-06
5.95706e-07
-2.94205e-06
5.43887e-07
-2.99216e-06
4.88205e-07
-3.03612e-06
4.28963e-07
-3.07386e-06
3.66466e-07
-3.10531e-06
3.01021e-07
-3.13038e-06
2.32934e-07
-3.14898e-06
1.62522e-07
-3.16103e-06
9.01022e-08
-3.16643e-06
1.60066e-08
-3.16508e-06
-5.94185e-08
-3.15684e-06
-1.3581e-07
-3.1416e-06
-2.1278e-07
-3.11922e-06
-2.89913e-07
-3.08954e-06
-3.66759e-07
-3.05242e-06
-4.4283e-07
-3.0077e-06
-5.17594e-07
-2.95525e-06
-5.90476e-07
-2.89494e-06
-6.60851e-07
-2.82667e-06
-7.28049e-07
-2.7504e-06
-7.91355e-07
-2.66612e-06
-8.50015e-07
-2.57391e-06
-9.03247e-07
-2.47395e-06
-9.50255e-07
-2.3665e-06
-9.90245e-07
-2.25197e-06
-1.02245e-06
-2.1309e-06
-1.04616e-06
-2.00398e-06
-1.06073e-06
-1.87206e-06
-1.06566e-06
-1.73613e-06
-1.06057e-06
-1.59734e-06
-1.04527e-06
-1.45695e-06
-1.01979e-06
-1.31634e-06
-9.84367e-07
-1.17694e-06
-9.39493e-07
-1.04021e-06
-8.85893e-07
-9.07572e-07
-8.24519e-07
-7.80397e-07
-7.56527e-07
-6.59932e-07
-6.83233e-07
-5.4727e-07
-6.06071e-07
-4.43323e-07
-5.2654e-07
-3.48793e-07
-4.46145e-07
-2.64168e-07
-3.66344e-07
-1.89718e-07
-2.88504e-07
-1.25507e-07
-2.1386e-07
-7.14e-08
-1.4349e-07
-2.70913e-08
-7.82952e-08