/*--------------------------------*- C++ -*----------------------------------*\
  =========                 |
  \\      /  F ield         | OpenFOAM: The Open Source CFD Toolbox
   \\    /   O peration     | Website:  https://openfoam.org
    \\  /    A nd           | Version:  9
     \\/     M anipulation  |
\*---------------------------------------------------------------------------*/
FoamFile
{
    format      ascii;
    class       volVectorField;
    location    "3.75";
    object      U;
}
// * * * * * * * * * * * * * * * * * * * * * * * * * * * * * * * * * * * * * //

dimensions      [0 1 -1 0 0 0 0];

internalField   nonuniform List<vector> 
10000
(
(-8.99444e-06 8.56756e-06 0)
(3.15105e-05 -2.27598e-05 0)
(0.000163256 -5.12768e-05 0)
(0.000346584 -6.72601e-05 0)
(0.000555765 -7.31542e-05 0)
(0.000769416 -7.20336e-05 0)
(0.000971276 -6.63242e-05 0)
(0.00115022 -5.78662e-05 0)
(0.00129927 -4.79973e-05 0)
(0.00141463 -3.76664e-05 0)
(0.00149482 -2.75229e-05 0)
(0.00154001 -1.79737e-05 0)
(0.00155136 -9.22992e-06 0)
(0.0015305 -1.3151e-06 0)
(0.00147911 5.8586e-06 0)
(0.00139853 1.24757e-05 0)
(0.00128956 1.87809e-05 0)
(0.00115233 2.50457e-05 0)
(0.000986227 3.15396e-05 0)
(0.000789921 3.85079e-05 0)
(0.00056149 4.6156e-05 0)
(0.000298534 5.4643e-05 0)
(-1.6684e-06 6.40779e-05 0)
(-0.000341991 7.45217e-05 0)
(-0.00072531 8.59928e-05 0)
(-0.00115436 9.84712e-05 0)
(-0.00163159 0.000111903 0)
(-0.00215908 0.000126205 0)
(-0.00273836 0.000141262 0)
(-0.00337039 0.000156932 0)
(-0.00405539 0.000173039 0)
(-0.00479277 0.000189371 0)
(-0.00558104 0.000205684 0)
(-0.00641769 0.000221698 0)
(-0.00729914 0.000237095 0)
(-0.00822067 0.00025153 0)
(-0.00917636 0.000264625 0)
(-0.0101591 0.00027598 0)
(-0.0111606 0.000285181 0)
(-0.0121713 0.000291804 0)
(-0.0131805 0.000295427 0)
(-0.0141767 0.000295643 0)
(-0.0151473 0.000292066 0)
(-0.016079 0.00028435 0)
(-0.0169578 0.000272195 0)
(-0.0177696 0.000255366 0)
(-0.0185 0.000233705 0)
(-0.0191348 0.000207142 0)
(-0.0196602 0.000175729 0)
(-0.0200632 0.000139681 0)
(-0.0203321 9.93471e-05 0)
(-0.0204564 5.50499e-05 0)
(-0.0204265 7.34675e-06 0)
(-0.0202352 -4.35693e-05 0)
(-0.0198788 -9.64846e-05 0)
(-0.0193551 -0.000150391 0)
(-0.0186649 -0.000204265 0)
(-0.0178123 -0.000256984 0)
(-0.0168044 -0.000307356 0)
(-0.0156515 -0.00035416 0)
(-0.0143671 -0.000396185 0)
(-0.0129679 -0.000432282 0)
(-0.0114733 -0.000461406 0)
(-0.00990521 -0.000482669 0)
(-0.00828753 -0.000495384 0)
(-0.00664559 -0.000499111 0)
(-0.00500553 -0.000493683 0)
(-0.00339354 -0.000479229 0)
(-0.00183513 -0.000456184 0)
(-0.0003543 -0.000425298 0)
(0.00102692 -0.000387613 0)
(0.00228942 -0.000344198 0)
(0.00341761 -0.000296554 0)
(0.00439953 -0.000246152 0)
(0.00522731 -0.000194534 0)
(0.00589724 -0.000143163 0)
(0.00640964 -9.34118e-05 0)
(0.00676861 -4.64937e-05 0)
(0.00698165 -3.40278e-06 0)
(0.00705912 3.51065e-05 0)
(0.00701361 6.85289e-05 0)
(0.00685933 9.66181e-05 0)
(0.0066114 0.000119361 0)
(0.00628526 0.000136941 0)
(0.00589605 0.000149722 0)
(0.00545815 0.000158202 0)
(0.00498478 0.000162969 0)
(0.00448771 0.000164654 0)
(0.00397716 0.000163884 0)
(0.00346182 0.000161226 0)
(0.00294906 0.000157108 0)
(0.00244542 0.00015174 0)
(0.00195727 0.000144995 0)
(0.00149181 0.000136264 0)
(0.00105841 0.000124292 0)
(0.000670117 0.00010705 0)
(0.000344794 8.19032e-05 0)
(0.000104324 4.65521e-05 0)
(-2.64916e-05 2.57286e-06 0)
(-3.06025e-05 -3.08594e-05 0)
(2.23891e-05 -3.18791e-05 0)
(0.000177164 -0.000177584 0)
(0.000505099 -0.000297496 0)
(0.000930564 -0.000368163 0)
(0.00140257 -0.00039489 0)
(0.00187932 -0.000387202 0)
(0.00232587 -0.000354389 0)
(0.00271588 -0.000304534 0)
(0.00303117 -0.000244196 0)
(0.00326031 -0.000178448 0)
(0.00339714 -0.000111012 0)
(0.0034394 -4.43936e-05 0)
(0.0033874 1.999e-05 0)
(0.00324282 8.15958e-05 0)
(0.00300764 0.000140638 0)
(0.00268346 0.000197877 0)
(0.00227084 0.000254435 0)
(0.00176898 0.000311611 0)
(0.00117561 0.000370721 0)
(0.000487016 0.000432968 0)
(-0.000301717 0.000499342 0)
(-0.00119639 0.000570564 0)
(-0.00220333 0.000647051 0)
(-0.00332894 0.000728921 0)
(-0.00457932 0.000816001 0)
(-0.00595986 0.000907849 0)
(-0.00747487 0.00100378 0)
(-0.00912728 0.00110289 0)
(-0.0109183 0.00120405 0)
(-0.0128471 0.00130594 0)
(-0.0149107 0.00140703 0)
(-0.0171035 0.00150563 0)
(-0.0194175 0.00159985 0)
(-0.0218415 0.00168767 0)
(-0.0243617 0.00176694 0)
(-0.0269611 0.00183539 0)
(-0.0296201 0.00189075 0)
(-0.0323159 0.00193072 0)
(-0.0350231 0.00195306 0)
(-0.0377141 0.00195563 0)
(-0.0403589 0.00193648 0)
(-0.0429259 0.00189385 0)
(-0.0453821 0.0018263 0)
(-0.0476938 0.00173271 0)
(-0.0498269 0.00161236 0)
(-0.0517477 0.00146497 0)
(-0.0534234 0.00129072 0)
(-0.0548225 0.00109035 0)
(-0.0559159 0.000865124 0)
(-0.0566771 0.000617004 0)
(-0.0570835 0.000348264 0)
(-0.0571162 6.11484e-05 0)
(-0.0567599 -0.000238502 0)
(-0.0560038 -0.000548281 0)
(-0.0548447 -0.000863347 0)
(-0.0532843 -0.00117847 0)
(-0.0513304 -0.00148819 0)
(-0.0489972 -0.00178678 0)
(-0.0463053 -0.00206837 0)
(-0.0432818 -0.00232712 0)
(-0.0399598 -0.00255736 0)
(-0.0363785 -0.00275377 0)
(-0.0325826 -0.00291158 0)
(-0.028621 -0.00302677 0)
(-0.0245469 -0.00309623 0)
(-0.020416 -0.00311795 0)
(-0.0162855 -0.00309112 0)
(-0.0122131 -0.00301626 0)
(-0.00825532 -0.00289524 0)
(-0.00446601 -0.00273131 0)
(-0.000895224 -0.00252901 0)
(0.00241214 -0.00229378 0)
(0.00541778 -0.0020321 0)
(0.00809075 -0.00175112 0)
(0.0104082 -0.00145852 0)
(0.012356 -0.00116172 0)
(0.0139284 -0.000868008 0)
(0.0151285 -0.000584128 0)
(0.015967 -0.000316008 0)
(0.0164618 -6.85655e-05 0)
(0.0166371 0.000154411 0)
(0.0165215 0.000350339 0)
(0.0161473 0.000517892 0)
(0.015549 0.000656793 0)
(0.0147615 0.00076782 0)
(0.0138196 0.000852607 0)
(0.0127564 0.000913426 0)
(0.0116028 0.00095294 0)
(0.010387 0.000973926 0)
(0.00913446 0.000978936 0)
(0.00786808 0.000969923 0)
(0.00660919 0.000947803 0)
(0.00537882 0.000911987 0)
(0.00419944 0.000859907 0)
(0.00309704 0.000786667 0)
(0.0021032 0.000685167 0)
(0.00125549 0.00054751 0)
(0.00059435 0.000368909 0)
(0.000161922 0.000158044 0)
(4.1781e-06 -2.62434e-05 0)
(5.1211e-05 -0.000163087 0)
(0.000298563 -0.00050566 0)
(0.000767338 -0.00076475 0)
(0.00134951 -0.000916979 0)
(0.00197777 -0.000971001 0)
(0.00259939 -0.000944031 0)
(0.00316885 -0.000854894 0)
(0.00365039 -0.000721214 0)
(0.00401803 -0.000558132 0)
(0.00425424 -0.000377877 0)
(0.00434831 -0.000189733 0)
(0.00429468 -1.6611e-07 0)
(0.00409128 0.000186941 0)
(0.00373804 0.000369894 0)
(0.00323556 0.000548864 0)
(0.00258402 0.000725409 0)
(0.00178248 0.000902009 0)
(0.000828378 0.00108161 0)
(-0.000282603 0.00126722 0)
(-0.00155642 0.00146156 0)
(-0.00300037 0.00166681 0)
(-0.00462256 0.00188442 0)
(-0.00643138 0.00211505 0)
(-0.00843485 0.00235853 0)
(-0.01064 0.00261387 0)
(-0.0130523 0.00287932 0)
(-0.015675 0.00315245 0)
(-0.0185088 0.00343018 0)
(-0.0215511 0.00370883 0)
(-0.024796 0.00398419 0)
(-0.0282337 0.00425155 0)
(-0.0318502 0.00450577 0)
(-0.0356274 0.00474135 0)
(-0.0395427 0.00495255 0)
(-0.0435694 0.00513342 0)
(-0.0476764 0.00527802 0)
(-0.0518289 0.00538047 0)
(-0.0559883 0.00543516 0)
(-0.060113 0.00543685 0)
(-0.0641591 0.00538086 0)
(-0.0680805 0.00526316 0)
(-0.0718299 0.00508056 0)
(-0.0753599 0.00483078 0)
(-0.078623 0.00451254 0)
(-0.0815732 0.00412571 0)
(-0.084166 0.0036713 0)
(-0.0863598 0.00315156 0)
(-0.0881163 0.00256997 0)
(-0.089401 0.00193132 0)
(-0.0901848 0.00124171 0)
(-0.0904442 0.000508254 0)
(-0.0901589 -0.000262087 0)
(-0.0893158 -0.00105657 0)
(-0.0879109 -0.00186611 0)
(-0.0859452 -0.00267964 0)
(-0.083427 -0.00348492 0)
(-0.0803724 -0.0042691 0)
(-0.076805 -0.00501903 0)
(-0.0727558 -0.00572146 0)
(-0.0682633 -0.00636331 0)
(-0.0633731 -0.00693207 0)
(-0.0581373 -0.00741605 0)
(-0.0526143 -0.00780482 0)
(-0.0468679 -0.00808957 0)
(-0.0409663 -0.00826344 0)
(-0.034981 -0.00832191 0)
(-0.0289858 -0.00826302 0)
(-0.0230549 -0.00808763 0)
(-0.017262 -0.00779952 0)
(-0.0116781 -0.00740541 0)
(-0.00637051 -0.00691485 0)
(-0.00140067 -0.00633997 0)
(0.00317701 -0.00569499 0)
(0.00731627 -0.00499561 0)
(0.0109807 -0.00425971 0)
(0.0141444 -0.00350463 0)
(0.016792 -0.00274785 0)
(0.018919 -0.00200613 0)
(0.0205318 -0.00129468 0)
(0.0216468 -0.00062677 0)
(0.0222893 -1.32655e-05 0)
(0.0224923 0.000537611 0)
(0.022295 0.00102055 0)
(0.0217411 0.00143283 0)
(0.0208771 0.00177437 0)
(0.0197505 0.00204738 0)
(0.0184084 0.00225585 0)
(0.0168964 0.00240501 0)
(0.0152576 0.00250061 0)
(0.0135323 0.00254813 0)
(0.011758 0.00255183 0)
(0.00997037 0.00251378 0)
(0.00820464 0.00243289 0)
(0.00649716 0.00230402 0)
(0.0048876 0.00211778 0)
(0.00342079 0.00186134 0)
(0.00214644 0.0015219 0)
(0.00111488 0.00109402 0)
(0.000384464 0.000594896 0)
(5.14916e-05 0.000110244 0)
(6.82356e-05 -0.000347613 0)
(0.000373521 -0.000934281 0)
(0.000928151 -0.00134871 0)
(0.0015952 -0.00158186 0)
(0.00229437 -0.00165141 0)
(0.00296577 -0.00158453 0)
(0.00355772 -0.00141075 0)
(0.00402886 -0.00115818 0)
(0.00434827 -0.000851526 0)
(0.00449403 -0.000511172 0)
(0.00445161 -0.000152868 0)
(0.00421213 0.000212203 0)
(0.00377059 0.000577101 0)
(0.00312428 0.000938672 0)
(0.00227133 0.00129687 0)
(0.00120958 0.00165402 0)
(-6.42559e-05 0.00201401 0)
(-0.00155503 0.00238153 0)
(-0.00326926 0.00276133 0)
(-0.00521491 0.0031576 0)
(-0.00740095 0.0035735 0)
(-0.00983668 0.00401087 0)
(-0.012531 0.00447003 0)
(-0.0154916 0.00494977 0)
(-0.018724 0.0054473 0)
(-0.0222311 0.00595846 0)
(-0.0260123 0.00647772 0)
(-0.0300625 0.00699839 0)
(-0.0343726 0.00751269 0)
(-0.0389278 0.00801195 0)
(-0.0437084 0.00848667 0)
(-0.0486891 0.00892676 0)
(-0.0538392 0.00932172 0)
(-0.0591225 0.00966081 0)
(-0.064498 0.00993337 0)
(-0.06992 0.010129 0)
(-0.0753391 0.0102379 0)
(-0.0807025 0.0102511 0)
(-0.0859551 0.0101607 0)
(-0.0910403 0.00996007 0)
(-0.095901 0.00964421 0)
(-0.10048 0.00920973 0)
(-0.104723 0.00865503 0)
(-0.108576 0.00798043 0)
(-0.111988 0.00718819 0)
(-0.114913 0.00628252 0)
(-0.117309 0.00526961 0)
(-0.119138 0.00415756 0)
(-0.120368 0.00295624 0)
(-0.120974 0.00167704 0)
(-0.120938 0.000333644 0)
(-0.120243 -0.00105554 0)
(-0.118882 -0.00247804 0)
(-0.116858 -0.00391523 0)
(-0.114178 -0.00534799 0)
(-0.110857 -0.00675643 0)
(-0.106917 -0.00812 0)
(-0.102387 -0.00941784 0)
(-0.0973046 -0.0106291 0)
(-0.0917135 -0.0117333 0)
(-0.0856648 -0.0127108 0)
(-0.0792162 -0.0135435 0)
(-0.0724316 -0.014215 0)
(-0.0653803 -0.0147113 0)
(-0.0581366 -0.0150215 0)
(-0.0507785 -0.015138 0)
(-0.0433868 -0.0150571 0)
(-0.0360437 -0.0147795 0)
(-0.0288314 -0.0143103 0)
(-0.0218307 -0.0136592 0)
(-0.015119 -0.0128404 0)
(-0.00876888 -0.0118722 0)
(-0.00284617 -0.0107767 0)
(0.00259026 -0.00957922 0)
(0.00749177 -0.00830718 0)
(0.011821 -0.00698949 0)
(0.0155507 -0.00565519 0)
(0.0186662 -0.00433292 0)
(0.0211648 -0.00304927 0)
(0.0230554 -0.00182822 0)
(0.0243582 -0.000690282 0)
(0.0251035 0.000348075 0)
(0.0253298 0.00127465 0)
(0.0250828 0.00208214 0)
(0.0244135 0.00276747 0)
(0.0233759 0.00333152 0)
(0.0220259 0.00377862 0)
(0.0204189 0.00411551 0)
(0.0186096 0.00435031 0)
(0.0166503 0.00449108 0)
(0.0145914 0.00454437 0)
(0.0124814 0.00451357 0)
(0.0103682 0.00439741 0)
(0.00830017 0.00418881 0)
(0.00632856 0.00387461 0)
(0.00450879 0.0034371 0)
(0.00290034 0.00285872 0)
(0.00156314 0.00213114 0)
(0.000575886 0.00127176 0)
(9.10203e-05 0.000365032 0)
(7.59878e-05 -0.000561315 0)
(0.000406941 -0.00141471 0)
(0.00099406 -0.00198387 0)
(0.0016801 -0.00228363 0)
(0.00237489 -0.00234644 0)
(0.00301341 -0.00221213 0)
(0.00354029 -0.00192204 0)
(0.00391105 -0.00151517 0)
(0.00409181 -0.00102598 0)
(0.00405771 -0.000483115 0)
(0.00379123 9.10504e-05 0)
(0.00328045 0.000680466 0)
(0.00251735 0.00127504 0)
(0.00149619 0.00187001 0)
(0.00021212 0.00246502 0)
(-0.00133993 0.00306305 0)
(-0.00316596 0.00366927 0)
(-0.00527329 0.00428989 0)
(-0.00767047 0.00493105 0)
(-0.010367 0.00559794 0)
(-0.0133725 0.00629409 0)
(-0.0166961 0.00702089 0)
(-0.0203455 0.00777736 0)
(-0.0243257 0.00856003 0)
(-0.0286384 0.00936307 0)
(-0.0332811 0.0101784 0)
(-0.038246 0.010996 0)
(-0.0435198 0.0118039 0)
(-0.0490829 0.0125887 0)
(-0.0549096 0.0133359 0)
(-0.0609676 0.01403 0)
(-0.067218 0.0146548 0)
(-0.0736164 0.015194 0)
(-0.0801125 0.0156315 0)
(-0.0866515 0.0159519 0)
(-0.0931746 0.0161407 0)
(-0.0996204 0.0161849 0)
(-0.105925 0.0160733 0)
(-0.112026 0.0157969 0)
(-0.117858 0.0153489 0)
(-0.12336 0.0147251 0)
(-0.128472 0.013924 0)
(-0.133137 0.0129468 0)
(-0.137304 0.0117972 0)
(-0.140925 0.0104819 0)
(-0.143957 0.00900985 0)
(-0.146363 0.00739264 0)
(-0.148111 0.00564409 0)
(-0.149177 0.00378014 0)
(-0.14954 0.0018185 0)
(-0.149185 -0.00022055 0)
(-0.148107 -0.00231221 0)
(-0.146306 -0.00443736 0)
(-0.143786 -0.00657036 0)
(-0.140558 -0.00868506 0)
(-0.13664 -0.0107546 0)
(-0.132057 -0.0127513 0)
(-0.126841 -0.0146473 0)
(-0.121029 -0.0164148 0)
(-0.114665 -0.0180265 0)
(-0.107802 -0.019456 0)
(-0.100495 -0.0206789 0)
(-0.0928089 -0.0216728 0)
(-0.0848135 -0.0224186 0)
(-0.0765833 -0.0229005 0)
(-0.0681977 -0.0231076 0)
(-0.0597395 -0.0230336 0)
(-0.051294 -0.0226781 0)
(-0.0429478 -0.0220463 0)
(-0.0347872 -0.0211498 0)
(-0.0268964 -0.0200061 0)
(-0.019356 -0.0186389 0)
(-0.0122414 -0.017077 0)
(-0.00562122 -0.0153544 0)
(0.000444883 -0.0135078 0)
(0.00590754 -0.0115773 0)
(0.0107279 -0.00960349 0)
(0.0148794 -0.00762773 0)
(0.0183484 -0.00568881 0)
(0.0211336 -0.00382285 0)
(0.0232462 -0.0020618 0)
(0.0247088 -0.000432477 0)
(0.0255552 0.00104398 0)
(0.0258279 0.00235298 0)
(0.0255769 0.00348609 0)
(0.0248579 0.0044406 0)
(0.0237307 0.00521902 0)
(0.0222569 0.00582786 0)
(0.0204986 0.0062761 0)
(0.0185177 0.00657341 0)
(0.0163746 0.00672797 0)
(0.0141289 0.00674434 0)
(0.0118393 0.00662137 0)
(0.00956496 0.00635068 0)
(0.00736712 0.0059162 0)
(0.00531083 0.0052959 0)
(0.00346517 0.0044665 0)
(0.00190087 0.00341251 0)
(0.000717872 0.00214068 0)
(0.000118903 0.000711422 0)
(7.7226e-05 -0.000783924 0)
(0.000406394 -0.00190549 0)
(0.000976946 -0.0026159 0)
(0.00162137 -0.00295869 0)
(0.00224333 -0.00298519 0)
(0.00277454 -0.00275038 0)
(0.00315774 -0.00230847 0)
(0.00334701 -0.00170968 0)
(0.00330698 -0.000998094 0)
(0.00301094 -0.000210414 0)
(0.00243911 0.000624632 0)
(0.00157694 0.00148634 0)
(0.000413485 0.00236162 0)
(-0.00106009 0.00324415 0)
(-0.00285178 0.00413323 0)
(-0.00496967 0.00503234 0)
(-0.00742252 0.00594763 0)
(-0.0102198 0.00688635 0)
(-0.0133717 0.00785538 0)
(-0.0168882 0.00886007 0)
(-0.0207784 0.00990326 0)
(-0.0250496 0.0109847 0)
(-0.029706 0.0121006 0)
(-0.0347477 0.0132439 0)
(-0.0401699 0.0144041 0)
(-0.0459616 0.0155675 0)
(-0.0521053 0.016718 0)
(-0.0585765 0.017837 0)
(-0.0653433 0.0189043 0)
(-0.0723665 0.0198982 0)
(-0.0796001 0.0207966 0)
(-0.0869914 0.0215769 0)
(-0.0944825 0.0222172 0)
(-0.102011 0.0226966 0)
(-0.10951 0.0229959 0)
(-0.116911 0.023098 0)
(-0.124146 0.0229885 0)
(-0.131146 0.022656 0)
(-0.137844 0.0220924 0)
(-0.144176 0.0212932 0)
(-0.150081 0.0202571 0)
(-0.155502 0.0189865 0)
(-0.160388 0.0174872 0)
(-0.164693 0.0157681 0)
(-0.168377 0.0138412 0)
(-0.171404 0.0117211 0)
(-0.173745 0.00942519 0)
(-0.175375 0.00697318 0)
(-0.176276 0.00438698 0)
(-0.176435 0.00169068 0)
(-0.175842 -0.00108994 0)
(-0.174495 -0.00392903 0)
(-0.172397 -0.00679587 0)
(-0.169553 -0.00966018 0)
(-0.165976 -0.0124904 0)
(-0.161684 -0.0152536 0)
(-0.156699 -0.0179163 0)
(-0.15105 -0.0204444 0)
(-0.144773 -0.0228036 0)
(-0.137907 -0.0249603 0)
(-0.130501 -0.0268818 0)
(-0.122608 -0.0285371 0)
(-0.114288 -0.0298978 0)
(-0.105607 -0.030939 0)
(-0.0966395 -0.0316398 0)
(-0.0874618 -0.0319846 0)
(-0.078157 -0.0319636 0)
(-0.0688115 -0.031574 0)
(-0.0595144 -0.0308198 0)
(-0.0503557 -0.029713 0)
(-0.0414252 -0.0282735 0)
(-0.0328104 -0.0265284 0)
(-0.0245949 -0.0245124 0)
(-0.0168565 -0.0222664 0)
(-0.00966533 -0.0198363 0)
(-0.00308191 -0.0172725 0)
(0.00284285 -0.0146273 0)
(0.00807052 -0.0119538 0)
(0.012576 -0.00930393 0)
(0.0163462 -0.00672674 0)
(0.0193818 -0.00426681 0)
(0.021696 -0.00196284 0)
(0.0233144 0.000153503 0)
(0.0242735 0.00205793 0)
(0.024619 0.00373443 0)
(0.0244048 0.00517438 0)
(0.0236908 0.0063762 0)
(0.0225411 0.00734401 0)
(0.0210226 0.00808588 0)
(0.0192033 0.00861152 0)
(0.0171516 0.00892976 0)
(0.0149356 0.00904577 0)
(0.0126234 0.00895842 0)
(0.0102836 0.00865829 0)
(0.00798651 0.00812679 0)
(0.00580644 0.00733738 0)
(0.00382226 0.00625959 0)
(0.00211611 0.00486641 0)
(0.000806983 0.00314563 0)
(0.000135484 0.00112052 0)
(7.3779e-05 -0.000998911 0)
(0.000378003 -0.0023687 0)
(0.000887843 -0.00319307 0)
(0.00143504 -0.00354592 0)
(0.00192118 -0.00349991 0)
(0.00227681 -0.00312679 0)
(0.00244449 -0.00249441 0)
(0.00237828 -0.00166423 0)
(0.0020424 -0.000689645 0)
(0.00140914 0.000385112 0)
(0.000457058 0.00152547 0)
(-0.000830617 0.00270654 0)
(-0.00246752 0.00391254 0)
(-0.00446547 0.00513575 0)
(-0.00683545 0.00637509 0)
(-0.0095884 0.0076343 0)
(-0.0127354 0.00892 0)
(-0.0162876 0.0102397 0)
(-0.0202555 0.0116001 0)
(-0.0246486 0.0130055 0)
(-0.0294737 0.0144565 0)
(-0.0347341 0.0159496 0)
(-0.0404283 0.0174768 0)
(-0.0465491 0.0190254 0)
(-0.0530822 0.0205785 0)
(-0.060006 0.0221155 0)
(-0.0672909 0.0236126 0)
(-0.0748991 0.0250434 0)
(-0.0827851 0.0263802 0)
(-0.090896 0.0275939 0)
(-0.0991721 0.0286558 0)
(-0.107548 0.0295377 0)
(-0.115956 0.0302132 0)
(-0.124323 0.0306582 0)
(-0.132576 0.0308517 0)
(-0.140642 0.0307763 0)
(-0.148451 0.0304187 0)
(-0.155934 0.0297698 0)
(-0.163028 0.0288248 0)
(-0.169671 0.0275834 0)
(-0.175812 0.0260494 0)
(-0.1814 0.0242304 0)
(-0.186392 0.0221377 0)
(-0.190752 0.019786 0)
(-0.194447 0.0171927 0)
(-0.19745 0.0143782 0)
(-0.199739 0.0113648 0)
(-0.201297 0.00817733 0)
(-0.202109 0.00484246 0)
(-0.202166 0.00138886 0)
(-0.201462 -0.00215334 0)
(-0.199996 -0.00575328 0)
(-0.197769 -0.00937652 0)
(-0.194786 -0.0129881 0)
(-0.191058 -0.0165517 0)
(-0.186597 -0.0200296 0)
(-0.181422 -0.0233829 0)
(-0.175557 -0.026572 0)
(-0.16903 -0.0295569 0)
(-0.161876 -0.0322977 0)
(-0.154138 -0.0347554 0)
(-0.145861 -0.0368923 0)
(-0.137102 -0.0386735 0)
(-0.127922 -0.0400674 0)
(-0.118389 -0.0410471 0)
(-0.108578 -0.0415911 0)
(-0.0985724 -0.0416849 0)
(-0.0884571 -0.0413216 0)
(-0.0783234 -0.0405027 0)
(-0.0682648 -0.0392392 0)
(-0.0583763 -0.0375512 0)
(-0.0487519 -0.0354686 0)
(-0.0394834 -0.03303 0)
(-0.0306579 -0.0302825 0)
(-0.0223559 -0.0272803 0)
(-0.0146495 -0.024083 0)
(-0.00760074 -0.0207545 0)
(-0.00126014 -0.0173594 0)
(0.00433478 -0.013963 0)
(0.00915955 -0.0106275 0)
(0.0132036 -0.00741109 0)
(0.0164699 -0.00436527 0)
(0.0189748 -0.00153399 0)
(0.0207471 0.00104751 0)
(0.0218266 0.00335317 0)
(0.0222626 0.00536667 0)
(0.0221131 0.00708018 0)
(0.0214421 0.00849323 0)
(0.0203184 0.00961093 0)
(0.018814 0.0104414 0)
(0.0170025 0.0109926 0)
(0.0149591 0.0112695 0)
(0.0127593 0.0112705 0)
(0.01048 0.0109848 0)
(0.0081998 0.0103912 0)
(0.00600199 0.00945815 0)
(0.00397496 0.00814648 0)
(0.00221174 0.00641466 0)
(0.000846218 0.00422668 0)
(0.000142218 0.00156354 0)
(6.66967e-05 -0.0011929 0)
(0.000325936 -0.00277082 0)
(0.000735183 -0.00366784 0)
(0.00113395 -0.00398836 0)
(0.00142593 -0.00382732 0)
(0.00154285 -0.00327395 0)
(0.0014289 -0.00240984 0)
(0.0010394 -0.00130736 0)
(0.000339117 -2.85966e-05 0)
(-0.000700002 0.00137541 0)
(-0.00210055 0.00286498 0)
(-0.00388118 0.0044116 0)
(-0.00605793 0.00599721 0)
(-0.00864526 0.00761288 0)
(-0.0116568 0.00925701 0)
(-0.0151058 0.0109332 0)
(-0.0190049 0.0126478 0)
(-0.0233658 0.0144076 0)
(-0.0281983 0.0162177 0)
(-0.0335092 0.0180796 0)
(-0.0393012 0.0199903 0)
(-0.0455715 0.021941 0)
(-0.0523104 0.0239174 0)
(-0.0595008 0.0258997 0)
(-0.0671171 0.027863 0)
(-0.0751248 0.0297781 0)
(-0.0834808 0.0316129 0)
(-0.0921337 0.0333329 0)
(-0.101024 0.0349025 0)
(-0.110087 0.0362862 0)
(-0.11925 0.0374497 0)
(-0.128441 0.0383609 0)
(-0.137582 0.0389912 0)
(-0.146597 0.0393158 0)
(-0.155413 0.0393144 0)
(-0.163956 0.0389722 0)
(-0.172159 0.0382792 0)
(-0.17996 0.0372311 0)
(-0.187302 0.0358284 0)
(-0.194135 0.0340763 0)
(-0.200412 0.0319845 0)
(-0.206095 0.0295666 0)
(-0.211151 0.0268395 0)
(-0.21555 0.0238231 0)
(-0.219269 0.0205398 0)
(-0.222286 0.0170141 0)
(-0.224587 0.0132727 0)
(-0.226156 0.00934387 0)
(-0.226984 0.00525761 0)
(-0.227062 0.00104567 0)
(-0.226383 -0.00325861 0)
(-0.224945 -0.00762096 0)
(-0.222747 -0.0120044 0)
(-0.21979 -0.0163706 0)
(-0.216079 -0.0206795 0)
(-0.211622 -0.0248892 0)
(-0.206432 -0.0289565 0)
(-0.200524 -0.0328367 0)
(-0.19392 -0.0364843 0)
(-0.186647 -0.0398533 0)
(-0.17874 -0.042898 0)
(-0.170237 -0.0455739 0)
(-0.161188 -0.0478388 0)
(-0.151647 -0.0496536 0)
(-0.141679 -0.0509841 0)
(-0.131355 -0.0518018 0)
(-0.120754 -0.0520857 0)
(-0.109962 -0.0518234 0)
(-0.0990706 -0.051012 0)
(-0.0881775 -0.0496596 0)
(-0.0773822 -0.0477853 0)
(-0.0667859 -0.0454196 0)
(-0.0564886 -0.0426041 0)
(-0.0465874 -0.039391 0)
(-0.0371738 -0.0358414 0)
(-0.0283316 -0.032024 0)
(-0.0201351 -0.0280131 0)
(-0.0126471 -0.0238858 0)
(-0.00591761 -0.0197202 0)
(1.7168e-05 -0.0155924 0)
(0.00513532 -0.0115745 0)
(0.00942945 -0.00773199 0)
(0.0129064 -0.00412214 0)
(0.0155863 -0.000792571 0)
(0.0175025 0.00221936 0)
(0.0186992 0.0048875 0)
(0.0192305 0.00719586 0)
(0.0191588 0.00913746 0)
(0.0185529 0.0107125 0)
(0.0174867 0.0119256 0)
(0.0160378 0.0127827 0)
(0.0142861 0.0132869 0)
(0.0123135 0.0134354 0)
(0.0102037 0.0132156 0)
(0.00804329 0.0126031 0)
(0.00592347 0.0115606 0)
(0.00394143 0.0100394 0)
(0.00219961 0.00798195 0)
(0.00084177 0.00532727 0)
(0.00014084 0.00201474 0)
(5.64664e-05 -0.00135443 0)
(0.000252628 -0.00308182 0)
(0.000524627 -0.00399672 0)
(0.000727486 -0.00423341 0)
(0.000771104 -0.00390896 0)
(0.000590925 -0.00312977 0)
(0.000134588 -0.00199061 0)
(-0.000640033 -0.000573955 0)
(-0.00176684 0.0010504 0)
(-0.00327362 0.00282556 0)
(-0.00518375 0.00470755 0)
(-0.0075174 0.0066649 0)
(-0.0102926 0.00867765 0)
(-0.0135261 0.0107357 0)
(-0.0172335 0.0128368 0)
(-0.0214295 0.0149836 0)
(-0.0261271 0.0171812 0)
(-0.0313373 0.0194344 0)
(-0.0370672 0.021745 0)
(-0.0433193 0.02411 0)
(-0.0500897 0.0265204 0)
(-0.0573673 0.0289605 0)
(-0.065132 0.0314078 0)
(-0.073355 0.0338337 0)
(-0.0819974 0.036204 0)
(-0.0910114 0.0384806 0)
(-0.10034 0.0406225 0)
(-0.109919 0.0425874 0)
(-0.119677 0.0443333 0)
(-0.129538 0.0458197 0)
(-0.139425 0.0470091 0)
(-0.149257 0.047868 0)
(-0.158956 0.0483681 0)
(-0.168447 0.0484868 0)
(-0.177659 0.0482077 0)
(-0.186526 0.0475204 0)
(-0.194987 0.046421 0)
(-0.202989 0.0449109 0)
(-0.210485 0.042997 0)
(-0.217434 0.040691 0)
(-0.223801 0.0380082 0)
(-0.229556 0.0349677 0)
(-0.234674 0.0315911 0)
(-0.239134 0.0279026 0)
(-0.242917 0.0239282 0)
(-0.246008 0.0196955 0)
(-0.248393 0.0152338 0)
(-0.250061 0.0105735 0)
(-0.251001 0.0057466 0)
(-0.251206 0.000786574 0)
(-0.250666 -0.00427131 0)
(-0.249377 -0.00939089 0)
(-0.247334 -0.0145332 0)
(-0.244533 -0.0196577 0)
(-0.240974 -0.0247213 0)
(-0.236658 -0.0296791 0)
(-0.23159 -0.0344838 0)
(-0.225779 -0.0390862 0)
(-0.219238 -0.0434357 0)
(-0.211985 -0.0474802 0)
(-0.204046 -0.0511674 0)
(-0.195453 -0.0544457 0)
(-0.186244 -0.0572646 0)
(-0.176468 -0.059577 0)
(-0.166182 -0.06134 0)
(-0.155451 -0.0625167 0)
(-0.144352 -0.0630779 0)
(-0.132969 -0.0630038 0)
(-0.121393 -0.0622853 0)
(-0.109725 -0.0609253 0)
(-0.0980676 -0.0589399 0)
(-0.0865304 -0.0563586 0)
(-0.075222 -0.0532243 0)
(-0.0642502 -0.0495926 0)
(-0.0537183 -0.045531 0)
(-0.0437233 -0.0411164 0)
(-0.0343529 -0.0364333 0)
(-0.0256833 -0.0315714 0)
(-0.0177778 -0.0266219 0)
(-0.0106851 -0.0216755 0)
(-0.0044389 -0.0168188 0)
(0.000942745 -0.0121324 0)
(0.00545711 -0.00768787 0)
(0.00911621 -0.00354656 0)
(0.0119461 0.000241904 0)
(0.0139857 0.00363967 0)
(0.0152848 0.00662102 0)
(0.0159034 0.00917069 0)
(0.0159095 0.0112823 0)
(0.0153778 0.0129553 0)
(0.014388 0.0141918 0)
(0.0130239 0.0149922 0)
(0.0113725 0.015351 0)
(0.00952335 0.0152529 0)
(0.00756976 0.0146699 0)
(0.00561022 0.0135585 0)
(0.00374932 0.01186 0)
(0.00209682 0.00950151 0)
(0.000801464 0.00639815 0)
(0.000133128 0.00245263 0)
(4.32237e-05 -0.00147293 0)
(0.00015929 -0.00327389 0)
(0.00025969 -0.00413927 0)
(0.00022227 -0.00423217 0)
(-3.27736e-05 -0.00369068 0)
(-0.0005638 -0.00263718 0)
(-0.00141787 -0.00117828 0)
(-0.00263335 0.000594828 0)
(-0.00424205 0.00260593 0)
(-0.00627109 0.00479342 0)
(-0.00874421 0.00710996 0)
(-0.0116827 0.00952177 0)
(-0.0151063 0.0120073 0)
(-0.0190332 0.0145551 0)
(-0.0234801 0.0171618 0)
(-0.0284621 0.0198282 0)
(-0.0339913 0.022557 0)
(-0.0400758 0.0253491 0)
(-0.0467185 0.0282012 0)
(-0.0539151 0.0311037 0)
(-0.0616533 0.0340398 0)
(-0.0699113 0.0369848 0)
(-0.0786572 0.0399065 0)
(-0.0878489 0.0427662 0)
(-0.0974342 0.0455202 0)
(-0.107352 0.0481212 0)
(-0.117532 0.0505204 0)
(-0.1279 0.0526691 0)
(-0.138376 0.0545207 0)
(-0.148878 0.0560323 0)
(-0.159324 0.0571659 0)
(-0.169635 0.0578898 0)
(-0.179735 0.058179 0)
(-0.189555 0.0580157 0)
(-0.199029 0.0573893 0)
(-0.208101 0.0562961 0)
(-0.21672 0.0547388 0)
(-0.224844 0.0527258 0)
(-0.232435 0.0502701 0)
(-0.239462 0.0473892 0)
(-0.245899 0.0441037 0)
(-0.251723 0.0404369 0)
(-0.256916 0.0364141 0)
(-0.261461 0.0320623 0)
(-0.265345 0.0274098 0)
(-0.268555 0.0224861 0)
(-0.271079 0.0173217 0)
(-0.272907 0.0119481 0)
(-0.274028 0.00639829 0)
(-0.274432 0.00070637 0)
(-0.27411 -0.00509173 0)
(-0.273054 -0.0109586 0)
(-0.271254 -0.0168543 0)
(-0.268704 -0.0227366 0)
(-0.265396 -0.0285607 0)
(-0.261327 -0.0342791 0)
(-0.256494 -0.0398413 0)
(-0.250897 -0.0451945 0)
(-0.244542 -0.050283 0)
(-0.237437 -0.0550494 0)
(-0.229598 -0.0594348 0)
(-0.221045 -0.0633801 0)
(-0.21181 -0.0668267 0)
(-0.20193 -0.0697182 0)
(-0.191452 -0.0720022 0)
(-0.180437 -0.0736319 0)
(-0.168952 -0.0745682 0)
(-0.157078 -0.0747817 0)
(-0.144906 -0.0742546 0)
(-0.132535 -0.0729825 0)
(-0.120075 -0.0709758 0)
(-0.107639 -0.0682607 0)
(-0.0953454 -0.0648793 0)
(-0.0833136 -0.060889 0)
(-0.0716602 -0.056362 0)
(-0.0604967 -0.0513828 0)
(-0.0499261 -0.0460462 0)
(-0.0400403 -0.040454 0)
(-0.0309176 -0.0347116 0)
(-0.0226209 -0.0289249 0)
(-0.0151968 -0.0231965 0)
(-0.00867489 -0.0176228 0)
(-0.00306783 -0.0122912 0)
(0.00162801 -0.00727814 0)
(0.00543175 -0.00264721 0)
(0.00837687 0.00155115 0)
(0.0105094 0.00527965 0)
(0.0118864 0.00851356 0)
(0.0125751 0.0112383 0)
(0.0126502 0.0134468 0)
(0.0121933 0.0151358 0)
(0.0112911 0.0163013 0)
(0.0100346 0.0169346 0)
(0.00851858 0.0170166 0)
(0.00684208 0.0165148 0)
(0.00510965 0.0153797 0)
(0.00343179 0.0135431 0)
(0.00192343 0.0109179 0)
(0.000733949 0.00739928 0)
(0.000120864 0.00286039 0)
(2.69239e-05 -0.00153815 0)
(4.64163e-05 -0.00332049 0)
(-5.74279e-05 -0.00405753 0)
(-0.000376708 -0.0039391 0)
(-0.000976876 -0.00312258 0)
(-0.00190768 -0.00174418 0)
(-0.00320914 7.97536e-05 0)
(-0.00491476 0.00225127 0)
(-0.00705362 0.00468937 0)
(-0.00965173 0.00732909 0)
(-0.0127329 0.0101207 0)
(-0.0163191 0.0130286 0)
(-0.0204311 0.0160297 0)
(-0.0250878 0.0191112 0)
(-0.030306 0.0222673 0)
(-0.0360997 0.0254964 0)
(-0.0424782 0.0287966 0)
(-0.0494452 0.0321632 0)
(-0.0569969 0.0355858 0)
(-0.0651205 0.0390463 0)
(-0.0737931 0.0425179 0)
(-0.082981 0.0459655 0)
(-0.0926393 0.0493463 0)
(-0.102712 0.0526111 0)
(-0.113136 0.0557068 0)
(-0.123835 0.058578 0)
(-0.134732 0.0611698 0)
(-0.145744 0.0634295 0)
(-0.156785 0.0653087 0)
(-0.167773 0.0667649 0)
(-0.178627 0.067763 0)
(-0.189271 0.0682756 0)
(-0.199637 0.0682836 0)
(-0.209661 0.0677759 0)
(-0.219291 0.0667493 0)
(-0.228478 0.0652073 0)
(-0.237182 0.0631596 0)
(-0.245369 0.060621 0)
(-0.253013 0.0576103 0)
(-0.260088 0.0541498 0)
(-0.266577 0.050264 0)
(-0.272462 0.0459793 0)
(-0.277729 0.0413236 0)
(-0.282367 0.0363257 0)
(-0.286363 0.0310151 0)
(-0.289708 0.0254222 0)
(-0.292392 0.0195778 0)
(-0.294404 0.013514 0)
(-0.295735 0.00726359 0)
(-0.296374 0.000860817 0)
(-0.29631 -0.00565862 0)
(-0.295534 -0.0122568 0)
(-0.294034 -0.0188935 0)
(-0.291799 -0.025526 0)
(-0.288817 -0.0321085 0)
(-0.28508 -0.0385919 0)
(-0.280576 -0.0449237 0)
(-0.275301 -0.0510479 0)
(-0.269248 -0.0569052 0)
(-0.262417 -0.0624332 0)
(-0.254813 -0.0675672 0)
(-0.246444 -0.0722407 0)
(-0.23733 -0.076387 0)
(-0.227496 -0.0799402 0)
(-0.216978 -0.0828373 0)
(-0.205825 -0.0850203 0)
(-0.194096 -0.0864384 0)
(-0.181865 -0.0870505 0)
(-0.169216 -0.0868274 0)
(-0.156248 -0.0857544 0)
(-0.143071 -0.0838334 0)
(-0.129804 -0.081084 0)
(-0.116574 -0.0775445 0)
(-0.103511 -0.073272 0)
(-0.0907453 -0.0683412 0)
(-0.0784061 -0.0628432 0)
(-0.0666137 -0.0568822 0)
(-0.0554783 -0.0505723 0)
(-0.0450961 -0.0440338 0)
(-0.0355472 -0.037389 0)
(-0.0268934 -0.0307581 0)
(-0.0191778 -0.0242552 0)
(-0.0124243 -0.0179853 0)
(-0.00663834 -0.0120414 0)
(-0.00180789 -0.00650299 0)
(0.00209504 -0.00143452 0)
(0.00511304 0.00311396 0)
(0.00730132 0.00710663 0)
(0.00872588 0.0105195 0)
(0.00946208 0.0133375 0)
(0.00959297 0.0155508 0)
(0.00920795 0.0171504 0)
(0.00840169 0.0181226 0)
(0.00727349 0.0184442 0)
(0.00592729 0.0180778 0)
(0.0044726 0.0169678 0)
(0.00302431 0.0150377 0)
(0.00170055 0.0121888 0)
(0.000648098 0.00830081 0)
(0.000105783 0.00322606 0)
(7.51262e-06 -0.00153992 0)
(-8.58938e-05 -0.00319626 0)
(-0.000425147 -0.00371551 0)
(-0.00106491 -0.00331189 0)
(-0.00205271 -0.00215913 0)
(-0.00342712 -0.000404175 0)
(-0.00521952 0.0018298 0)
(-0.00745763 0.00444057 0)
(-0.0101672 0.00734436 0)
(-0.0133729 0.0104743 0)
(-0.0170981 0.0137791 0)
(-0.0213651 0.0172218 0)
(-0.0261948 0.0207778 0)
(-0.031606 0.0244319 0)
(-0.0376141 0.0281755 0)
(-0.0442304 0.0320021 0)
(-0.0514597 0.0359043 0)
(-0.0592992 0.0398694 0)
(-0.0677366 0.043878 0)
(-0.0767488 0.0479013 0)
(-0.0863009 0.0519013 0)
(-0.0963464 0.0558316 0)
(-0.106828 0.0596381 0)
(-0.117676 0.0632621 0)
(-0.128816 0.066642 0)
(-0.140165 0.0697164 0)
(-0.151637 0.0724267 0)
(-0.163146 0.0747191 0)
(-0.174605 0.0765464 0)
(-0.185935 0.0778699 0)
(-0.197059 0.0786596 0)
(-0.207908 0.078895 0)
(-0.218424 0.0785643 0)
(-0.228551 0.0776646 0)
(-0.238247 0.0761999 0)
(-0.247472 0.0741813 0)
(-0.256197 0.0716248 0)
(-0.264394 0.0685506 0)
(-0.272045 0.0649825 0)