/*--------------------------------*- C++ -*----------------------------------*\
  =========                 |
  \\      /  F ield         | OpenFOAM: The Open Source CFD Toolbox
   \\    /   O peration     | Website:  https://openfoam.org
    \\  /    A nd           | Version:  9
     \\/     M anipulation  |
\*---------------------------------------------------------------------------*/
FoamFile
{
    format      ascii;
    class       volScalarField;
    location    "1.5";
    object      p;
}
// * * * * * * * * * * * * * * * * * * * * * * * * * * * * * * * * * * * * * //

dimensions      [0 2 -2 0 0 0 0];

internalField   nonuniform List<scalar> 
1260
(
-0.0874467
-0.0856802
-0.0838563
-0.0819852
-0.0800771
-0.0781423
-0.0761901
-0.0742287
-0.0722642
-0.0702995
-0.0683335
-0.0663598
-0.0643651
-0.0623293
-0.0602242
-0.0580151
-0.0556635
-0.0531328
-0.0503986
-0.0474638
-0.0443761
-0.0412445
-0.0382428
-0.0355906
-0.0335052
-0.0321332
-0.0314892
-0.0314437
-0.0318322
-0.0325927
-0.0876839
-0.0859068
-0.0840722
-0.0821908
-0.0802732
-0.0783301
-0.0763717
-0.0744071
-0.0724437
-0.070486
-0.0685348
-0.0665857
-0.0646282
-0.0626444
-0.0606088
-0.0584883
-0.0562448
-0.05384
-0.051244
-0.0484496
-0.0454903
-0.0424578
-0.0395105
-0.0368614
-0.0347343
-0.0332961
-0.0325867
-0.0324963
-0.0328673
-0.033637
-0.0877764
-0.0859891
-0.0841444
-0.0822532
-0.0803266
-0.0783756
-0.076411
-0.074443
-0.07248
-0.0705279
-0.0685893
-0.0666618
-0.0647373
-0.0628004
-0.0608279
-0.0587891
-0.056647
-0.0543622
-0.0519011
-0.0492484
-0.0464243
-0.0435042
-0.0406304
-0.0380057
-0.0358565
-0.0343664
-0.0335996
-0.0334666
-0.0338194
-0.0345958
-0.0877228
-0.0859257
-0.0840713
-0.0821707
-0.0802352
-0.0782765
-0.0763059
-0.0743343
-0.072371
-0.0704234
-0.0684955
-0.066587
-0.0646918
-0.0627969
-0.060882
-0.0589183
-0.0568704
-0.0546993
-0.0523686
-0.0498563
-0.0471716
-0.0443743
-0.0415898
-0.0390089
-0.0368566
-0.0353292
-0.0345135
-0.0343413
-0.0346756
-0.0354565
-0.0875228
-0.085716
-0.083852
-0.081942
-0.0799979
-0.0780315
-0.0760548
-0.0740792
-0.0721152
-0.0701711
-0.0682523
-0.0663603
-0.0644911
-0.0626341
-0.0607711
-0.0588762
-0.0569157
-0.0548513
-0.0526453
-0.0502706
-0.0477269
-0.0450595
-0.0423775
-0.0398576
-0.03772
-0.0361701
-0.0353148
-0.0351073
-0.0354236
-0.0362072
-0.0871765
-0.0853599
-0.0834862
-0.0815669
-0.079614
-0.0776398
-0.0756567
-0.0736769
-0.0717115
-0.0697699
-0.0678588
-0.0659812
-0.064135
-0.0623118
-0.0604958
-0.0586636
-0.0567836
-0.0548189
-0.0527311
-0.0504897
-0.0480863
-0.0455535
-0.0429843
-0.0405402
-0.0384338
-0.0368757
-0.0359905
-0.0357523
-0.0360517
-0.0368366
-0.0866852
-0.0848586
-0.0829748
-0.0810458
-0.0790838
-0.0771014
-0.0751116
-0.0731271
-0.0711596
-0.0692195
-0.0673146
-0.0654494
-0.0636235
-0.0618304
-0.0600569
-0.0582815
-0.0564754
-0.0546032
-0.0526267
-0.050513
-0.0482473
-0.0458512
-0.0434023
-0.0410465
-0.0389862
-0.0374338
-0.0365286
-0.0362649
-0.0365488
-0.037334
-0.0860508
-0.0842135
-0.0823193
-0.0803801
-0.0784084
-0.0764173
-0.0744202
-0.0724302
-0.0704598
-0.0685202
-0.0666202
-0.0647655
-0.0629572
-0.0611909
-0.0594553
-0.0577314
-0.0559927
-0.0542056
-0.052333
-0.0503407
-0.0482088
-0.0459492
-0.0436257
-0.0413681
-0.039367
-0.0378332
-0.0369179
-0.0366343
-0.0369046
-0.0376899
-0.0852759
-0.0834274
-0.081522
-0.0795718
-0.0775898
-0.0755893
-0.0735841
-0.0715879
-0.0696135
-0.0676732
-0.0657766
-0.0639305
-0.0621374
-0.0603946
-0.0586927
-0.057015
-0.0553373
-0.0536283
-0.051852
-0.0499738
-0.0479702
-0.0458452
-0.0436496
-0.0414979
-0.0395673
-0.0380642
-0.0371483
-0.0368505
-0.0371097
-0.0378951
-0.0843643
-0.0825037
-0.0805861
-0.0786241
-0.0766308
-0.07462
-0.0726057
-0.0706022
-0.0686229
-0.0666806
-0.0647858
-0.0629464
-0.061166
-0.0594435
-0.0577713
-0.0561348
-0.0545121
-0.0528739
-0.0511861
-0.0494143
-0.0475325
-0.0455382
-0.043471
-0.0414304
-0.0395795
-0.0381178
-0.0372105
-0.0369043
-0.0371553
-0.0379416
-0.0833202
-0.0814465
-0.0795158
-0.0775409
-0.0755352
-0.073513
-0.0714885
-0.0694765
-0.067491
-0.0655453
-0.0636508
-0.061816
-0.0600459
-0.0583406
-0.0566941
-0.0550939
-0.05352
-0.0519455
-0.0503383
-0.0486646
-0.0468971
-0.0450281
-0.0430875
-0.041161
-0.039397
-0.0379862
-0.0370961
-0.0367875
-0.0370331
-0.0378218
-0.0821487
-0.0802609
-0.078316
-0.076327
-0.0743079
-0.0722729
-0.070237
-0.0682152
-0.0662221
-0.0642714
-0.0623753
-0.0605431
-0.0587807
-0.0570894
-0.0554648
-0.0538959
-0.0523649
-0.0508471
-0.0493123
-0.047728
-0.0460664
-0.044316
-0.0424983
-0.0406865
-0.0390145
-0.0376623
-0.0367973
-0.0364919
-0.0367357
-0.0375285
-0.0808559
-0.0789528
-0.0769926
-0.0749884
-0.0729544
-0.0709054
-0.0688566
-0.0668236
-0.0648213
-0.062864
-0.0609644
-0.0591326
-0.0573753
-0.0556948
-0.054088
-0.0525456
-0.0510515
-0.0495832
-0.0481126
-0.0466087
-0.0450438
-0.0434037
-0.0417034
-0.0400045
-0.0384274
-0.03714
-0.0363069
-0.0360101
-0.0362555
-0.037055
-0.0794485
-0.0775291
-0.0755523
-0.0735316
-0.0714815
-0.0694171
-0.0673541
-0.0653082
-0.063295
-0.0613293
-0.0594241
-0.0575903
-0.0558353
-0.0541623
-0.0525693
-0.0510483
-0.0495852
-0.0481591
-0.0467442
-0.0453111
-0.0438329
-0.0422938
-0.0407033
-0.0391136
-0.0376316
-0.0364132
-0.0356179
-0.0353346
-0.0355853
-0.0363947
-0.0779341
-0.0759974
-0.0740029
-0.0719645
-0.069897
-0.0678158
-0.065737
-0.0636767
-0.0616509
-0.0596748
-0.0577619
-0.0559235
-0.0541678
-0.0524987
-0.0509152
-0.0494104
-0.0479723
-0.046581
-0.0452129
-0.0438407
-0.0424385
-0.0409896
-0.0394997
-0.0380128
-0.036624
-0.0354766
-0.0347234
-0.034458
-0.0347175
-0.0355407
-0.070296
-0.0682099
-0.0661105
-0.0640144
-0.0619381
-0.0598978
-0.0579091
-0.0559861
-0.0541404
-0.0523808
-0.0507119
-0.0491334
-0.0476397
-0.0462195
-0.0448554
-0.0435251
-0.0422033
-0.0408655
-0.0394949
-0.0380945
-0.0367016
-0.0354012
-0.0343247
-0.0336162
-0.0333721
-0.033644
-0.0344853
-0.068536
-0.06643
-0.0643113
-0.0621964
-0.0601024
-0.0580457
-0.0560423
-0.0541066
-0.0522507
-0.0504838
-0.0488109
-0.0472326
-0.0457441
-0.0443352
-0.0429899
-0.0416878
-0.0404054
-0.0391194
-0.0378138
-0.0364898
-0.0351799
-0.0339603
-0.0329514
-0.0322886
-0.0320681
-0.0323556
-0.0332203
-0.0666954
-0.0645688
-0.0624295
-0.0602945
-0.0581811
-0.0561061
-0.0540857
-0.0521347
-0.0502653
-0.0484872
-0.046806
-0.0452225
-0.043733
-0.0423279
-0.0409928
-0.0397087
-0.0384536
-0.037206
-0.0359507
-0.0346881
-0.0334473
-0.0322978
-0.0313505
-0.0307316
-0.0305357
-0.0308417
-0.0317354
-0.0647867
-0.0626386
-0.0604778
-0.0583215
-0.0561871
-0.0540918
-0.052052
-0.0500826
-0.0481964
-0.046403
-0.0447083
-0.043114
-0.0416165
-0.0402073
-0.0388729
-0.0375956
-0.036355
-0.0351311
-0.0339098
-0.0326915
-0.0315032
-0.0304096
-0.0295143
-0.0289349
-0.0287627
-0.0290894
-0.0300186
-0.0628232
-0.0606532
-0.0584701
-0.0562913
-0.0541344
-0.0520169
-0.0499552
-0.0479644
-0.0460573
-0.044244
-0.0425305
-0.0409187
-0.0394057
-0.0379835
-0.0366393
-0.0353568
-0.0341166
-0.0329003
-0.0316949
-0.0305015
-0.029346
-0.0282906
-0.0274337
-0.026886
-0.0267346
-0.0270831
-0.0280549
-0.0608196
-0.0586276
-0.0564217
-0.0542195
-0.0520387
-0.0498968
-0.0478105
-0.0457949
-0.0438628
-0.0420244
-0.0402859
-0.0386494
-0.0371123
-0.035667
-0.0343017
-0.0330004
-0.0317453
-0.0305188
-0.0293093
-0.0281185
-0.026973
-0.0259338
-0.0250976
-0.0245698
-0.0244333
-0.0248034
-0.0258258
-0.0587919
-0.056578
-0.054349
-0.0521226
-0.0499166
-0.0477484
-0.0456346
-0.0435904
-0.0416286
-0.0397593
-0.0379889
-0.0363194
-0.0347485
-0.0332691
-0.0318695
-0.0305345
-0.0292471
-0.0279906
-0.0267545
-0.0255416
-0.0243794
-0.0233303
-0.0224917
-0.0219676
-0.0218367
-0.0222265
-0.023308
-0.0567572
-0.0545218
-0.0522697
-0.0500186
-0.047786
-0.0455893
-0.0434451
-0.0413682
-0.0393715
-0.0374648
-0.0356545
-0.0339427
-0.0323271
-0.0308006
-0.029352
-0.0279665
-0.0266272
-0.0253185
-0.0240305
-0.0227673
-0.0215579
-0.0204676
-0.0195981
-0.0190559
-0.0189177
-0.0193227
-0.0204727
-0.0547335
-0.0524775
-0.0502026
-0.0479262
-0.0456658
-0.0434384
-0.0412604
-0.0391464
-0.0371088
-0.0351574
-0.0332983
-0.0315335
-0.0298606
-0.0282726
-0.0267582
-0.0253026
-0.0238894
-0.0225032
-0.0211347
-0.019789
-0.0184972
-0.017329
-0.0163938
-0.0158059
-0.0156423
-0.0160553
-0.0172837
-0.0527397
-0.0504643
-0.0481671
-0.0458651
-0.0435756
-0.0413152
-0.0390998
-0.0369436
-0.0348586
-0.0328542
-0.0309361
-0.0291061
-0.0273616
-0.0256952
-0.0240957
-0.0225479
-0.0210353
-0.0195426
-0.0180607
-0.0165957
-0.0151812
-0.0138922
-0.0128497
-0.0121809
-0.0119684
-0.0123784
-0.0136964
-0.0507955
-0.048502
-0.046183
-0.0438553
-0.0415353
-0.0392394
-0.0369826
-0.0347786
-0.0326389
-0.0305721
-0.0285836
-0.0266745
-0.0248419
-0.023078
-0.0213709
-0.0197053
-0.0180639
-0.0164312
-0.0147979
-0.0131713
-0.0115873
-0.0101277
-0.00892785
-0.00813526
-0.00784353
-0.00823562
-0.00965531
-0.0489204
-0.0466103
-0.0442704
-0.0419166
-0.0395648
-0.0372305
-0.034928
-0.03267
-0.0304672
-0.0283276
-0.0262556
-0.0242517
-0.0223122
-0.0204287
-0.0185884
-0.016775
-0.0149707
-0.0131588
-0.0113302
-0.00949262
-0.00768477
-0.00599621
-0.00457999
-0.00361085
-0.00320186
-0.00355647
-0.00509106
-0.0471337
-0.0448087
-0.0424486
-0.0400684
-0.0376831
-0.0353073
-0.032954
-0.0306352
-0.0283602
-0.026136
-0.0239659
-0.0218495
-0.0197818
-0.0177533
-0.0157501
-0.0137544
-0.011747
-0.00971026
-0.00763457
-0.00552796
-0.00343272
-0.00144676
0.000255994
0.00146589
0.00203977
0.00174698
8.331e-05
-0.0454535
-0.0431152
-0.0407355
-0.0383283
-0.0359077
-0.0334867
-0.0310774
-0.02869
-0.0263327
-0.0240109
-0.0217266
-0.0194776
-0.0172576
-0.0150554
-0.0128549
-0.0106368
-0.00837955
-0.00606403
-0.00367981
-0.00123579
0.00122237
0.00358661
0.00565948
0.00718857
0.00798693
0.00778556
0.00597851
-0.043896
-0.0415458
-0.0391469
-0.0367119
-0.0342536
-0.0317835
-0.029312
-0.0268478
-0.0243971
-0.0219635
-0.019547
-0.0171434
-0.014744
-0.0123351
-0.00989831
-0.00741106
-0.00484926
-0.00219137
0.000574173
0.00343726
0.00634909
0.00918814
0.0117315
0.0136763
0.0147745
0.0147004
0.012738
-0.0424746
-0.0401135
-0.0376953
-0.0352313
-0.0327325
-0.0302088
-0.0276687
-0.0251185
-0.0225625
-0.0200017
-0.0174334
-0.0148507
-0.0122417
-0.0095894
-0.00687139
-0.0040613
-0.00113105
0.00194419
0.00517765
0.0085581
0.0120324
0.0154639
0.0185999
0.0210805
0.022575
0.0226731
0.0205513
-0.0411987
-0.0388271
-0.036389
-0.0338942
-0.0313518
-0.0287695
-0.0261536
-0.0235079
-0.0208338
-0.0181292
-0.0153881
-0.0125997
-0.00974785
-0.00681076
-0.00376093
-0.00056636
0.00280651
0.00638721
0.0101918
0.0142081
0.0183742
0.0225447
0.0264241
0.0295918
0.0316093
0.0319404
0.0296727
-0.0400725
-0.0376901
-0.0352311
-0.0327032
-0.0301134
-0.0274671
-0.0247679
-0.0220165
-0.0192109
-0.0163451
-0.0134087
-0.0103859
-0.00725498
-0.00398759
-0.000549168
0.00309988
0.00700079
0.0111899
0.0156874
0.0204806
0.0254992
0.0305853
0.0353993
0.039447
0.0421566
0.0428112
0.0404458
-0.0390944
-0.0367003
-0.0342185
-0.0316546
-0.0290133
-0.0262973
-0.0235069
-0.0206394
-0.0176885
-0.0146435
-0.0114883
-0.00820072
-0.00475161
-0.0011042
0.00278559
0.00696768
0.0114939
0.0164102
0.0217437
0.0274832
0.0335505
0.0397595
0.045756
0.0509328
0.0545633
0.0556855
0.0533323
-0.0382564
-0.0358488
-0.0333418
-0.0307386
-0.0280414
-0.0252497
-0.0223603
-0.0193661
-0.016256
-0.0130133
-0.00961507
-0.00603109
-0.00222261
0.00185805
0.00626745
0.0110692
0.0163296
0.0221083
0.0284435
0.035328
0.0426761
0.0502772
0.0577486
0.0643845
0.069248
0.0710716
0.0689411
-0.0375439
-0.0351205
-0.0325855
-0.0299395
-0.0271817
-0.0243084
-0.0213122
-0.0181811
-0.014898
-0.0114394
-0.00777393
-0.00386133
0.000348957
0.00491849
0.00991981
0.0154345
0.0215481
0.0283398
0.0358644
0.0441246
0.0530319
0.0623542
0.0716469
0.0801797
0.0867053
0.0896061
0.0880581
-0.0369368
-0.0344949
-0.0319288
-0.0292364
-0.0264138
-0.0234533
-0.020343
-0.0170653
-0.0135964
-0.00990449
-0.00594834
-0.00167565
0.0029785
0.0080928
0.0137598
0.0200841
0.0271766
0.0351431
0.0440638
0.0539603
0.0647497
0.0761816
0.0877614
0.0986951
0.107513
0.112085
0.111682
-0.0364116
-0.0339486
-0.0313486
-0.0286065
-0.0257151
-0.0226626
-0.0194319
-0.0159993
-0.0123332
-0.00839248
-0.0041245
0.000537046
0.0056741
0.0113858
0.0177892
0.0250175
0.0332143
0.0425212
0.0530552
0.0648706
0.0779055
0.091907
0.106341
0.120291
0.132328
0.139472
0.141044
-0.0359447
-0.0334583
-0.0308221
-0.0280279
-0.0250649
-0.0219168
-0.0185611
-0.0149673
-0.0110954
-0.00689405
-0.00229768
0.00277571
0.00842744
0.0147804
0.0219804
0.0301954
0.0396099
0.0504124
0.0627715
0.0767936
0.0924619
0.109545
0.12749
0.145332
0.161703
0.172785
0.177539
-0.0355167
-0.0330056
-0.030332
-0.0274847
-0.0244489
-0.021204
-0.0177215
-0.0139638
-0.00988233
-0.0054145
-0.000481233
0.00501646
0.011201
0.0182216
0.0262567
0.0355144
0.0462292
0.0586493
0.0730143
0.0895086
0.108196
0.128909
0.151137
0.173946
0.195874
0.212805
0.222654
-0.0351179
-0.0325823
-0.029872
-0.0269726
-0.0238657
-0.0205259
-0.0169193
-0.013001
-0.00871354
-0.0039834
0.00128227
0.00719968
0.0139129
0.0215983
0.0304692
0.0407779
0.0528164
0.0669063
0.0833825
0.102545
0.124594
0.149501
0.176881
0.205853
0.234954
0.259888
0.278667
-0.0347535
-0.0321954
-0.0294514
-0.0265043
-0.0233318
-0.0199046
-0.0161831
-0.0121161
-0.00763765
-0.00266413
0.00291022
0.00921761
0.0164225
0.0247269
0.0343779
0.0456717
0.0589609
0.0746497
0.0931926
0.115053
0.140665
0.170274
0.203826
0.240609
0.27924
0.315487
0.350967
-0.0344475
-0.0318718
-0.0291008
-0.0261145
-0.0228881
-0.0193882
-0.0155711
-0.0113799
-0.00674205
-0.00156526
0.00426669
0.0108991
0.0185131
0.0273317
0.03763
0.0497411
0.0640716
0.0811025
0.101415
0.125668
0.154638
0.189071
0.229703
0.276617
0.329444
0.385569
0.451671
-0.0342498
-0.0316655
-0.028879
-0.0258692
-0.0226091
-0.0190629
-0.015184
-0.010912
-0.00616994
-0.000860268
0.0051399
0.0119839
0.0198632
0.0290135
0.0397271
0.0523597
0.0673526
0.0852373
0.106689
0.132526
0.163867
0.202104
0.249379
0.308151
0.382378
0.474819
0.600351
-0.0342107
-0.0316315
-0.0288471
-0.0258363
-0.0225715
-0.0190162
-0.015123
-0.0108308
-0.00606134
-0.000715956
0.00532973
0.0122309
0.0201808
0.029418
0.040238
0.0530013
0.0681579
0.0862531
0.107996
0.134261
0.166348
0.206002
0.256692
0.323874
0.421327
0.565693
0.786252
)
;

boundaryField
{
    movingWall
    {
        type            zeroGradient;
    }
    fixedWalls
    {
        type            zeroGradient;
    }
    frontAndBack
    {
        type            empty;
    }
    procBoundary4to5
    {
        type            processor;
        value           nonuniform List<scalar> 
48
(
-0.089146
-0.0893937
-0.0894961
-0.0894523
-0.0892618
-0.0889251
-0.0884438
-0.0878198
-0.0870561
-0.0861564
-0.0851251
-0.0839674
-0.0826894
-0.0812978
-0.0798003
-0.0763214
-0.0743664
-0.0723532
-0.0723532
-0.070613
-0.068793
-0.0669053
-0.0649632
-0.0629808
-0.0609738
-0.0589588
-0.0569536
-0.0549767
-0.0530474
-0.0511849
-0.0494085
-0.0477363
-0.0461847
-0.0447673
-0.0434941
-0.0423702
-0.0413947
-0.0405604
-0.0398536
-0.0392546
-0.0387401
-0.0382862
-0.0378726
-0.0374886
-0.0371374
-0.0368413
-0.0366465
-0.0365997
)
;
    }
    procBoundary4to6
    {
        type            processor;
        value           nonuniform List<scalar> 
30
(
-0.0870667
-0.0853116
-0.0834991
-0.081639
-0.0797411
-0.0778149
-0.075869
-0.0739104
-0.0719438
-0.0699705
-0.0679873
-0.0659852
-0.0639488
-0.0618551
-0.059674
-0.0573694
-0.0549031
-0.0522417
-0.0493679
-0.0462963
-0.0430904
-0.0398765
-0.0368418
-0.0342096
-0.0321859
-0.030894
-0.030322
-0.0303229
-0.0307276
-0.0314759
)
;
    }
}


// ************************************************************************* //
