/*--------------------------------*- C++ -*----------------------------------*\
  =========                 |
  \\      /  F ield         | OpenFOAM: The Open Source CFD Toolbox
   \\    /   O peration     | Website:  https://openfoam.org
    \\  /    A nd           | Version:  9
     \\/     M anipulation  |
\*---------------------------------------------------------------------------*/
FoamFile
{
    format      ascii;
    class       volVectorField;
    location    "1.5";
    object      U;
}
// * * * * * * * * * * * * * * * * * * * * * * * * * * * * * * * * * * * * * //

dimensions      [0 1 -1 0 0 0 0];

internalField   nonuniform List<vector> 
1260
(
(-0.0568677 -0.184825 0)
(-0.0581606 -0.195433 0)
(-0.0593995 -0.205734 0)
(-0.0605819 -0.215708 0)
(-0.0617116 -0.225352 0)
(-0.0628015 -0.23468 0)
(-0.0638771 -0.243744 0)
(-0.0649805 -0.252646 0)
(-0.0661745 -0.261559 0)
(-0.0675452 -0.270744 0)
(-0.0692019 -0.280574 0)
(-0.0712716 -0.291533 0)
(-0.0738866 -0.304216 0)
(-0.07716 -0.319275 0)
(-0.0811514 -0.337334 0)
(-0.08582 -0.358846 0)
(-0.0909724 -0.383883 0)
(-0.0962147 -0.41189 0)
(-0.100922 -0.441413 0)
(-0.104248 -0.469879 0)
(-0.105192 -0.493511 0)
(-0.102751 -0.507501 0)
(-0.0961467 -0.506588 0)
(-0.0851113 -0.48611 0)
(-0.0701525 -0.443438 0)
(-0.0526618 -0.379342 0)
(-0.0347273 -0.298542 0)
(-0.01864 -0.208819 0)
(-0.00655841 -0.118875 0)
(-0.000890644 -0.0359441 0)
(-0.0468849 -0.183391 0)
(-0.0484156 -0.194045 0)
(-0.0499032 -0.204397 0)
(-0.0513429 -0.214424 0)
(-0.0527346 -0.224114 0)
(-0.0540861 -0.233473 0)
(-0.0554159 -0.242538 0)
(-0.0567577 -0.251394 0)
(-0.0581641 -0.260191 0)
(-0.0597105 -0.269168 0)
(-0.0614965 -0.278674 0)
(-0.0636427 -0.289182 0)
(-0.0662814 -0.301286 0)
(-0.0695361 -0.31567 0)
(-0.0734897 -0.333026 0)
(-0.07814 -0.353925 0)
(-0.0833471 -0.378611 0)
(-0.0887791 -0.406741 0)
(-0.0938738 -0.437094 0)
(-0.0978316 -0.467302 0)
(-0.0996681 -0.493691 0)
(-0.098344 -0.51138 0)
(-0.0929871 -0.51477 0)
(-0.0831845 -0.498569 0)
(-0.0692774 -0.459299 0)
(-0.0525242 -0.396877 0)
(-0.0349634 -0.315481 0)
(-0.0189355 -0.22287 0)
(-0.00672741 -0.128195 0)
(-0.00092996 -0.0393117 0)
(-0.0367842 -0.181726 0)
(-0.0385541 -0.192413 0)
(-0.0402937 -0.202805 0)
(-0.0419961 -0.212876 0)
(-0.0436585 -0.222608 0)
(-0.0452844 -0.231999 0)
(-0.0468865 -0.241074 0)
(-0.0484905 -0.249901 0)
(-0.0501399 -0.25861 0)
(-0.0518992 -0.267418 0)
(-0.0538576 -0.276649 0)
(-0.0561274 -0.286757 0)
(-0.0588374 -0.298332 0)
(-0.0621165 -0.312075 0)
(-0.0660651 -0.328736 0)
(-0.0707134 -0.348988 0)
(-0.0759687 -0.373232 0)
(-0.0815587 -0.401334 0)
(-0.0869834 -0.432308 0)
(-0.0914964 -0.46401 0)
(-0.0941381 -0.492913 0)
(-0.0938486 -0.514112 0)
(-0.0896764 -0.521731 0)
(-0.081074 -0.509888 0)
(-0.0682195 -0.474254 0)
(-0.0522321 -0.413841 0)
(-0.0350889 -0.332187 0)
(-0.0191682 -0.236937 0)
(-0.00687344 -0.137639 0)
(-0.000966045 -0.0427648 0)
(-0.0265804 -0.179828 0)
(-0.02859 -0.190534 0)
(-0.0305834 -0.200954 0)
(-0.0325524 -0.211058 0)
(-0.0344921 -0.220825 0)
(-0.0364024 -0.230245 0)
(-0.0382911 -0.239333 0)
(-0.0401772 -0.248143 0)
(-0.0420953 -0.256786 0)
(-0.0441 -0.265456 0)
(-0.0462695 -0.274453 0)
(-0.0487065 -0.284211 0)
(-0.0515337 -0.295307 0)
(-0.0548812 -0.308452 0)
(-0.0588613 -0.324437 0)
(-0.0635305 -0.344024 0)
(-0.0688379 -0.367759 0)
(-0.074566 -0.395703 0)
(-0.0802768 -0.427111 0)
(-0.0852799 -0.460078 0)
(-0.0886494 -0.491254 0)
(-0.0893172 -0.515766 0)
(-0.0862667 -0.527514 0)
(-0.0788269 -0.520078 0)
(-0.0670173 -0.488287 0)
(-0.0518132 -0.430198 0)
(-0.0351206 -0.348616 0)
(-0.0193453 -0.250979 0)
(-0.00699814 -0.147178 0)
(-0.000998886 -0.0462923 0)
(-0.0162874 -0.177698 0)
(-0.0185366 -0.188408 0)
(-0.0207847 -0.198841 0)
(-0.0230229 -0.208966 0)
(-0.0252446 -0.218757 0)
(-0.0274471 -0.2282 0)
(-0.0296338 -0.2373 0)
(-0.0318182 -0.246098 0)
(-0.0340269 -0.254691 0)
(-0.0363049 -0.263248 0)
(-0.0387198 -0.272049 0)
(-0.0413637 -0.281501 0)
(-0.0443511 -0.292167 0)
(-0.04781 -0.304757 0)
(-0.0518599 -0.320095 0)
(-0.0565777 -0.339016 0)
(-0.0619482 -0.362193 0)
(-0.0678046 -0.389876 0)
(-0.0737685 -0.421554 0)
(-0.079208 -0.455573 0)
(-0.0832374 -0.488792 0)
(-0.0847917 -0.516412 0)
(-0.0828022 -0.532176 0)
(-0.0764857 -0.52917 0)
(-0.0657075 -0.501401 0)
(-0.0512955 -0.445929 0)
(-0.0350763 -0.364737 0)
(-0.0194753 -0.264964 0)
(-0.00710368 -0.156788 0)
(-0.00102855 -0.0498836 0)
(-0.0059186 -0.175336 0)
(-0.00840673 -0.186035 0)
(-0.0109099 -0.196466 0)
(-0.0134188 -0.206597 0)
(-0.015926 -0.2164 0)
(-0.0184264 -0.225855 0)
(-0.0209205 -0.234962 0)
(-0.0234163 -0.243751 0)
(-0.0259338 -0.252302 0)
(-0.0285092 -0.260767 0)
(-0.0311995 -0.269401 0)
(-0.0340859 -0.278588 0)
(-0.0372736 -0.28887 0)
(-0.0408853 -0.300952 0)
(-0.0450436 -0.315678 0)
(-0.0498407 -0.333942 0)
(-0.0552914 -0.35653 0)
(-0.0612744 -0.383869 0)
(-0.0674685 -0.415674 0)
(-0.0733007 -0.45055 0)
(-0.0779314 -0.48559 0)
(-0.0803082 -0.516116 0)
(-0.0793224 -0.535765 0)
(-0.0740893 -0.53719 0)
(-0.0643251 -0.513597 0)
(-0.0507072 -0.46102 0)
(-0.0349749 -0.380529 0)
(-0.0195679 -0.278868 0)
(-0.00719283 -0.166448 0)
(-0.00105523 -0.0535298 0)
(0.00451382 -0.172744 0)
(0.00178785 -0.183415 0)
(-0.00097015 -0.193827 0)
(-0.00375078 -0.203949 0)
(-0.00654591 -0.213749 0)
(-0.00934903 -0.223205 0)
(-0.0121576 -0.23231 0)
(-0.0149759 -0.241086 0)
(-0.0178175 -0.2496 0)
(-0.0207106 -0.257987 0)
(-0.0237025 -0.266478 0)
(-0.0268633 -0.275434 0)
(-0.0302877 -0.285376 0)
(-0.0340912 -0.296997 0)
(-0.0383961 -0.311149 0)
(-0.0433048 -0.328775 0)
(-0.0488568 -0.35076 0)
(-0.0549713 -0.377689 0)
(-0.0613808 -0.409499 0)
(-0.0675713 -0.445057 0)
(-0.0727533 -0.481708 0)
(-0.0758954 -0.514935 0)
(-0.0758603 -0.53833 0)
(-0.0716719 -0.544169 0)
(-0.0629025 -0.524887 0)
(-0.0500758 -0.475465 0)
(-0.0348364 -0.395978 0)
(-0.0196336 -0.292675 0)
(-0.00726896 -0.176143 0)
(-0.00107923 -0.0572231 0)
(0.0149988 -0.169924 0)
(0.0120365 -0.180549 0)
(0.00902408 -0.190925 0)
(0.005971 -0.20102 0)
(0.00288599 -0.2108 0)
(-0.000223405 -0.220243 0)
(-0.00335258 -0.229335 0)
(-0.0065023 -0.238092 0)
(-0.00968085 -0.246569 0)
(-0.0129091 -0.254885 0)
(-0.0162252 -0.263253 0)
(-0.0196885 -0.272009 0)
(-0.0233827 -0.28165 0)
(-0.0274143 -0.292853 0)
(-0.0319024 -0.306473 0)
(-0.0369554 -0.323488 0)
(-0.0426326 -0.344867 0)
(-0.0488884 -0.371338 0)
(-0.0555054 -0.40305 0)
(-0.0620279 -0.439131 0)
(-0.0677191 -0.477195 0)
(-0.0715762 -0.512923 0)
(-0.0724434 -0.539916 0)
(-0.0692633 -0.550135 0)
(-0.061469 -0.535282 0)
(-0.0494274 -0.489265 0)
(-0.0346806 -0.411079 0)
(-0.0196841 -0.306375 0)
(-0.00733593 -0.185864 0)
(-0.00110094 -0.0609578 0)
(0.0255267 -0.166877 0)
(0.0223291 -0.177438 0)
(0.0190629 -0.18776 0)
(0.0157371 -0.197809 0)
(0.0123608 -0.207553 0)
(0.00894207 -0.216965 0)
(0.00548728 -0.226031 0)
(0.00199848 -0.234759 0)
(-0.00152781 -0.243195 0)
(-0.005106 -0.251445 0)
(-0.00876592 -0.259703 0)
(-0.0125563 -0.268283 0)
(-0.0165499 -0.277658 0)
(-0.020843 -0.288486 0)
(-0.0255488 -0.301617 0)
(-0.0307785 -0.318053 0)
(-0.0366062 -0.338831 0)
(-0.0430168 -0.364812 0)
(-0.049839 -0.396341 0)
(-0.0566737 -0.432803 0)
(-0.0628392 -0.472094 0)
(-0.0673674 -0.510127 0)
(-0.0690936 -0.540566 0)
(-0.0668885 -0.555117 0)
(-0.0600507 -0.544795 0)
(-0.0487868 -0.502423 0)
(-0.0345277 -0.425833 0)
(-0.0197314 -0.31997 0)
(-0.00739809 -0.195606 0)
(-0.00112092 -0.06473 0)
(0.0360887 -0.163604 0)
(0.0326571 -0.174083 0)
(0.0291377 -0.184331 0)
(0.0255388 -0.194316 0)
(0.0218697 -0.204004 0)
(0.0181391 -0.213368 0)
(0.0143543 -0.222391 0)
(0.0105204 -0.231078 0)
(0.0066371 -0.239466 0)
(0.00269594 -0.24765 0)
(-0.00132458 -0.255807 0)
(-0.00546359 -0.264231 0)
(-0.00978262 -0.27337 0)
(-0.0143673 -0.283862 0)
(-0.0193231 -0.296547 0)
(-0.0247606 -0.312439 0)
(-0.0307646 -0.332633 0)
(-0.037346 -0.358103 0)
(-0.0443754 -0.389379 0)
(-0.0515082 -0.426096 0)
(-0.0581193 -0.466441 0)
(-0.0632807 -0.506588 0)
(-0.0658276 -0.540316 0)
(-0.0645679 -0.55914 0)
(-0.0586702 -0.55344 0)
(-0.0481767 -0.514946 0)
(-0.0343971 -0.440248 0)
(-0.0197883 -0.333467 0)
(-0.00746022 -0.205373 0)
(-0.00113978 -0.0685383 0)
(0.0466769 -0.160107 0)
(0.0430126 -0.170485 0)
(0.0392402 -0.18064 0)
(0.0353681 -0.190539 0)
(0.0314049 -0.200151 0)
(0.0273599 -0.209448 0)
(0.0232414 -0.218412 0)
(0.0190565 -0.227042 0)
(0.0148084 -0.235371 0)
(0.0104935 -0.243486 0)
(0.00609792 -0.251547 0)
(0.00159162 -0.25983 0)
(-0.00307589 -0.268761 0)
(-0.00797904 -0.278953 0)
(-0.0132143 -0.291232 0)
(-0.0188889 -0.306619 0)
(-0.0250949 -0.326251 0)
(-0.0318644 -0.351201 0)
(-0.039106 -0.382167 0)
(-0.0465274 -0.419029 0)
(-0.0535607 -0.460267 0)
(-0.0593229 -0.502343 0)
(-0.062657 -0.539199 0)
(-0.0623171 -0.562228 0)
(-0.0573462 -0.561228 0)
(-0.0476177 -0.526841 0)
(-0.0343081 -0.454334 0)
(-0.0198679 -0.346879 0)
(-0.00752751 -0.215173 0)
(-0.00115829 -0.0723837 0)
(0.0572845 -0.156389 0)
(0.0533883 -0.166644 0)
(0.0493633 -0.176685 0)
(0.0452172 -0.186478 0)
(0.0409587 -0.195994 0)
(0.0365969 -0.205203 0)
(0.0321413 -0.214087 0)
(0.0276004 -0.222645 0)
(0.0229805 -0.230904 0)
(0.0182827 -0.238941 0)
(0.0134997 -0.246908 0)
(0.0086101 -0.255062 0)
(0.00357415 -0.263806 0)
(-0.00167123 -0.273731 0)
(-0.00721245 -0.285645 0)
(-0.0131513 -0.300566 0)
(-0.0195838 -0.319663 0)
(-0.0265593 -0.344093 0)
(-0.0340204 -0.374707 0)
(-0.0417243 -0.411616 0)
(-0.0491609 -0.453597 0)
(-0.0554961 -0.497422 0)
(-0.0595885 -0.537243 0)
(-0.0601471 -0.564399 0)
(-0.0560938 -0.568167 0)
(-0.0471278 -0.538115 0)
(-0.0342789 -0.468106 0)
(-0.0199835 -0.360227 0)
(-0.00760554 -0.225021 0)
(-0.0011773 -0.0762702 0)
(0.0679051 -0.152448 0)
(0.0637775 -0.162562 0)
(0.0594998 -0.172466 0)
(0.0550791 -0.182133 0)
(0.0505236 -0.191529 0)
(0.0458428 -0.20063 0)
(0.0410467 -0.209414 0)
(0.0361453 -0.217881 0)
(0.0311477 -0.226055 0)
(0.0260592 -0.234007 0)
(0.0208782 -0.241877 0)
(0.0155918 -0.249909 0)
(0.0101704 -0.258485 0)
(0.0045622 -0.268173 0)
(-0.00130837 -0.279759 0)
(-0.00753613 -0.294255 0)
(-0.014218 -0.312849 0)
(-0.0214171 -0.336766 0)
(-0.0291062 -0.366996 0)
(-0.0370892 -0.403867 0)
(-0.0449137 -0.446453 0)
(-0.0517981 -0.491851 0)
(-0.0566242 -0.534471 0)
(-0.0580642 -0.565666 0)
(-0.0549237 -0.574262 0)
(-0.0467222 -0.548773 0)
(-0.0343266 -0.481581 0)
(-0.0201488 -0.373539 0)
(-0.00770029 -0.23494 0)
(-0.00119778 -0.0802047 0)
(0.0785325 -0.148287 0)
(0.0741738 -0.158237 0)
(0.0696429 -0.167984 0)
(0.0649464 -0.1775 0)
(0.0600924 -0.186756 0)
(0.0550901 -0.195725 0)
(0.0499504 -0.204389 0)
(0.0446847 -0.212745 0)
(0.0393042 -0.220818 0)
(0.0338182 -0.228673 0)
(0.0282307 -0.236444 0)
(0.0225364 -0.244358 0)
(0.0167152 -0.252781 0)
(0.0107268 -0.262259 0)
(0.00450655 -0.273553 0)
(-0.00203166 -0.287664 0)
(-0.00898381 -0.305788 0)
(-0.0164235 -0.329207 0)
(-0.0243494 -0.35903 0)
(-0.0326099 -0.39579 0)
(-0.0408095 -0.438851 0)
(-0.0482228 -0.485652 0)
(-0.0537615 -0.530904 0)
(-0.0560701 -0.56604 0)
(-0.0538425 -0.579513 0)
(-0.0464131 -0.558814 0)
(-0.0344672 -0.494774 0)
(-0.0203775 -0.386846 0)
(-0.00781813 -0.244959 0)
(-0.0012208 -0.084197 0)
(0.0891604 -0.143906 0)
(0.0845702 -0.15367 0)
(0.0797854 -0.163237 0)
(0.0748118 -0.17258 0)
(0.0696573 -0.181671 0)
(0.0643314 -0.190486 0)
(0.0588452 -0.199008 0)
(0.0532116 -0.207234 0)
(0.0474441 -0.215188 0)
(0.0415552 -0.222934 0)
(0.0355542 -0.230598 0)
(0.0294431 -0.238397 0)
(0.0232108 -0.24668 0)
(0.0168278 -0.25597 0)
(0.010241 -0.267007 0)
(0.00337367 -0.280771 0)
(-0.00386713 -0.298464 0)
(-0.0115626 -0.321404 0)
(-0.0197341 -0.350806 0)
(-0.0282714 -0.387392 0)
(-0.0368354 -0.430808 0)
(-0.0447597 -0.478845 0)
(-0.0509931 -0.526555 0)
(-0.0541612 -0.565524 0)
(-0.0528522 -0.583914 0)
(-0.0462092 -0.568235 0)
(-0.0347152 -0.5077 0)
(-0.0206836 -0.400185 0)
(-0.00796588 -0.255112 0)
(-0.00124759 -0.0882608 0)
(0.0846672 -0.16737 0)
(0.0792104 -0.176273 0)
(0.0735586 -0.184911 0)
(0.0677235 -0.193268 0)
(0.0617192 -0.201344 0)
(0.0555612 -0.209162 0)
(0.0492654 -0.216785 0)
(0.042846 -0.224334 0)
(0.0363115 -0.232018 0)
(0.0296595 -0.240171 0)
(0.0228711 -0.249295 0)
(0.0159043 -0.260105 0)
(0.00869194 -0.273561 0)
(0.00114683 -0.290858 0)
(-0.00681722 -0.313344 0)
(-0.0152423 -0.342319 0)
(-0.0240562 -0.378677 0)
(-0.0329751 -0.422335 0)
(-0.0413944 -0.471446 0)
(-0.048307 -0.521438 0)
(-0.0523291 -0.564121 0)
(-0.0519497 -0.587453 0)
(-0.0461151 -0.577024 0)
(-0.0350829 -0.520371 0)
(-0.0210811 -0.413595 0)
(-0.00815078 -0.265442 0)
(-0.00127948 -0.0924133 0)
(0.0945036 -0.161868 0)
(0.0887427 -0.17056 0)
(0.0827631 -0.178997 0)
(0.0765772 -0.187167 0)
(0.0702001 -0.195071 0)
(0.0636495 -0.202735 0)
(0.0569445 -0.21022 0)
(0.0501036 -0.217646 0)
(0.0431416 -0.225214 0)
(0.0360644 -0.233245 0)
(0.0288629 -0.242221 0)
(0.0215062 -0.252834 0)
(0.0139373 -0.266019 0)
(0.00607526 -0.28296 0)
(-0.00216864 -0.305018 0)
(-0.0108538 -0.333566 0)
(-0.0199436 -0.369649 0)
(-0.0292086 -0.413445 0)
(-0.0381081 -0.46347 0)
(-0.0456863 -0.515561 0)
(-0.0505599 -0.561824 0)
(-0.0511266 -0.590112 0)
(-0.0461312 -0.585162 0)
(-0.0355804 -0.532791 0)
(-0.0215837 -0.427117 0)
(-0.00838061 -0.275998 0)
(-0.00131798 -0.0966755 0)
(0.10431 -0.156074 0)
(0.0982441 -0.164531 0)
(0.0919355 -0.172743 0)
(0.0853976 -0.180703 0)
(0.078647 -0.188415 0)
(0.0717033 -0.195906 0)
(0.0645884 -0.20324 0)
(0.0573254 -0.210533 0)
(0.0499346 -0.217982 0)
(0.0424297 -0.225897 0)
(0.0348111 -0.234741 0)
(0.0270585 -0.245185 0)
(0.019125 -0.258136 0)
(0.0109369 -0.274757 0)
(0.00240477 -0.296418 0)
(-0.00654527 -0.324543 0)
(-0.0159097 -0.360313 0)
(-0.025512 -0.404148 0)
(-0.0348776 -0.45493 0)
(-0.0431087 -0.508932 0)
(-0.0488339 -0.558626 0)
(-0.0503683 -0.591865 0)
(-0.0462525 -0.59262 0)
(-0.0362148 -0.544958 0)
(-0.022205 -0.440794 0)
(-0.00866373 -0.286837 0)
(-0.00136474 -0.101073 0)
(0.114075 -0.149986 0)
(0.107703 -0.158183 0)
(0.101065 -0.166149 0)
(0.0941757 -0.173877 0)
(0.0870524 -0.181376 0)
(0.0797168 -0.188676 0)
(0.072194 -0.195844 0)
(0.0645107 -0.202995 0)
(0.0566931 -0.210322 0)
(0.0487618 -0.218125 0)
(0.0407259 -0.226854 0)
(0.0325753 -0.237153 0)
(0.0242734 -0.249903 0)
(0.0157538 -0.266244 0)
(0.00692792 -0.287538 0)
(-0.00228992 -0.315251 0)
(-0.0119265 -0.350674 0)
(-0.0218569 -0.394457 0)
(-0.0316745 -0.445838 0)
(-0.0405466 -0.501556 0)
(-0.047125 -0.554514 0)
(-0.0496539 -0.592676 0)
(-0.0464679 -0.599357 0)
(-0.0369893 -0.556861 0)
(-0.0229581 -0.454664 0)
(-0.0090091 -0.298019 0)
(-0.00142163 -0.105635 0)
(0.123784 -0.143603 0)
(0.117107 -0.151518 0)
(0.110141 -0.159214 0)
(0.102902 -0.166689 0)
(0.0954087 -0.173956 0)
(0.0876852 -0.181048 0)
(0.0797591 -0.188035 0)
(0.0716611 -0.195034 0)
(0.0634221 -0.202236 0)
(0.0550695 -0.209933 0)
(0.0466205 -0.21856 0)
(0.0380744 -0.228738 0)
(0.0294045 -0.241319 0)
(0.020552 -0.257416 0)
(0.0114301 -0.278377 0)
(0.00194388 -0.305688 0)
(-0.00796112 -0.340739 0)
(-0.0182098 -0.384383 0)
(-0.0284649 -0.436208 0)
(-0.0379659 -0.493436 0)
(-0.0454005 -0.549473 0)
(-0.0489549 -0.592506 0)
(-0.0467598 -0.60532 0)
(-0.0379028 -0.568472 0)
(-0.0238551 -0.468764 0)
(-0.0094264 -0.309615 0)
(-0.0014907 -0.110397 0)
(0.133421 -0.136927 0)
(0.12644 -0.144537 0)
(0.11915 -0.151942 0)
(0.111566 -0.159144 0)
(0.103709 -0.166159 0)
(0.095605 -0.173027 0)
(0.087284 -0.179821 0)
(0.0787804 -0.18666 0)
(0.07013 -0.193733 0)
(0.0613659 -0.201328 0)
(0.0525128 -0.209864 0)
(0.0435786 -0.219942 0)
(0.0345455 -0.232386 0)
(0.0253629 -0.248274 0)
(0.0159464 -0.268933 0)
(0.00619353 -0.295859 0)
(-0.00397478 -0.330515 0)
(-0.0145312 -0.373937 0)
(-0.0252087 -0.426052 0)
(-0.0353257 -0.484577 0)
(-0.0436197 -0.543483 0)
(-0.0482347 -0.591305 0)
(-0.0471021 -0.610441 0)
(-0.0389482 -0.57975 0)
(-0.0249067 -0.483123 0)
(-0.0099261 -0.321697 0)
(-0.00157426 -0.115399 0)
(0.142967 -0.12996 0)
(0.135688 -0.137245 0)
(0.12808 -0.144338 0)
(0.120159 -0.151247 0)
(0.111948 -0.157994 0)
(0.103475 -0.164623 0)
(0.0947716 -0.171212 0)
(0.0858768 -0.177883 0)
(0.07683 -0.184825 0)
(0.0676696 -0.192321 0)
(0.0584266 -0.200778 0)
(0.0491169 -0.210776 0)
(0.0397309 -0.223109 0)
(0.0302252 -0.238821 0)
(0.020519 -0.25921 0)
(0.0105038 -0.285767 0)
(7.88099e-05 -0.320009 0)
(-0.0107739 -0.363134 0)
(-0.0218581 -0.415385 0)
(-0.0325775 -0.474984 0)
(-0.0417337 -0.536524 0)
(-0.0474473 -0.589017 0)
(-0.0474599 -0.614639 0)
(-0.0401116 -0.590633 0)
(-0.0261216 -0.497758 0)
(-0.0105196 -0.334348 0)
(-0.00167491 -0.120687 0)
(0.152401 -0.122709 0)
(0.144833 -0.129648 0)
(0.136917 -0.136412 0)
(0.128672 -0.143011 0)
(0.120122 -0.149474 0)
(0.111296 -0.155851 0)
(0.10223 -0.162225 0)
(0.0929638 -0.168721 0)
(0.0835417 -0.17553 0)
(0.0740062 -0.182929 0)
(0.064394 -0.191317 0)
(0.0547273 -0.201252 0)
(0.0450039 -0.2135 0)
(0.0351871 -0.229067 0)
(0.0251999 -0.249215 0)
(0.0149293 -0.275419 0)
(0.00425536 -0.309232 0)
(-0.00688187 -0.351986 0)
(-0.0183566 -0.404221 0)
(-0.0296637 -0.464662 0)
(-0.039684 -0.528574 0)
(-0.0465364 -0.585576 0)
(-0.0477874 -0.617815 0)
(-0.0413704 -0.601036 0)
(-0.0275055 -0.512673 0)
(-0.0112193 -0.347649 0)
(-0.00179557 -0.126313 0)
(0.161703 -0.115183 0)
(0.153859 -0.12176 0)
(0.145652 -0.128177 0)
(0.137101 -0.134452 0)
(0.128232 -0.140618 0)
(0.119077 -0.146732 0)
(0.109673 -0.152882 0)
(0.100063 -0.159198 0)
(0.0902937 -0.165872 0)
(0.0804117 -0.173178 0)
(0.0704576 -0.181504 0)
(0.0604589 -0.191391 0)
(0.0504195 -0.203574 0)
(0.0403088 -0.219022 0)
(0.030053 -0.238956 0)
(0.0195363 -0.264823 0)
(0.00862228 -0.298193 0)
(-0.00278782 -0.340508 0)
(-0.014637 -0.392577 0)
(-0.0265161 -0.453617 0)
(-0.0374012 -0.519612 0)
(-0.0454339 -0.580914 0)
(-0.0480267 -0.619851 0)
(-0.0426919 -0.610847 0)
(-0.0290602 -0.527848 0)
(-0.0120393 -0.361689 0)
(-0.00193971 -0.132335 0)
(0.170852 -0.107397 0)
(0.162752 -0.113596 0)
(0.154276 -0.119653 0)
(0.145444 -0.125591 0)
(0.136286 -0.131451 0)
(0.126832 -0.137294 0)
(0.117124 -0.143213 0)
(0.107206 -0.149345 0)
(0.0971268 -0.155883 0)
(0.0869348 -0.163098 0)
(0.076674 -0.17137 0)
(0.0663757 -0.18122 0)
(0.0560484 -0.193356 0)
(0.045666 -0.208706 0)
(0.035158 -0.228446 0)
(0.0244068 -0.253989 0)
(0.013262 -0.286903 0)
(0.00158988 -0.328713 0)
(-0.0106185 -0.380466 0)
(-0.0230541 -0.441857 0)
(-0.0348031 -0.509615 0)
(-0.0440585 -0.574954 0)
(-0.0481061 -0.620613 0)
(-0.0440314 -0.619923 0)
(-0.0307818 -0.543238 0)
(-0.0129957 -0.376555 0)
(-0.00211163 -0.13882 0)
(0.179833 -0.0993723 0)
(0.171503 -0.105182 0)
(0.162789 -0.110869 0)
(0.153712 -0.116462 0)
(0.144301 -0.122007 0)
(0.13459 -0.127573 0)
(0.124622 -0.133259 0)
(0.114441 -0.139204 0)
(0.104098 -0.145605 0)
(0.0936419 -0.15273 0)
(0.0831183 -0.160951 0)
(0.0725607 -0.170772 0)
(0.0619802 -0.182871 0)
(0.0513542 -0.198138 0)
(0.0406145 -0.217701 0)
(0.0296423 -0.242929 0)
(0.018276 -0.275373 0)
(0.00635104 -0.316615 0)
(-0.00620384 -0.367905 0)
(-0.0191814 -0.429389 0)
(-0.0317932 -0.498562 0)
(-0.0423135 -0.567614 0)
(-0.047938 -0.619947 0)
(-0.0453293 -0.628084 0)
(-0.0326595 -0.558762 0)
(-0.0141081 -0.392332 0)
(-0.00231709 -0.145844 0)
(0.188635 -0.0911395 0)
(0.180114 -0.0965521 0)
(0.171202 -0.101862 0)
(0.161925 -0.107105 0)
(0.15231 -0.112332 0)
(0.142396 -0.117618 0)
(0.132222 -0.123068 0)
(0.121836 -0.128826 0)
(0.111286 -0.135089 0)
(0.100622 -0.142125 0)
(0.0898895 -0.150295 0)
(0.0791215 -0.160089 0)
(0.0683301 -0.172156 0)
(0.0574943 -0.187347 0)
(0.0465474 -0.20674 0)
(0.0353693 -0.231653 0)
(0.0237899 -0.263609 0)
(0.0116186 -0.304221 0)
(-0.00127426 -0.354906 0)
(-0.014783 -0.416221 0)
(-0.0282565 -0.48643 0)
(-0.0400843 -0.558809 0)
(-0.047416 -0.61768 0)
(-0.0465092 -0.635111 0)
(-0.0346734 -0.574294 0)
(-0.015401 -0.409098 0)
(-0.0025645 -0.153495 0)
(0.197266 -0.0827386 0)
(0.188601 -0.0877503 0)
(0.179547 -0.0926816 0)
(0.170127 -0.0975729 0)
(0.160372 -0.102482 0)
(0.150319 -0.107489 0)
(0.140008 -0.112703 0)
(0.129485 -0.118273 0)
(0.118798 -0.124398 0)
(0.107995 -0.131341 0)
(0.097117 -0.139458 0)
(0.0861968 -0.149221 0)
(0.0752448 -0.161252 0)
(0.0642392 -0.176363 0)
(0.0531136 -0.195582 0)
(0.0417465 -0.220174 0)
(0.0299609 -0.251619 0)
(0.0175444 -0.291538 0)
(0.0043158 -0.341475 0)
(-0.00971844 -0.402356 0)
(-0.0240559 -0.473198 0)
(-0.037235 -0.548446 0)
(-0.0464124 -0.613619 0)
(-0.047474 -0.640741 0)
(-0.0367914 -0.589653 0)
(-0.0169065 -0.426919 0)
(-0.00286695 -0.161879 0)
(0.205755 -0.0742226 0)
(0.197011 -0.0788349 0)
(0.187881 -0.0833902 0)
(0.178392 -0.0879337 0)
(0.168574 -0.0925283 0)
(0.158463 -0.0972593 0)
(0.148098 -0.10224 0)
(0.137522 -0.107623 0)
(0.126781 -0.113606 0)
(0.115918 -0.120451 0)
(0.10497 -0.128506 0)
(0.0939659 -0.138226 0)
(0.0829115 -0.150208 0)
(0.0717826 -0.165224 0)
(0.0605108 -0.184254 0)
(0.0489725 -0.208504 0)
(0.0369851 -0.239404 0)
(0.0243189 -0.278563 0)
(0.0107477 -0.327614 0)
(-0.00381633 -0.387794 0)
(-0.0190264 -0.458839 0)
(-0.0336034 -0.536431 0)
(-0.0447733 -0.607549 0)
(-0.0481013 -0.644658 0)
(-0.0389659 -0.604585 0)
(-0.0186665 -0.445833 0)
(-0.00324539 -0.171126 0)
(0.214172 -0.0656601 0)
(0.205428 -0.06988 0)
(0.196309 -0.0740669 0)
(0.186841 -0.0782705 0)
(0.177053 -0.0825581 0)
(0.166981 -0.087019 0)
(0.15666 -0.0917702 0)
(0.14613 -0.0969646 0)
(0.135431 -0.102801 0)
(0.1246 -0.109539 0)
(0.11367 -0.117516 0)
(0.102659 -0.127172 0)
(0.0915691 -0.139079 0)
(0.0803695 -0.153971 0)
(0.0689878 -0.17278 0)
(0.0572971 -0.196652 0)
(0.0451093 -0.226962 0)
(0.0321808 -0.265286 0)
(0.0182482 -0.313309 0)
(0.00313632 -0.372523 0)
(-0.0129663 -0.443321 0)
(-0.0289942 -0.522658 0)
(-0.0423124 -0.599233 0)
(-0.0482377 -0.646489 0)
(-0.0411274 -0.618751 0)
(-0.0207344 -0.465841 0)
(-0.00373334 -0.1814 0)
(0.222645 -0.0571373 0)
(0.214 -0.0609772 0)
(0.204996 -0.0648085 0)
(0.195657 -0.0686844 0)
(0.186012 -0.0726754 0)
(0.176092 -0.0768737 0)
(0.16593 -0.0813984 0)
(0.155559 -0.0864031 0)
(0.145012 -0.0920854 0)
(0.134319 -0.0987002 0)
(0.123502 -0.106576 0)
(0.112572 -0.116137 0)
(0.101521 -0.127929 0)
(0.0903096 -0.142653 0)
(0.0788581 -0.161189 0)
(0.0670342 -0.184628 0)
(0.0546436 -0.214283 0)
(0.0414311 -0.251685 0)
(0.0271028 -0.298535 0)
(0.0114074 -0.356516 0)
(-0.00562551 -0.426601 0)
(-0.02317 -0.507016 0)
(-0.0388027 -0.588409 0)
(-0.0476896 -0.645799 0)
(-0.0431767 -0.631707 0)
(-0.0231737 -0.486878 0)
(-0.00438275 -0.192915 0)
(0.231391 -0.0487606 0)
(0.222966 -0.0522383 0)
(0.214201 -0.055731 0)
(0.205119 -0.0592944 0)
(0.195745 -0.0630014 0)
(0.186107 -0.0669454 0)
(0.176232 -0.0712462 0)
(0.166146 -0.0760567 0)
(0.155874 -0.0815719 0)
(0.145434 -0.0880408 0)
(0.134838 -0.095782 0)
(0.124085 -0.105204 0)
(0.113154 -0.116828 0)
(0.101994 -0.131319 0)
(0.0905163 -0.149512 0)
(0.0785784 -0.17244 0)
(0.0659783 -0.201352 0)
(0.0524494 -0.237724 0)
(0.0376733 -0.283246 0)
(0.0213356 -0.339725 0)
(0.00331043 -0.408622 0)
(-0.0158357 -0.489376 0)
(-0.0339634 -0.574788 0)
(-0.0462102 -0.642078 0)
(-0.0449716 -0.642879 0)
(-0.0260495 -0.508781 0)
(-0.00527044 -0.205951 0)
(0.240761 -0.0406578 0)
(0.232694 -0.0437949 0)
(0.224311 -0.0469692 0)
(0.215629 -0.0502376 0)
(0.206672 -0.0536735 0)
(0.19746 -0.0573706 0)
(0.188013 -0.0614478 0)
(0.178349 -0.0660555 0)
(0.168481 -0.0713845 0)
(0.158418 -0.0776769 0)
(0.148157 -0.0852401 0)
(0.137683 -0.0944655 0)
(0.126958 -0.105851 0)
(0.115918 -0.120026 0)
(0.104458 -0.13778 0)
(0.0924247 -0.16009 0)
(0.0796036 -0.188143 0)
(0.0657153 -0.223352 0)
(0.0504195 -0.26737 0)
(0.0333491 -0.322072 0)
(0.0142417 -0.3893 0)
(-0.00661599 -0.469594 0)
(-0.0274424 -0.558049 0)
(-0.0434823 -0.634736 0)
(-0.0463066 -0.651537 0)
(-0.0294094 -0.531241 0)
(-0.00650291 -0.220867 0)
(0.251285 -0.0329765 0)
(0.243735 -0.0357974 0)
(0.23589 -0.0386746 0)
(0.227766 -0.0416651 0)
(0.219379 -0.0448419 0)
(0.210745 -0.0482969 0)
(0.201874 -0.0521465 0)
(0.192774 -0.0565372 0)
(0.183447 -0.0616539 0)
(0.173888 -0.0677296 0)
(0.164078 -0.0750597 0)
(0.153984 -0.0840174 0)
(0.143553 -0.0950754 0)
(0.132701 -0.108829 0)
(0.121305 -0.126024 0)
(0.109193 -0.147581 0)
(0.0961343 -0.174625 0)
(0.0818317 -0.208501 0)
(0.0659228 -0.250812 0)
(0.0479964 -0.303447 0)
(0.0276804 -0.368513 0)
(0.00496755 -0.44751 0)
(-0.0187874 -0.537839 0)
(-0.0390918 -0.623101 0)
(-0.0468835 -0.656773 0)
(-0.0332478 -0.553743 0)
(-0.00821488 -0.238111 0)
(0.263751 -0.0258807 0)
(0.256883 -0.0284092 0)
(0.249742 -0.0310094 0)
(0.242337 -0.0337369 0)
(0.234679 -0.0366626 0)
(0.226773 -0.0398757 0)
(0.218624 -0.0434882 0)
(0.210227 -0.0476408 0)
(0.201572 -0.0525104 0)
(0.192638 -0.0583199 0)
(0.18339 -0.0653499 0)
(0.173777 -0.0739543 0)
(0.163724 -0.0845793 0)
(0.153125 -0.0977854 0)
(0.141835 -0.114273 0)
(0.129657 -0.134909 0)
(0.116337 -0.160754 0)
(0.101555 -0.193086 0)
(0.084921 -0.233445 0)
(0.0659829 -0.283695 0)
(0.0442738 -0.346094 0)
(0.0195312 -0.422924 0)
(-0.00740277 -0.513786 0)
(-0.0324929 -0.60641 0)
(-0.0462694 -0.657475 0)
(-0.0374487 -0.575499 0)
(-0.0105521 -0.258205 0)
(0.279283 -0.0195403 0)
(0.273262 -0.021797 0)
(0.266983 -0.024136 0)
(0.260449 -0.0266103 0)
(0.253664 -0.0292875 0)
(0.246627 -0.0322522 0)
(0.239331 -0.0356107 0)
(0.231761 -0.0394961 0)
(0.223892 -0.0440757 0)
(0.21569 -0.0495593 0)
(0.207101 -0.056211 0)
(0.198054 -0.0643629 0)
(0.188452 -0.0744327 0)
(0.178162 -0.0869441 0)
(0.167011 -0.102551 0)
(0.154774 -0.122065 0)
(0.141165 -0.14648 0)
(0.125828 -0.177007 0)
(0.108339 -0.215117 0)
(0.0882011 -0.262619 0)
(0.0648672 -0.32183 0)
(0.0378701 -0.395585 0)
(0.00747939 -0.485506 0)
(-0.0229531 -0.583818 0)
(-0.0438388 -0.652299 0)
(-0.0417081 -0.595356 0)
(-0.0136243 -0.281698 0)
(0.299436 -0.0141154 0)
(0.294401 -0.0161145 0)
(0.289115 -0.018201 0)
(0.283576 -0.0204244 0)
(0.277781 -0.0228478 0)
(0.27172 -0.0255501 0)
(0.265377 -0.0286299 0)
(0.258726 -0.0322111 0)
(0.251729 -0.036449 0)
(0.244336 -0.0415384 0)
(0.236477 -0.0477238 0)
(0.228057 -0.0553127 0)
(0.218955 -0.064691 0)
(0.209012 -0.0763424 0)
(0.198021 -0.0908713 0)
(0.185721 -0.109029 0)
(0.171786 -0.131743 0)
(0.155815 -0.160151 0)
(0.137333 -0.19565 0)
(0.115788 -0.23998 0)
(0.0905584 -0.29544 0)
(0.061 -0.365188 0)
(0.0268714 -0.452563 0)
(-0.00947277 -0.554439 0)
(-0.0386911 -0.63963 0)
(-0.0454379 -0.611654 0)
(-0.0174161 -0.309013 0)
(0.326264 -0.00973205 0)
(0.322305 -0.0114787 0)
(0.318093 -0.0133125 0)
(0.31362 -0.0152787 0)
(0.308878 -0.0174347 0)
(0.303848 -0.0198522 0)
(0.298507 -0.0226211 0)
(0.292817 -0.0258539 0)
(0.28673 -0.0296918 0)
(0.280178 -0.0343119 0)
(0.273075 -0.0399362 0)
(0.265306 -0.0468437 0)
(0.256723 -0.0553843 0)
(0.247137 -0.0659973 0)
(0.236306 -0.079232 0)
(0.223927 -0.0957745 0)
(0.209624 -0.116478 0)
(0.192939 -0.142401 0)
(0.173331 -0.174859 0)
(0.150172 -0.215516 0)
(0.122755 -0.266604 0)
(0.0902884 -0.331396 0)
(0.0520992 -0.41449 0)
(0.00929699 -0.51738 0)
(-0.0294755 -0.61753 0)
(-0.0476524 -0.622086 0)
(-0.0216553 -0.340188 0)
(0.362356 -0.00645099 0)
(0.35948 -0.00794083 0)
(0.356341 -0.00951285 0)
(0.352926 -0.011207 0)
(0.349221 -0.0130743 0)
(0.345203 -0.015178 0)
(0.340839 -0.0175979 0)
(0.336083 -0.0204334 0)
(0.330875 -0.0238094 0)
(0.325135 -0.0278823 0)
(0.318759 -0.0328483 0)
(0.311613 -0.0389537 0)
(0.303523 -0.0465077 0)
(0.29427 -0.0558984 0)
(0.283575 -0.0676136 0)
(0.271088 -0.0822649 0)
(0.256378 -0.100621 0)
(0.238915 -0.123649 0)
(0.218077 -0.152573 0)
(0.193133 -0.188969 0)
(0.163271 -0.234981 0)
(0.127549 -0.293838 0)
(0.0849128 -0.370872 0)
(0.0352846 -0.471721 0)
(-0.0141502 -0.583901 0)
(-0.046847 -0.623686 0)
(-0.0256376 -0.374718 0)
(0.410746 -0.00423344 0)
(0.408847 -0.00545463 0)
(0.406671 -0.00674914 0)
(0.404202 -0.0081511 0)
(0.40142 -0.00970398 0)
(0.398298 -0.0114621 0)
(0.394796 -0.0134932 0)
(0.390862 -0.0158823 0)
(0.386426 -0.0187357 0)
(0.381396 -0.0221866 0)
(0.375654 -0.0264018 0)
(0.369047 -0.0315905 0)
(0.36138 -0.0380156 0)
(0.352403 -0.0460073 0)
(0.341801 -0.0559825 0)
(0.329177 -0.0684668 0)
(0.31404 -0.0841304 0)
(0.295781 -0.103828 0)
(0.273681 -0.128673 0)
(0.246874 -0.160135 0)
(0.214414 -0.200265 0)
(0.175159 -0.252163 0)
(0.127778 -0.321386 0)
(0.0711795 -0.416673 0)
(0.0102248 -0.536803 0)
(-0.040755 -0.61305 0)
(-0.0279732 -0.411654 0)
(0.474629 -0.00291271 0)
(0.473473 -0.00385172 0)
(0.472031 -0.00485244 0)
(0.470282 -0.00594255 0)
(0.468204 -0.00715742 0)
(0.465766 -0.00854119 0)
(0.462923 -0.0101489 0)
(0.459618 -0.0120493 0)
(0.455773 -0.0143284 0)
(0.451286 -0.0170935 0)
(0.44603 -0.0204792 0)
(0.439835 -0.0246535 0)
(0.432488 -0.0298279 0)
(0.423715 -0.0362676 0)
(0.413171 -0.0443091 0)
(0.400414 -0.054378 0)
(0.384901 -0.0670265 0)
(0.365935 -0.0829685 0)
(0.342699 -0.103173 0)
(0.314151 -0.128955 0)
(0.279183 -0.162256 0)
(0.236354 -0.206022 0)
(0.184203 -0.265678 0)
(0.120628 -0.351645 0)
(0.0478721 -0.474268 0)
(-0.0259137 -0.586492 0)
(-0.0260432 -0.448801 0)
(0.556812 -0.00218775 0)
(0.55606 -0.00283835 0)
(0.555025 -0.00353738 0)
(0.553686 -0.00430556 0)
(0.552017 -0.00516952 0)
(0.549986 -0.00616248 0)
(0.547544 -0.00732577 0)
(0.54463 -0.00871081 0)
(0.541161 -0.0103818 0)
(0.53703 -0.0124185 0)
(0.532101 -0.014921 0)
(0.526196 -0.0180131 0)
(0.519091 -0.0218514 0)
(0.510495 -0.0266301 0)
(0.500048 -0.0325983 0)
(0.487274 -0.0400683 0)
(0.471601 -0.0494553 0)
(0.452252 -0.0612966 0)
(0.428336 -0.0763623 0)
(0.398598 -0.0957241 0)
(0.361754 -0.121116 0)
(0.315852 -0.155253 0)
(0.259348 -0.203327 0)
(0.188992 -0.276006 0)
(0.104754 -0.393738 0)
(0.0035077 -0.537947 0)
(-0.014031 -0.478236 0)
(0.658924 -0.00166649 0)
(0.65822 -0.00204197 0)
(0.657263 -0.00245147 0)
(0.656029 -0.00290852 0)
(0.654494 -0.00343058 0)
(0.652622 -0.00403951 0)
(0.650364 -0.00476243 0)
(0.647657 -0.00563287 0)
(0.644418 -0.00669261 0)
(0.640537 -0.00799321 0)
(0.635877 -0.00959921 0)
(0.63026 -0.0115898 0)
(0.623464 -0.0140653 0)
(0.615195 -0.0171479 0)
(0.605103 -0.0209967 0)
(0.592704 -0.0258056 0)
(0.577445 -0.0318426 0)
(0.558505 -0.0394421 0)
(0.535016 -0.049126 0)
(0.505506 -0.0616026 0)
(0.468635 -0.0781991 0)
(0.421608 -0.101037 0)
(0.362735 -0.13485 0)
(0.286387 -0.18915 0)
(0.191578 -0.290762 0)
(0.0598907 -0.452905 0)
(0.0210439 -0.477357 0)
(0.780759 -0.00103594 0)