/*--------------------------------*- C++ -*----------------------------------*\
  =========                 |
  \\      /  F ield         | OpenFOAM: The Open Source CFD Toolbox
   \\    /   O peration     | Website:  https://openfoam.org
    \\  /    A nd           | Version:  9
     \\/     M anipulation  |
\*---------------------------------------------------------------------------*/
FoamFile
{
    format      ascii;
    class       volVectorField;
    location    "0.75";
    object      U;
}
// * * * * * * * * * * * * * * * * * * * * * * * * * * * * * * * * * * * * * //

dimensions      [0 1 -1 0 0 0 0];

internalField   nonuniform List<vector> 
1260
(
(-0.0972099 0.242377 0)
(-0.0993488 0.234465 0)
(-0.10136 0.22477 0)
(-0.103289 0.213614 0)
(-0.105181 0.201317 0)
(-0.107072 0.18817 0)
(-0.109004 0.174433 0)
(-0.110996 0.160285 0)
(-0.113059 0.145843 0)
(-0.115194 0.131168 0)
(-0.117387 0.116278 0)
(-0.119619 0.101159 0)
(-0.12186 0.0857822 0)
(-0.124076 0.0701194 0)
(-0.126231 0.054152 0)
(-0.128288 0.0378798 0)
(-0.130213 0.0213241 0)
(-0.131972 0.00452913 0)
(-0.133536 -0.0124401 0)
(-0.134878 -0.0295001 0)
(-0.135975 -0.046553 0)
(-0.136807 -0.0634898 0)
(-0.137357 -0.0801945 0)
(-0.137616 -0.0965476 0)
(-0.137579 -0.11243 0)
(-0.137243 -0.127735 0)
(-0.0840035 0.244413 0)
(-0.0858068 0.236396 0)
(-0.0875568 0.226633 0)
(-0.0892888 0.215447 0)
(-0.0910377 0.203157 0)
(-0.0928336 0.190053 0)
(-0.0947003 0.176378 0)
(-0.0966473 0.162304 0)
(-0.0986768 0.147937 0)
(-0.100782 0.133329 0)
(-0.102947 0.118487 0)
(-0.10515 0.103391 0)
(-0.107363 0.0880075 0)
(-0.109556 0.0723048 0)
(-0.111697 0.0562637 0)
(-0.113755 0.0398846 0)
(-0.1157 0.0231905 0)
(-0.117504 0.00622792 0)
(-0.119143 -0.0109354 0)
(-0.120591 -0.0282133 0)
(-0.121829 -0.0455049 0)
(-0.122838 -0.0626985 0)
(-0.1236 -0.0796745 0)
(-0.124101 -0.0963096 0)
(-0.124336 -0.112479 0)
(-0.124296 -0.128069 0)
(-0.070586 0.246077 0)
(-0.0720548 0.238026 0)
(-0.0735389 0.228261 0)
(-0.0750651 0.217103 0)
(-0.0766575 0.204868 0)
(-0.0783347 0.191839 0)
(-0.0801073 0.178249 0)
(-0.0819753 0.164262 0)
(-0.0839329 0.149977 0)
(-0.0859679 0.135437 0)
(-0.0880623 0.120644 0)
(-0.0901937 0.105572 0)
(-0.0923374 0.0901856 0)
(-0.0944674 0.0744517 0)
(-0.0965578 0.0583508 0)
(-0.0985832 0.0418843 0)
(-0.10052 0.0250768 0)
(-0.102345 0.00797628 0)
(-0.104037 -0.00934767 0)
(-0.105577 -0.0268073 0)
(-0.106944 -0.0443002 0)
(-0.108123 -0.0617126 0)
(-0.109095 -0.0789233 0)
(-0.109845 -0.0958059 0)
(-0.110365 -0.112233 0)
(-0.110641 -0.128083 0)
(-0.0570135 0.247371 0)
(-0.0581407 0.239356 0)
(-0.0593471 0.229652 0)
(-0.0606507 0.218574 0)
(-0.0620647 0.206434 0)
(-0.063596 0.193509 0)
(-0.0652433 0.180022 0)
(-0.0669979 0.166131 0)
(-0.0688469 0.15193 0)
(-0.0707738 0.137457 0)
(-0.0727591 0.122712 0)
(-0.0747819 0.107665 0)
(-0.0768209 0.0922813 0)
(-0.0788551 0.0765265 0)
(-0.0808644 0.0603822 0)
(-0.0828295 0.0438506 0)
(-0.0847325 0.0269575 0)
(-0.086556 0.00975189 0)
(-0.0882831 -0.00769596 0)
(-0.0898973 -0.0252977 0)
(-0.0913821 -0.0429502 0)
(-0.0927213 -0.0605392 0)
(-0.0938982 -0.0779425 0)
(-0.0948971 -0.0950324 0)
(-0.0957064 -0.111679 0)
(-0.0963116 -0.127757 0)
(-0.0433367 0.248284 0)
(-0.0441072 0.24037 0)
(-0.0450165 0.230783 0)
(-0.0460742 0.219834 0)
(-0.0472829 0.207825 0)
(-0.0486382 0.195027 0)
(-0.0501283 0.181659 0)
(-0.0517365 0.167871 0)
(-0.0534435 0.153756 0)
(-0.0552294 0.139351 0)
(-0.0570739 0.124653 0)
(-0.058958 0.109636 0)
(-0.060864 0.0942611 0)
(-0.0627762 0.0784983 0)
(-0.0646802 0.0623296 0)
(-0.0665631 0.0457581 0)
(-0.0684123 0.02881 0)
(-0.0702159 0.0115346 0)
(-0.0719613 -0.00599774 0)
(-0.0736356 -0.023699 0)
(-0.0752249 -0.0414667 0)
(-0.0767145 -0.0591868 0)
(-0.0780889 -0.0767369 0)
(-0.0793319 -0.0939892 0)
(-0.0804307 -0.110812 0)
(-0.0813694 -0.127078 0)
(-0.0296097 0.248799 0)
(-0.0300015 0.241046 0)
(-0.0305881 0.23163 0)
(-0.0313713 0.220852 0)
(-0.032344 0.209009 0)
(-0.0334916 0.196363 0)
(-0.034793 0.183127 0)
(-0.0362239 0.169451 0)
(-0.0377596 0.155426 0)
(-0.039377 0.14109 0)
(-0.0410554 0.126442 0)
(-0.0427775 0.111457 0)
(-0.0445295 0.0961016 0)
(-0.0463005 0.0803457 0)
(-0.0480817 0.0641734 0)
(-0.0498659 0.0475884 0)
(-0.0516462 0.0306173 0)
(-0.0534156 0.013309 0)
(-0.0551659 -0.0042672 0)
(-0.0568876 -0.0220243 0)
(-0.0585697 -0.0398611 0)
(-0.0601993 -0.0576647 0)
(-0.061762 -0.0753139 0)
(-0.0632421 -0.0926808 0)
(-0.0646258 -0.109634 0)
(-0.0658967 -0.126043 0)
(-0.0158907 0.248893 0)
(-0.0158763 0.241358 0)
(-0.0161095 0.232163 0)
(-0.0165856 0.2216 0)
(-0.017289 0.209955 0)
(-0.0181962 0.197485 0)
(-0.0192779 0.184397 0)
(-0.020503 0.170842 0)
(-0.0218418 0.156912 0)
(-0.0232683 0.142649 0)
(-0.0247612 0.128055 0)
(-0.0263047 0.113111 0)
(-0.0278883 0.0977863 0)
(-0.0295053 0.0820538 0)
(-0.0311522 0.0658997 0)
(-0.0328269 0.0493286 0)
(-0.0345279 0.0323671 0)
(-0.0362528 0.0150628 0)
(-0.0379975 -0.00251624 0)
(-0.0397561 -0.0202851 0)
(-0.0415203 -0.0381444 0)
(-0.0432795 -0.0559834 0)
(-0.0450206 -0.0736824 0)
(-0.0467287 -0.0911148 0)
(-0.0483899 -0.108149 0)
(-0.0499875 -0.124655 0)
(-0.00224381 0.248539 0)
(-0.00179142 0.241274 0)
(-0.00163659 0.232349 0)
(-0.00176973 0.222042 0)
(-0.00216832 0.21063 0)
(-0.00280151 0.198361 0)
(-0.00363304 0.185441 0)
(-0.00462566 0.17202 0)
(-0.00574501 0.158194 0)
(-0.00696216 0.144011 0)
(-0.00825504 0.12948 0)
(-0.00960876 0.114586 0)
(-0.0110151 0.0993048 0)
(-0.0124711 0.0836133 0)
(-0.0139774 0.0674999 0)
(-0.0155368 0.0509704 0)
(-0.0171522 0.0340507 0)
(-0.0188258 0.0167872 0)
(-0.0205574 -0.000754269 0)
(-0.0223445 -0.0184912 0)
(-0.0241817 -0.0363269 0)
(-0.0260605 -0.0541533 0)
(-0.0279699 -0.0718527 0)
(-0.029896 -0.0893004 0)
(-0.0318253 -0.106366 0)
(-0.0337414 -0.122919 0)
(0.01126 0.247704 0)
(0.0121851 0.24076 0)
(0.0127656 0.232151 0)
(0.013014 0.222142 0)
(0.0129578 0.210997 0)
(0.0126335 0.198959 0)
(0.0120829 0.186229 0)
(0.0113487 0.17296 0)
(0.0104695 0.159253 0)
(0.00947726 0.145162 0)
(0.0083955 0.130704 0)
(0.00723898 0.115874 0)
(0.00601445 0.100652 0)
(0.00472227 0.08502 0)
(0.00335835 0.0689704 0)
(0.00191625 0.0525097 0)
(0.00038876 0.0356634 0)
(-0.00123008 0.0184764 0)
(-0.00294374 0.00101184 0)
(-0.00475303 -0.0166507 0)
(-0.00665547 -0.0344177 0)
(-0.00864518 -0.0521841 0)
(-0.010713 -0.0698351 0)
(-0.0128469 -0.087248 0)
(-0.0150347 -0.104294 0)
(-0.0172598 -0.120843 0)
(0.0245431 0.246356 0)
(0.0259771 0.239777 0)
(0.0270228 0.23153 0)
(0.0276933 0.22186 0)
(0.0280189 0.211021 0)
(0.0280397 0.199245 0)
(0.0278019 0.186733 0)
(0.0273524 0.173639 0)
(0.0267339 0.16007 0)
(0.0259813 0.146089 0)
(0.0251202 0.131721 0)
(0.0241661 0.11697 0)
(0.0231253 0.101825 0)
(0.0219968 0.0862733 0)
(0.0207742 0.070311 0)
(0.019448 0.0539462 0)
(0.018008 0.0372039 0)
(0.0164447 0.0201276 0)
(0.0147514 0.00277774 0)
(0.012924 -0.0147696 0)
(0.010962 -0.0324243 0)
(0.00886881 -0.0500848 0)
(0.00665116 -0.0676395 0)
(0.0043189 -0.0849683 0)
(0.00188228 -0.101944 0)
(-0.000642105 -0.118437 0)
(0.0375208 0.244461 0)
(0.0394999 0.238289 0)
(0.0410511 0.230444 0)
(0.0421854 0.221156 0)
(0.0429337 0.210661 0)
(0.0433377 0.199185 0)
(0.0434464 0.186924 0)
(0.0433097 0.174034 0)
(0.0429737 0.160629 0)
(0.0424763 0.146779 0)
(0.0418457 0.132523 0)
(0.0410989 0.117872 0)
(0.0402431 0.102824 0)
(0.0392769 0.0873751 0)
(0.0381928 0.0715241 0)
(0.0369794 0.0552818 0)
(0.0356242 0.0386734 0)
(0.0341151 0.0217407 0)
(0.0324422 0.00454135 0)
(0.0305986 -0.0128518 0)
(0.0285809 -0.0303524 0)
(0.0263896 -0.0478626 0)
(0.0240288 -0.065274 0)
(0.021506 -0.0824699 0)
(0.0188308 -0.0993255 0)
(0.0160163 -0.115711 0)
(0.0501021 0.241985 0)
(0.0526609 0.236255 0)
(0.0547568 0.228853 0)
(0.0563968 0.219987 0)
(0.0576099 0.209879 0)
(0.0584372 0.198742 0)
(0.0589283 0.18677 0)
(0.059135 0.174119 0)
(0.0591059 0.160909 0)
(0.0588819 0.147221 0)
(0.0584938 0.133102 0)
(0.0579611 0.118576 0)
(0.0572926 0.10365 0)
(0.0564878 0.0883277 0)
(0.0555393 0.0726133 0)
(0.054435 0.0565204 0)
(0.0531609 0.0400749 0)
(0.051703 0.0233172 0)
(0.0500489 0.00630268 0)
(0.048189 -0.0108991 0)
(0.0461172 -0.0282055 0)
(0.0438311 -0.0455224 0)
(0.041332 -0.0627451 0)
(0.0386249 -0.07976 0)
(0.0357175 -0.0964452 0)
(0.0326205 -0.112674 0)
(0.0621914 0.2389 0)
(0.0653604 0.233641 0)
(0.0680379 0.226717 0)
(0.0702242 0.218312 0)
(0.0719442 0.208631 0)
(0.073236 0.197877 0)
(0.0741478 0.186235 0)
(0.0747317 0.173865 0)
(0.0750377 0.160889 0)
(0.075109 0.147397 0)
(0.0749792 0.133448 0)
(0.0746706 0.119077 0)
(0.0741946 0.104301 0)
(0.0735526 0.0891327 0)
(0.0727383 0.0735818 0)
(0.0717401 0.0576658 0)
(0.0705434 0.041412 0)
(0.0691331 0.0248601 0)
(0.0674949 0.0080635 0)
(0.0656171 -0.00891122 0)
(0.0634909 -0.0259851 0)
(0.0611112 -0.0430674 0)
(0.0584764 -0.0600573 0)
(0.0555886 -0.0768445 0)
(0.0524536 -0.0933107 0)
(0.0490796 -0.109332 0)
(0.0736908 0.235182 0)
(0.0774942 0.230415 0)
(0.0807852 0.223997 0)
(0.0835554 0.216089 0)
(0.0858228 0.206877 0)
(0.0876204 0.196549 0)
(0.0889929 0.185283 0)
(0.0899907 0.173238 0)
(0.0906637 0.160539 0)
(0.0910569 0.147286 0)
(0.091206 0.133546 0)
(0.0911364 0.119365 0)
(0.0908625 0.104773 0)
(0.0903884 0.0897888 0)
(0.0897099 0.074431 0)
(0.0888168 0.0587211 0)
(0.0876951 0.0426884 0)
(0.0863291 0.026373 0)
(0.0847037 0.00982672 0)
(0.0828051 -0.00688629 0)
(0.0806226 -0.0236903 0)
(0.0781485 -0.0404981 0)
(0.0753783 -0.0572124 0)
(0.0723116 -0.0737265 0)
(0.0689513 -0.0899259 0)
(0.0653039 -0.105689 0)
(0.0845024 0.230814 0)
(0.088956 0.226552 0)
(0.0928854 0.220662 0)
(0.0962712 0.213281 0)
(0.099123 0.204575 0)
(0.101466 0.194716 0)
(0.103339 0.183874 0)
(0.10479 0.172202 0)
(0.105865 0.15983 0)
(0.106611 0.146861 0)
(0.107065 0.133375 0)
(0.107255 0.119426 0)
(0.107198 0.105055 0)
(0.106902 0.0902907 0)
(0.106365 0.0751591 0)
(0.105579 0.0596868 0)
(0.104532 0.0439064 0)
(0.103209 0.0278589 0)
(0.101594 0.0115955 0)
(0.0996716 -0.00482158 0)
(0.09743 -0.0213192 0)
(0.0948593 -0.0378134 0)
(0.0919525 -0.0542103 0)
(0.0887065 -0.0704071 0)
(0.0851219 -0.0862928 0)
(0.0812034 -0.101751 0)
(0.0945341 0.225793 0)
(0.0996421 0.222036 0)
(0.104224 0.216687 0)
(0.108249 0.209857 0)
(0.111716 0.20169 0)
(0.11464 0.192341 0)
(0.117052 0.181969 0)
(0.118994 0.17072 0)
(0.120509 0.158726 0)
(0.121643 0.146093 0)
(0.122432 0.132909 0)
(0.122906 0.119239 0)
(0.123087 0.105132 0)
(0.122984 0.0906279 0)
(0.1226 0.0757596 0)
(0.121929 0.0605601 0)
(0.12096 0.0450656 0)
(0.11968 0.0293191 0)
(0.118075 0.013372 0)
(0.116127 -0.00271459 0)
(0.113823 -0.0188692 0)
(0.111153 -0.035011 0)
(0.108108 -0.0510497 0)
(0.104681 -0.0668858 0)
(0.100873 -0.0824129 0)
(0.0966848 -0.0975184 0)
(0.0921249 -0.112087 0)
(0.0872051 -0.126005 0)
(0.0819413 -0.139156 0)
(0.10369 0.220122 0)
(0.10945 0.216863 0)
(0.11469 0.212057 0)
(0.119368 0.205794 0)
(0.123471 0.198191 0)
(0.127005 0.189388 0)
(0.129989 0.179529 0)
(0.132458 0.168754 0)
(0.134451 0.157189 0)
(0.136007 0.144947 0)
(0.137165 0.132118 0)
(0.137955 0.118778 0)
(0.138398 0.104984 0)
(0.13851 0.0907845 0)
(0.138294 0.0762213 0)
(0.13775 0.0613335 0)
(0.136867 0.046162 0)
(0.135636 0.0307525 0)
(0.134041 0.0151574 0)
(0.132067 -0.000562728 0)
(0.129702 -0.0163373 0)
(0.126931 -0.0320884 0)
(0.123745 -0.0477285 0)
(0.120137 -0.063162 0)
(0.116104 -0.0782862 0)
(0.111648 -0.0929937 0)
(0.106775 -0.107174 0)
(0.101497 -0.120716 0)
(0.0958304 -0.133512 0)
(0.11191 0.21382 0)
(0.118296 0.211039 0)
(0.124182 0.206771 0)
(0.129512 0.201078 0)
(0.134262 0.194058 0)
(0.138423 0.18583 0)
(0.142005 0.176523 0)
(0.145032 0.166267 0)
(0.147535 0.155184 0)
(0.14955 0.143387 0)
(0.151111 0.130969 0)
(0.152248 0.118013 0)
(0.152985 0.104584 0)
(0.153336 0.090739 0)
(0.153311 0.0765273 0)
(0.152909 0.0619947 0)
(0.152125 0.0471872 0)
(0.150951 0.0321538 0)
(0.149373 0.016949 0)
(0.147377 0.00163378 0)
(0.144951 -0.0137229 0)
(0.142079 -0.0290445 0)
(0.138753 -0.044246 0)
(0.134964 -0.0592355 0)
(0.13071 -0.0739145 0)
(0.125989 -0.0881803 0)
(0.120809 -0.101928 0)
(0.115181 -0.115052 0)
(0.109123 -0.127451 0)
(0.119137 0.206922 0)
(0.126111 0.20459 0)
(0.132615 0.200841 0)
(0.138582 0.195714 0)
(0.143972 0.189284 0)
(0.148765 0.18165 0)
(0.152959 0.172926 0)
(0.156565 0.16323 0)
(0.159606 0.152678 0)
(0.16211 0.141378 0)
(0.164106 0.129428 0)
(0.165623 0.116912 0)
(0.166683 0.103903 0)
(0.167303 0.0904659 0)
(0.167492 0.0766561 0)
(0.167255 0.0625263 0)
(0.166588 0.0481277 0)
(0.165485 0.0335133 0)
(0.163934 0.0187398 0)
(0.161924 0.00386944 0)
(0.159442 -0.0110295 0)
(0.156475 -0.0258816 0)
(0.153012 -0.0406044 0)
(0.149048 -0.0551092 0)
(0.144576 -0.0693019 0)
(0.139599 -0.0830848 0)
(0.134121 -0.0963583 0)
(0.128157 -0.109024 0)
(0.121725 -0.120986 0)
(0.125339 0.199481 0)
(0.132847 0.197559 0)
(0.139926 0.194298 0)
(0.146495 0.18972 0)
(0.152504 0.183876 0)
(0.157919 0.176847 0)
(0.162723 0.168728 0)
(0.166917 0.159625 0)
(0.170511 0.149645 0)
(0.173527 0.138892 0)
(0.175986 0.127462 0)
(0.177911 0.115443 0)
(0.179325 0.102911 0)
(0.180242 0.0899367 0)
(0.180673 0.0765825 0)
(0.180625 0.0629065 0)
(0.180096 0.0489653 0)
(0.179082 0.0348159 0)
(0.177574 0.0205179 0)
(0.175562 0.00613484 0)
(0.173036 -0.00826465 0)
(0.169983 -0.0226065 0)
(0.166394 -0.0368103 0)
(0.162263 -0.0507906 0)
(0.157586 -0.0644574 0)
(0.152364 -0.0777183 0)
(0.146606 -0.0904797 0)
(0.140325 -0.10265 0)
(0.13354 -0.11414 0)
(0.130504 0.19156 0)
(0.138481 0.19 0)
(0.146075 0.18719 0)
(0.153197 0.183132 0)
(0.159785 0.177859 0)
(0.165793 0.171433 0)
(0.17119 0.163931 0)
(0.175965 0.155445 0)
(0.180117 0.146072 0)
(0.183655 0.135909 0)
(0.186593 0.125048 0)
(0.18895 0.113578 0)
(0.190742 0.101579 0)
(0.191983 0.0891233 0)
(0.192684 0.0762794 0)
(0.19285 0.0631105 0)
(0.192483 0.0496779 0)
(0.19158 0.0360424 0)
(0.190136 0.0222664 0)
(0.188141 0.00841517 0)
(0.185587 -0.00544205 0)
(0.182464 -0.0192322 0)
(0.178765 -0.0328769 0)
(0.174484 -0.0462936 0)
(0.16962 -0.0593968 0)
(0.164176 -0.0720991 0)
(0.15816 -0.084313 0)
(0.151587 -0.0959536 0)
(0.144482 -0.10694 0)
(0.134651 0.183234 0)
(0.143018 0.181983 0)
(0.151055 0.179578 0)
(0.158664 0.176004 0)
(0.165775 0.171277 0)
(0.17233 0.16544 0)
(0.178286 0.158556 0)
(0.183618 0.1507 0)
(0.188314 0.141958 0)
(0.192371 0.132419 0)
(0.195794 0.12217 0)
(0.198595 0.111298 0)
(0.200782 0.0998827 0)
(0.202369 0.0879999 0)
(0.203362 0.0757208 0)
(0.203768 0.0631126 0)
(0.203588 0.0502407 0)
(0.202822 0.0371692 0)
(0.201464 0.0239631 0)
(0.199511 0.0106894 0)
(0.196952 -0.00258289 0)
(0.193782 -0.0157794 0)
(0.189996 -0.0288247 0)
(0.185591 -0.04164 0)
(0.180567 -0.0541435 0)
(0.174928 -0.0662531 0)
(0.168686 -0.0778875 0)
(0.161858 -0.0889686 0)
(0.15447 -0.0994237 0)
(0.13782 0.174586 0)
(0.146493 0.173591 0)
(0.154889 0.171539 0)
(0.162907 0.168404 0)
(0.17047 0.164189 0)
(0.177509 0.158918 0)
(0.183972 0.15264 0)
(0.189821 0.145416 0)
(0.19503 0.137319 0)
(0.199587 0.128429 0)
(0.203487 0.118826 0)
(0.20673 0.108592 0)
(0.209321 0.097807 0)
(0.211266 0.0865466 0)
(0.21257 0.0748836 0)
(0.213237 0.0628881 0)
(0.213268 0.050628 0)
(0.212664 0.0381704 0)
(0.21142 0.0255824 0)
(0.209534 0.012932 0)
(0.207 0.000288843 0)
(0.203814 -0.0122733 0)
(0.199972 -0.0246815 0)
(0.195475 -0.0368594 0)
(0.190324 -0.0487298 0)
(0.184529 -0.0602155 0)
(0.178103 -0.0712414 0)
(0.171064 -0.0817364 0)
(0.163441 -0.0916353 0)
(0.14008 0.165704 0)
(0.148968 0.16491 0)
(0.157633 0.163159 0)
(0.165973 0.160415 0)
(0.173904 0.156668 0)
(0.181352 0.151933 0)
(0.188254 0.14624 0)
(0.194562 0.139639 0)
(0.200239 0.132189 0)
(0.20526 0.12396 0)
(0.209611 0.115027 0)
(0.213283 0.105463 0)
(0.216273 0.0953468 0)
(0.21858 0.0847517 0)
(0.220204 0.073751 0)
(0.221148 0.0624159 0)
(0.221411 0.0508158 0)
(0.220993 0.0390195 0)
(0.219891 0.0270955 0)
(0.218102 0.0151128 0)
(0.215625 0.00314145 0)
(0.212457 -0.00874774 0)
(0.208597 -0.0204829 0)
(0.204048 -0.0319902 0)
(0.198815 -0.0431965 0)
(0.19291 -0.0540301 0)
(0.186348 -0.064422 0)
(0.179152 -0.0743077 0)
(0.171351 -0.0836297 0)
(0.141516 0.156678 0)
(0.15053 0.156032 0)
(0.159373 0.154528 0)
(0.167941 0.152124 0)
(0.176151 0.148802 0)
(0.183922 0.144562 0)
(0.191184 0.139425 0)
(0.19788 0.133427 0)
(0.203963 0.126616 0)
(0.209399 0.119052 0)
(0.214162 0.1108 0)
(0.218234 0.101928 0)
(0.221603 0.0925089 0)
(0.224263 0.0826137 0)
(0.226209 0.072314 0)
(0.227438 0.0616806 0)
(0.227948 0.0507833 0)
(0.227736 0.0396912 0)
(0.226802 0.0284733 0)
(0.225142 0.0171985 0)
(0.222757 0.00593649 0)
(0.219645 -0.00524312 0)
(0.215809 -0.0162717 0)
(0.211254 -0.0270776 0)
(0.20599 -0.0375923 0)
(0.200028 -0.0477491 0)
(0.193388 -0.0574848 0)
(0.186096 -0.0667419 0)
(0.178183 -0.0754697 0)
(0.142231 0.147593 0)
(0.151287 0.147048 0)
(0.160217 0.145741 0)
(0.168922 0.143627 0)
(0.177318 0.14068 0)
(0.18532 0.136893 0)
(0.192856 0.132275 0)
(0.199859 0.126853 0)
(0.206276 0.120664 0)
(0.212063 0.113757 0)
(0.217185 0.106187 0)
(0.221616 0.0980174 0)
(0.225335 0.0893133 0)
(0.228328 0.0801424 0)
(0.230585 0.0705732 0)
(0.232098 0.0606746 0)
(0.232863 0.0505153 0)
(0.232874 0.0401637 0)
(0.23213 0.029688 0)
(0.230628 0.0191563 0)
(0.22837 0.00863665 0)
(0.225355 -0.00180396 0)
(0.221588 -0.012095 0)
(0.217078 -0.0221725 0)
(0.211836 -0.0319719 0)
(0.205877 -0.0414311 0)
(0.199223 -0.0504928 0)
(0.191902 -0.0591055 0)
(0.183948 -0.0672259 0)
(0.142339 0.138526 0)
(0.15136 0.138042 0)
(0.160295 0.136887 0)
(0.169049 0.135014 0)
(0.177539 0.132395 0)
(0.185683 0.129016 0)
(0.193402 0.124879 0)
(0.200627 0.119999 0)
(0.207299 0.114406 0)
(0.213366 0.108137 0)
(0.218785 0.101241 0)
(0.223521 0.0937732 0)
(0.227548 0.0857915 0)
(0.230844 0.0773586 0)
(0.233392 0.0685391 0)
(0.23518 0.0593987 0)
(0.236199 0.0500037 0)
(0.236442 0.0404206 0)
(0.235906 0.0307158 0)
(0.234588 0.0209557 0)
(0.232488 0.0112062 0)
(0.229612 0.00153208 0)
(0.225963 -0.00799956 0)
(0.221549 -0.0173284 0)
(0.216386 -0.0263942 0)
(0.210493 -0.0351399 0)
(0.203893 -0.043514 0)
(0.196616 -0.0514713 0)
(0.188698 -0.0589752 0)
(0.141956 0.129545 0)
(0.150877 0.129088 0)
(0.159745 0.128046 0)
(0.168469 0.126373 0)
(0.176971 0.124038 0)
(0.185169 0.121023 0)
(0.192985 0.117324 0)
(0.200348 0.112949 0)
(0.207193 0.107919 0)
(0.213464 0.102264 0)
(0.219111 0.0960251 0)
(0.224095 0.0892478 0)
(0.228379 0.081985 0)
(0.231938 0.0742931 0)
(0.234748 0.0662317 0)
(0.236793 0.0578624 0)
(0.238059 0.0492479 0)
(0.238537 0.0404517 0)
(0.238221 0.0315376 0)
(0.237108 0.0225693 0)
(0.235199 0.01361 0)
(0.232496 0.00472247 0)
(0.229008 -0.00403457 0)
(0.224743 -0.0126007 0)
(0.219719 -0.0209204 0)
(0.213957 -0.0289424 0)
(0.207482 -0.0366208 0)
(0.200326 -0.0439167 0)
(0.192527 -0.0508 0)
(0.141198 0.120704 0)
(0.149969 0.12025 0)
(0.15871 0.11929 0)
(0.167338 0.11778 0)
(0.17578 0.115688 0)
(0.183955 0.112996 0)
(0.191789 0.109694 0)
(0.199209 0.105785 0)
(0.206149 0.101283 0)
(0.212549 0.0962121 0)
(0.218356 0.0906043 0)
(0.223524 0.0844991 0)
(0.228012 0.0779422 0)
(0.231789 0.0709841 0)
(0.234827 0.0636786 0)
(0.237103 0.0560825 0)
(0.238602 0.0482542 0)
(0.239311 0.0402533 0)
(0.239222 0.0321398 0)
(0.23833 0.0239738 0)
(0.236636 0.015815 0)
(0.234143 0.00772173 0)
(0.230858 -0.000249873 0)
(0.226794 -0.008045 0)
(0.221968 -0.0156129 0)
(0.216403 -0.0229075 0)
(0.210126 -0.0298885 0)
(0.203172 -0.036523 0)
(0.195579 -0.0427872 0)
(0.140178 0.112042 0)
(0.148761 0.111575 0)
(0.157331 0.110673 0)
(0.165812 0.109296 0)
(0.174134 0.107415 0)
(0.182224 0.105008 0)
(0.190008 0.102064 0)
(0.197415 0.0985829 0)
(0.20438 0.0945728 0)
(0.21084 0.0900516 0)
(0.216741 0.085045 0)
(0.222032 0.0795862 0)
(0.22667 0.0737144 0)
(0.230618 0.0674737 0)
(0.233845 0.0609123 0)
(0.236326 0.0540815 0)
(0.238039 0.0470348 0)
(0.238971 0.039827 0)
(0.239111 0.0325137 0)
(0.238453 0.0251508 0)
(0.236997 0.0177934 0)
(0.234745 0.0104956 0)
(0.231707 0.0033093 0)
(0.227894 -0.00371603 0)
(0.223326 -0.0105347 0)
(0.218027 -0.017106 0)
(0.212026 -0.0233953 0)
(0.205357 -0.0293756 0)
(0.198062 -0.0350292 0)
(0.139003 0.103586 0)
(0.147378 0.103095 0)
(0.155748 0.102236 0)
(0.164046 0.10097 0)
(0.172207 0.0992711 0)
(0.180162 0.0971176 0)
(0.187843 0.0944979 0)
(0.195181 0.0914082 0)
(0.202111 0.0878534 0)
(0.208572 0.0838466 0)
(0.214509 0.0794081 0)
(0.219869 0.0745653 0)
(0.224607 0.0693512 0)
(0.228684 0.0638041 0)
(0.232065 0.0579664 0)
(0.234722 0.0518837 0)
(0.236633 0.045604 0)
(0.237779 0.039177 0)
(0.23815 0.0326534 0)
(0.237738 0.0260839 0)
(0.236542 0.0195189 0)
(0.234565 0.0130074 0)
(0.231816 0.00659654 0)
(0.228308 0.000330307 0)
(0.224061 -0.00575102 0)
(0.219101 -0.0116121 0)
(0.213456 -0.017224 0)
(0.207163 -0.0225653 0)
(0.200264 -0.0276242 0)
(0.137792 0.0953455 0)
(0.14595 0.0948295 0)
(0.154108 0.0940026 0)
(0.162203 0.0928326 0)
(0.170177 0.0912942 0)
(0.177967 0.0893681 0)
(0.185508 0.0870421 0)
(0.192736 0.0843111 0)
(0.199588 0.0811772 0)
(0.206006 0.0776497 0)
(0.211935 0.0737445 0)
(0.217321 0.0694839 0)
(0.222121 0.0648957 0)
(0.226291 0.0600123 0)
(0.229798 0.0548706 0)
(0.232611 0.0495103 0)
(0.234706 0.043974 0)
(0.236064 0.0383059 0)
(0.236672 0.0325511 0)
(0.236523 0.026755 0)
(0.235615 0.0209627 0)
(0.233951 0.0152178 0)
(0.23154 0.00956192 0)
(0.228396 0.00403377 0)
(0.224541 -0.00133197 0)
(0.219998 -0.00650581 0)
(0.2148 -0.0114638 0)
(0.208982 -0.0161902 0)
(0.202587 -0.0206782 0)
(0.1367 0.0873197 0)
(0.144648 0.0867797 0)
(0.152595 0.0859815 0)
(0.160484 0.084897 0)
(0.168264 0.0835036 0)
(0.175875 0.081784 0)
(0.183259 0.0797263 0)
(0.190355 0.0773248 0)
(0.197106 0.0745796 0)
(0.203455 0.0714973 0)
(0.209348 0.0680902 0)
(0.214736 0.0643763 0)
(0.219573 0.0603783 0)
(0.223819 0.0561238 0)
(0.227437 0.051644 0)
(0.230398 0.0469732 0)
(0.232678 0.0421483 0)
(0.234256 0.0372077 0)
(0.23512 0.0321909 0)
(0.235262 0.0271379 0)
(0.234681 0.0220878 0)
(0.233379 0.0170788 0)
(0.231367 0.0121469 0)
(0.228659 0.0073251 0)
(0.225275 0.00264274 0)
(0.221243 -0.00187593 0)
(0.216592 -0.00621323 0)
(0.211357 -0.0103573 0)
(0.205581 -0.014306 0)
(0.135987 0.0794933 0)
(0.143745 0.0789346 0)
(0.151499 0.0781649 0)
(0.159197 0.0771601 0)
(0.166793 0.0759005 0)
(0.174232 0.0743707 0)
(0.181462 0.0725597 0)
(0.188428 0.0704615 0)
(0.195075 0.0680753 0)
(0.201351 0.0654053 0)
(0.207205 0.062461 0)
(0.212591 0.0592566 0)
(0.217466 0.0558106 0)
(0.221789 0.0521459 0)
(0.225527 0.0482885 0)
(0.22865 0.0442673 0)
(0.231134 0.0401138 0)
(0.232962 0.0358607 0)
(0.234119 0.0315418 0)
(0.234599 0.0271913 0)
(0.234401 0.0228427 0)
(0.233529 0.0185284 0)
(0.231991 0.0142788 0)
(0.229805 0.0101214 0)
(0.226989 0.00608029 0)
(0.223569 0.00217476 0)
(0.219576 -0.00158218 0)
(0.215044 -0.00518382 0)
(0.210011 -0.0086311 0)
(0.136143 0.071838 0)
(0.143748 0.0712675 0)
(0.151343 0.0705285 0)
(0.158883 0.0696002 0)
(0.166325 0.068466 0)
(0.173622 0.0671121 0)
(0.180724 0.0655288 0)
(0.187584 0.0637101 0)
(0.194151 0.0616545 0)
(0.200377 0.0593646 0)
(0.206216 0.0568473 0)
(0.211625 0.0541138 0)
(0.216564 0.0511788 0)
(0.220995 0.0480607 0)
(0.224886 0.0447809 0)
(0.228212 0.0413634 0)
(0.230948 0.0378342 0)
(0.233078 0.0342205 0)
(0.23459 0.0305507 0)
(0.235478 0.0268532 0)
(0.23574 0.023156 0)
(0.235383 0.0194858 0)
(0.234415 0.0158679 0)
(0.232851 0.0123244 0)
(0.230711 0.00887437 0)
(0.22802 0.0055325 0)
(0.224805 0.00230871 0)
(0.221097 -0.000794542 0)
(0.216933 -0.00378158 0)
(0.138095 0.0643091 0)
(0.145601 0.0637344 0)
(0.153092 0.0630289 0)
(0.160526 0.0621753 0)
(0.167867 0.0611591 0)
(0.175073 0.0599687 0)
(0.182101 0.0585952 0)
(0.188905 0.057033 0)
(0.195442 0.05528 0)
(0.20167 0.0533375 0)
(0.207546 0.0512105 0)
(0.213032 0.0489072 0)
(0.218091 0.0464393 0)
(0.222689 0.043821 0)
(0.226798 0.0410696 0)
(0.230392 0.0382042 0)
(0.233453 0.0352459 0)
(0.235963 0.0322169 0)
(0.237914 0.0291402 0)
(0.239299 0.0260389 0)
(0.240118 0.0229357 0)
(0.240376 0.0198524 0)
(0.240083 0.016809 0)
(0.239252 0.0138231 0)
(0.237901 0.0109095 0)
(0.236053 0.00807882 0)
(0.233732 0.0053374 0)
(0.230967 0.00268608 0)
(0.227788 0.00011788 0)
(0.143515 0.0568423 0)
(0.150995 0.0562709 0)
(0.158456 0.055602 0)
(0.165859 0.0548211 0)
(0.173173 0.053916 0)
(0.180362 0.0528765 0)
(0.187388 0.0516949 0)
(0.194211 0.0503659 0)
(0.200794 0.0488869 0)
(0.207098 0.0472584 0)
(0.213087 0.0454834 0)
(0.218727 0.0435679 0)
(0.223984 0.0415205 0)
(0.228831 0.0393521 0)
(0.23324 0.0370761 0)
(0.23719 0.0347073 0)
(0.240663 0.0322624 0)
(0.243646 0.0297588 0)
(0.246129 0.0272148 0)
(0.248108 0.0246488 0)
(0.249582 0.0220786 0)
(0.250556 0.0195214 0)
(0.251038 0.0169928 0)
(0.25104 0.0145066 0)
(0.250578 0.0120736 0)
(0.249671 0.00970163 0)
(0.24834 0.00739418 0)
(0.246608 0.00515016 0)
(0.244501 0.00296195 0)
(0.1552 0.0493527 0)
(0.162746 0.0487924 0)
(0.170265 0.0481635 0)
(0.177725 0.0474536 0)
(0.185099 0.0466526 0)
(0.192357 0.0457517 0)
(0.199466 0.0447441 0)
(0.206393 0.0436248 0)
(0.213105 0.0423911 0)
(0.219569 0.0410425 0)
(0.225754 0.0395805 0)
(0.23163 0.0380093 0)
(0.237169 0.0363349 0)
(0.242345 0.0345652 0)
(0.247137 0.0327102 0)
(0.251524 0.0307813 0)
(0.255491 0.0287909 0)
(0.259025 0.0267526 0)
(0.262119 0.0246803 0)
(0.264768 0.0225883 0)
(0.266971 0.0204904 0)
(0.268732 0.0183998 0)
(0.270057 0.0163284 0)
(0.270955 0.0142865 0)
(0.27144 0.0122821 0)
(0.271526 0.0103206 0)
(0.27123 0.00840355 0)
(0.27057 0.00652872 0)
(0.269567 0.00468792 0)
(0.177462 0.0417426 0)
(0.185159 0.0412039 0)
(0.19282 0.0406203 0)
(0.200416 0.0399819 0)
(0.207927 0.0392799 0)
(0.215327 0.0385069 0)
(0.222589 0.037657 0)
(0.229686 0.0367255 0)
(0.23659 0.0357097 0)
(0.243275 0.0346084 0)
(0.249713 0.0334222 0)
(0.255879 0.0321535 0)
(0.26175 0.0308062 0)
(0.267302 0.0293861 0)
(0.272518 0.0279001 0)
(0.27738 0.0263565 0)
(0.281874 0.0247647 0)
(0.285988 0.0231347 0)
(0.289715 0.021477 0)
(0.29305 0.0198023 0)
(0.295992 0.0181209 0)
(0.298542 0.0164429 0)
(0.300705 0.0147771 0)
(0.302486 0.0131311 0)
(0.303896 0.0115106 0)
(0.304946 0.00991913 0)
(0.305647 0.00835699 0)
(0.306013 0.00682136 0)
(0.306058 0.00530406 0)
(0.216339 0.0339318 0)
(0.224227 0.0334304 0)
(0.232061 0.032903 0)
(0.23982 0.0323413 0)
(0.247486 0.0317379 0)
(0.255041 0.0310869 0)
(0.262463 0.0303829 0)
(0.269731 0.0296222 0)
(0.276822 0.0288018 0)
(0.283715 0.0279204 0)
(0.290387 0.0269777 0)
(0.296817 0.025975 0)
(0.302986 0.0249148 0)
(0.308874 0.0238009 0)
(0.314466 0.0226381 0)
(0.319745 0.0214324 0)
(0.3247 0.0201903 0)
(0.329319 0.0189191 0)
(0.333597 0.0176266 0)
(0.337526 0.0163206 0)
(0.341105 0.0150087 0)
(0.344333 0.0136982 0)
(0.347213 0.0123956 0)
(0.349748 0.0111064 0)
(0.351944 0.00983438 0)
(0.353809 0.00858172 0)
(0.355351 0.00734795 0)
(0.356578 0.00613012 0)
(0.3575 0.00492057 0)
(0.2794 0.0259204 0)
(0.287391 0.0254802 0)
(0.295303 0.0250272 0)
(0.303122 0.024555 0)
(0.310834 0.0240575 0)
(0.318427 0.0235299 0)
(0.325885 0.0229681 0)
(0.333191 0.0223688 0)
(0.340329 0.0217294 0)
(0.34728 0.0210486 0)
(0.354027 0.0203258 0)
(0.360554 0.0195617 0)
(0.366844 0.0187576 0)
(0.372881 0.017916 0)
(0.378651 0.0170403 0)
(0.384142 0.0161344 0)
(0.389341 0.0152031 0)
(0.39424 0.0142515 0)
(0.398831 0.013285 0)
(0.403108 0.0123093 0)
(0.407069 0.0113297 0)
(0.410711 0.0103515 0)
(0.414035 0.00937918 0)
(0.417043 0.00841655 0)
(0.419739 0.0074661 0)
(0.422126 0.00652889 0)
(0.424211 0.00560395 0)
(0.425996 0.00468847 0)
(0.42749 0.00377588 0)
(0.374793 0.0178779 0)
(0.382567 0.0175293 0)
(0.390238 0.0171758 0)
(0.397792 0.0168127 0)
(0.405223 0.0164355 0)
(0.412523 0.0160407 0)
(0.41968 0.015625 0)
(0.426683 0.0151862 0)
(0.433519 0.0147223 0)
(0.440175 0.0142321 0)
(0.446638 0.0137152 0)
(0.452894 0.0131719 0)
(0.45893 0.012603 0)
(0.464733 0.0120102 0)
(0.470292 0.0113957 0)
(0.475596 0.0107621 0)
(0.480635 0.0101127 0)
(0.4854 0.00945106 0)
(0.489887 0.00878078 0)
(0.494088 0.0081057 0)
(0.498001 0.00742952 0)
(0.501625 0.00675572 0)
(0.504957 0.00608733 0)
(0.508 0.00542674 0)
(0.510756 0.00477546 0)
(0.513227 0.0041338 0)
(0.515417 0.00350042 0)
(0.517327 0.00287223 0)
(0.518965 0.00224456 0)
(0.509191 0.0102264 0)
(0.516098 0.00999874 0)
(0.522886 0.00976934 0)
(0.529545 0.00953539 0)
(0.536072 0.00929412 0)
(0.542462 0.00904313 0)
(0.548707 0.00878057 0)
(0.5548 0.00850497 0)
(0.560732 0.00821524 0)
(0.566492 0.00791072 0)
(0.572071 0.00759119 0)
(0.577458 0.00725688 0)
(0.582644 0.00690845 0)
(0.587618 0.00654698 0)
(0.592372 0.00617391 0)
(0.596897 0.00579101 0)
(0.601185 0.00540029 0)
(0.60523 0.00500398 0)
(0.609027 0.00460439 0)
(0.612573 0.00420386 0)
(0.615864 0.00380462 0)
(0.6189 0.00340874 0)
(0.62168 0.00301794 0)
(0.624207 0.00263352 0)
(0.626482 0.00225624 0)
(0.628508 0.00188603 0)
(0.630287 0.00152197 0)
(0.631821 0.00115992 0)
(0.633116 0.000796973 0)
(0.684282 0.00387002 0)
(0.689319 0.00377148 0)
(0.694249 0.00367128 0)
(0.699065 0.00356845 0)
(0.703764 0.00346188 0)
(0.708345 0.00335052 0)
(0.712801 0.0032336 0)
(0.717127 0.00311061 0)
(0.721316 0.00298124 0)
(0.725362 0.00284536 0)
(0.729258 0.00270307 0)
(0.732995 0.00255467 0)
(0.736567 0.00240066 0)
(0.739967 0.00224174 0)
(0.743188 0.00207873 0)
(0.746226 0.00191263 0)
(0.749075 0.00174448 0)
(0.751732 0.00157543 0)
(0.754195 0.0014066 0)
(0.756461 0.0012391 0)
(0.75853 0.00107392 0)
(0.760403 0.000911954 0)
(0.762082 0.000753771 0)
(0.76357 0.000599848 0)
(0.764868 0.000449941 0)
(0.765981 0.000304344 0)
(0.766908 0.000161745 0)
(0.767655 2.45928e-05 0)
(0.768225 -0.000113374 0)
(0.891801 0.000581992 0)
(0.89378 0.00056421 0)
(0.895709 0.000545365 0)
(0.897582 0.000525376 0)
(0.899397 0.00050408 0)
(0.901152 0.000481279 0)
(0.902845 0.000456848 0)
(0.904471 0.000430746 0)
(0.906027 0.000402991 0)
(0.907509 0.000373648 0)
(0.908913 0.000342832 0)
(0.910237 0.000310713 0)
(0.911476 0.000277505 0)
(0.912629 0.000243461 0)
(0.913692 0.000208865 0)
(0.914665 0.000174024 0)
(0.915545 0.000139252 0)
(0.916333 0.000104868 0)
(0.91703 7.11682e-05 0)
(0.917634 3.84368e-05 0)
(0.918149 6.88077e-06 0)
(0.918577 -2.32879e-05 0)
(0.918919 -5.20802e-05 0)
(0.919178 -7.93365e-05 0)
(0.919357 -0.000105608 0)
(0.919459 -0.000130333 0)
(0.919487 -0.000154973 0)
(0.919443 -0.000174966 0)