/*--------------------------------*- C++ -*----------------------------------*\
  =========                 |
  \\      /  F ield         | OpenFOAM: The Open Source CFD Toolbox
   \\    /   O peration     | Website:  https://openfoam.org
    \\  /    A nd           | Version:  9
     \\/     M anipulation  |
\*---------------------------------------------------------------------------*/
FoamFile
{
    format      ascii;
    class       volScalarField;
    location    "1";
    object      p;
}
// * * * * * * * * * * * * * * * * * * * * * * * * * * * * * * * * * * * * * //

dimensions      [0 2 -2 0 0 0 0];

internalField   nonuniform List<scalar> 
1250
(
-0.000129106
-0.000113353
-9.50042e-05
-7.39117e-05
-4.99383e-05
-2.29617e-05
7.12128e-06
4.03908e-05
7.69e-05
0.000116671
0.000159689
0.000205901
0.000255207
0.000307457
0.00036245
0.000419924
0.00047956
0.000540978
0.000603734
0.000667324
0.000731186
0.000794704
0.000857211
0.000918003
0.000976343
0.00103147
0.00108264
0.00112908
0.00117006
0.00120491
0.00123298
0.00125373
0.00126668
-0.000105045
-8.96679e-05
-7.18003e-05
-5.13046e-05
-2.80541e-05
-1.93605e-06
2.71432e-05
5.9255e-05
9.44444e-05
0.000132726
0.00017408
0.000218448
0.000265726
0.000315764
0.000368362
0.000423263
0.000480157
0.000538672
0.000598383
0.000658806
0.000719401
0.000779579
0.000838707
0.000896116
0.000951107
0.00100297
0.00105098
0.00109443
0.00113264
0.00116497
0.00119082
0.00120968
0.00122111
-8.81571e-05
-7.32624e-05
-5.59564e-05
-3.61045e-05
-1.35843e-05
1.17129e-05
3.98773e-05
7.09776e-05
0.000105057
0.000142129
0.000182173
0.000225131
0.000270903
0.000319339
0.000370246
0.000423372
0.000478413
0.000535013
0.000592753
0.000651161
0.000709715
0.000767842
0.000824926
0.000880318
0.000933338
0.000983294
0.00102949
0.00107123
0.00110787
0.00113877
0.00116336
0.00118115
0.00119172
-7.49968e-05
-6.07264e-05
-4.41133e-05
-2.50215e-05
-3.3288e-06
2.1073e-05
4.82751e-05
7.83475e-05
0.000111336
0.000147257
0.000186093
0.000227792
0.000272257
0.000319347
0.000368874
0.000420597
0.000474217
0.00052939
0.000585703
0.000642698
0.000699861
0.000756629
0.000812397
0.000866523
0.000918338
0.000967157
0.00101229
0.00105306
0.00108881
0.00111891
0.00114281
0.00115999
0.00117007
-6.4603e-05
-5.11115e-05
-3.53421e-05
-1.71536e-05
3.57946e-06
2.69678e-05
5.31063e-05
8.207e-05
0.00011391
0.000148649
0.000186278
0.00022675
0.000269978
0.000315831
0.000364129
0.00041464
0.000467077
0.000521102
0.000576313
0.00063226
0.000688437
0.000744285
0.000799205
0.000852556
0.000903672
0.000951867
0.00099645
0.00103674
0.00107208
0.00110183
0.00112543
0.00114236
0.00115224
-5.76505e-05
-4.50938e-05
-3.03193e-05
-1.31774e-05
6.4634e-06
2.87193e-05
5.36921e-05
8.14644e-05
0.000112096
0.000145619
0.000182034
0.000221306
0.000263359
0.000308074
0.000355281
0.000404761
0.000456236
0.000509379
0.000563797
0.000619045
0.00067462
0.000729969
0.00078449
0.000837539
0.000888445
0.000936515
0.000981047
0.00102135
0.00105675
0.00108661
0.00111032
0.00112737
0.00113738
-5.47095e-05
-4.32459e-05
-2.96218e-05
-1.3675e-05
4.73462e-06
2.57311e-05
4.94255e-05
7.5911e-05
0.000105259
0.000137514
0.000172689
0.000210763
0.000251676
0.00029532
0.000341542
0.000390134
0.000440833
0.000493317
0.000547207
0.000602059
0.000657376
0.000712602
0.000767131
0.000820312
0.000871463
0.000919875
0.000964828
0.00100561
0.00104154
0.00107195
0.00109621
0.00111382
0.00112431
-5.6285e-05
-4.60777e-05
-3.37657e-05
-1.91714e-05
-2.14381e-06
1.7451e-05
3.97357e-05
6.48164e-05
9.27781e-05
0.000123681
0.000157554
0.000194394
0.000234155
0.000276748
0.000322036
0.000369826
0.000419872
0.000471858
0.000525418
0.000580114
0.000635448
0.000690864
0.000745747
0.000799438
0.000851236
0.000900412
0.000946217
0.000987914
0.00102482
0.00105629
0.00108165
0.00110024
0.00111151
-6.2931e-05
-5.41495e-05
-4.33208e-05
-3.02489e-05
-1.47704e-05
3.26026e-06
2.39789e-05
4.75067e-05
7.39451e-05
0.000103372
0.000135835
0.00017135
0.000209892
0.000251391
0.000295729
0.000342733
0.000392172
0.000443745
0.000497096
0.000551796
0.000607347
0.000663191
0.000718708
0.000773224
0.00082602
0.000876336
0.000923383
0.000966417
0.00100487
0.001038
0.00106487
-7.52443e-05
-6.80695e-05
-5.89094e-05
-4.7548e-05
-3.38088e-05
-1.75338e-05
1.42766e-06
2.32133e-05
4.7943e-05
7.57142e-05
0.000106597
0.000140628
0.000177805
0.000218085
0.00026137
0.000307509
0.00035629
0.000407429
0.000460595
0.000515357
0.000571228
0.000627647
0.00068399
0.000739572
0.000793653
0.00084544
0.000894104
0.000938981
0.000979507
-9.38606e-05
-8.84904e-05
-8.12061e-05
-7.17711e-05
-5.99961e-05
-4.571e-05
-2.87468e-05
-8.9511e-06
1.38167e-05
3.96757e-05
6.87195e-05
0.000101011
0.000136575
0.000175393
0.000217398
0.000262464
0.000310402
0.000360945
0.000413813
0.000468561
0.000524718
0.000581733
0.000638979
0.000695764
0.000751334
0.000804861
0.000855488
0.000902619
0.000945692
-0.000119467
-0.000116124
-0.000110956
-0.000103705
-9.41692e-05
-8.21656e-05
-6.7513e-05
-5.00381e-05
-2.95811e-05
-5.99944e-06
2.08266e-05
5.09882e-05
8.45409e-05
0.000121498
0.000161824
0.000205429
0.00025216
0.0003018
0.000354007
0.000408467
0.00046469
0.000522139
0.000580197
0.000638174
0.000695307
0.00075074
0.000803593
0.000853338
0.000899425
-0.000152818
-0.000151765
-0.000149002
-0.000144252
-0.000137302
-0.00012796
-0.000116031
-0.000101325
-8.36607e-05
-6.28721e-05
-3.88116e-05
-1.13569e-05
1.95816e-05
5.40546e-05
9.20666e-05
0.000133568
0.00017845
0.000226528
0.000277501
0.000331156
0.000386962
0.000444425
0.000502961
0.000561903
0.000620488
0.000677842
0.000733067
0.000785736
0.000835297
-0.000194758
-0.000196312
-0.000196314
-0.000194467
-0.000190553
-0.000184372
-0.000175719
-0.00016439
-0.000150184
-0.000132912
-0.000112398
-8.84854e-05
-6.10467e-05
-2.99872e-05
4.74593e-06
4.31553e-05
8.5187e-05
0.000130729
0.000179601
0.000231417
0.000285926
0.00034261
0.000400947
0.000460313
0.000519968
0.00057903
0.000636609
0.000692417
0.000745898
-0.000246247
-0.000250811
-0.000254036
-0.000255611
-0.00025532
-0.000252964
-0.00024833
-0.000241206
-0.000231375
-0.000218625
-0.000202753
-0.000183569
-0.0001609
-0.000134602
-0.000104562
-7.07134e-05
-3.30366e-05
8.43581e-06
5.36067e-05
0.000102222
0.00015402
0.000208658
0.000265654
0.000324471
0.000384427
0.000444658
0.000504315
0.00056331
0.00062107
-0.000308399
-0.000316486
-0.000323525
-0.000329203
-0.000333312
-0.000335663
-0.000336047
-0.000334248
-0.000330042
-0.000323198
-0.000313489
-0.000300687
-0.000284573
-0.000264942
-0.000241612
-0.000214431
-0.000183284
-0.000148098
-0.00010885
-6.5631e-05
-1.87506e-05
3.19347e-05
8.58398e-05
0.000142539
0.000201482
0.000261871
0.000322954
0.000384914
0.000447149
-0.000382516
-0.00039479
-0.000406416
-0.000417087
-0.000426621
-0.000434851
-0.000441587
-0.00044662
-0.000449727
-0.000450669
-0.000449197
-0.000445045
-0.000437945
-0.000427621
-0.000413804
-0.000396231
-0.00037466
-0.000348884
-0.000318738
-0.000284054
-0.000244721
-0.000201211
-0.000153067
-0.000100855
-4.49766e-05
1.39138e-05
7.52377e-05
0.000139542
0.000206167
-0.000470131
-0.000487458
-0.000504673
-0.0005215
-0.000537805
-0.000553462
-0.000568315
-0.000582183
-0.000594858
-0.000606104
-0.000615655
-0.000623212
-0.000628448
-0.000631007
-0.000630507
-0.000626545
-0.000618712
-0.000606603
-0.000589835
-0.000568016
-0.000540744
-0.000507832
-0.000469449
-0.000425182
-0.000375378
-0.000320487
-0.000260814
-0.000195356
-0.00012485
-0.000573067
-0.000596559
-0.000620658
-0.00064515
-0.000669977
-0.000695081
-0.000720367
-0.000745702
-0.000770913
-0.000795781
-0.000820036
-0.000843345
-0.000865316
-0.000885491
-0.00090335
-0.000918309
-0.000929734
-0.000936954
-0.000939278
-0.000936003
-0.000926408
-0.000909841
-0.000885993
-0.000854472
-0.000814862
-0.000767481
-0.000712245
-0.000647573
-0.0005743
-0.000693515
-0.000724569
-0.000757193
-0.000791283
-0.000826889
-0.00086405
-0.000902761
-0.000942969
-0.000984561
-0.00102736
-0.00107108
-0.00111538
-0.00115978
-0.0012037
-0.00124643
-0.00128717
-0.00132497
-0.00135883
-0.00138765
-0.00141029
-0.0014256
-0.00143243
-0.00142982
-0.00141728
-0.00139317
-0.00135799
-0.00131106
-0.00125006
-0.00117593
-0.000796355
-0.000833926
-0.000874354
-0.000917602
-0.000963749
-0.00101301
-0.00106555
-0.0011215
-0.00118092
-0.00124379
-0.00130998
-0.00137924
-0.00145117
-0.0015252
-0.00160059
-0.00167639
-0.00175149
-0.00182459
-0.0018942
-0.00195873
-0.00201648
-0.00206571
-0.00210467
-0.00213156
-0.00214466
-0.00214375
-0.00212701
-0.00209349
-0.00204016
-0.00196803
-0.000949407
-0.000997148
-0.00104921
-0.00110572
-0.00116704
-0.00123356
-0.00130566
-0.00138364
-0.0014677
-0.00155797
-0.00165437
-0.00175669
-0.00186446
-0.00197699
-0.00209333
-0.00221222
-0.00233215
-0.00245132
-0.00256769
-0.00267899
-0.00278283
-0.00287672
-0.00295815
-0.00302453
-0.0030734
-0.00310313
-0.00311219
-0.0030984
-0.0030579
-0.00299173
-0.00112618
-0.00118644
-0.00125291
-0.001326
-0.00140634
-0.0014946
-0.00159141
-0.0016973
-0.00181268
-0.00193781
-0.00207273
-0.00221722
-0.00237074
-0.00253241
-0.002701
-0.00287484
-0.00305189
-0.00322974
-0.00340563
-0.00357649
-0.00373905
-0.0038899
-0.00402558
-0.00414261
-0.00423765
-0.00430789
-0.00435136
-0.00436471
-0.00434333
-0.00428817
-0.0013299
-0.00140552
-0.00148981
-0.00158349
-0.00168754
-0.00180297
-0.00193073
-0.00207163
-0.00222634
-0.00239527
-0.00257857
-0.00277598
-0.00298685
-0.00321004
-0.0034439
-0.00368625
-0.00393438
-0.00418509
-0.00443473
-0.00467927
-0.0049144
-0.00513564
-0.00533843
-0.00551823
-0.00567072
-0.00579207
-0.0058791
-0.00592794
-0.00593291
-0.00589475
-0.00156413
-0.00165854
-0.00176473
-0.0018838
-0.00201717
-0.00216624
-0.00233235
-0.00251665
-0.00272008
-0.00294323
-0.0031863
-0.00344898
-0.00373039
-0.00402901
-0.00434264
-0.00466842
-0.00500281
-0.00534162
-0.00568014
-0.00601321
-0.00633533
-0.00664079
-0.00692384
-0.00717876
-0.00740013
-0.00758311
-0.00772343
-0.00781621
-0.00785521
-0.00784069
-0.0018327
-0.00195
-0.00208292
-0.00223304
-0.00240229
-0.00259256
-0.00280561
-0.00304299
-0.00330589
-0.00359506
-0.00391072
-0.00425236
-0.00461878
-0.0050079
-0.00541682
-0.00584177
-0.00627815
-0.00672065
-0.00716329
-0.0075996
-0.00802275
-0.00842574
-0.00880151
-0.00914315
-0.0094441
-0.0096985
-0.00990105
-0.0100458
-0.0101265
-0.0101424
-0.00213971
-0.00228467
-0.00244993
-0.00263766
-0.00285034
-0.00309044
-0.00336019
-0.00366151
-0.00399585
-0.00436405
-0.0047662
-0.00520151
-0.00566821
-0.00616351
-0.00668354
-0.00722342
-0.00777729
-0.00833845
-0.00889951
-0.00945255
-0.00998935
-0.0105015
-0.0109807
-0.0114189
-0.0118083
-0.0121422
-0.0124144
-0.0126185
-0.012747
-0.0127993
-0.00248941
-0.00266751
-0.00287152
-0.00310426
-0.0033689
-0.00366846
-0.00400568
-0.00438283
-0.00480154
-0.0052626
-0.00576585
-0.00630996
-0.00689241
-0.0075094
-0.00815585
-0.00882551
-0.00951102
-0.0102041
-0.0108959
-0.0115768
-0.0122373
-0.0128675
-0.0134581
-0.0139997
-0.0144836
-0.0149023
-0.0152491
-0.0155168
-0.0156982
-0.0157919
-0.00288613
-0.00310352
-0.00335343
-0.00363942
-0.00396536
-0.00433487
-0.00475114
-0.00521673
-0.0057333
-0.00630145
-0.00692049
-0.00758832
-0.00830136
-0.00905451
-0.0098412
-0.0106535
-0.0114825
-0.0123181
-0.0131496
-0.0139662
-0.0147567
-0.0155102
-0.0162161
-0.0168642
-0.0174448
-0.0179502
-0.0183733
-0.0187066
-0.0189431
-0.0190816
-0.00333408
-0.00359755
-0.00390117
-0.00424932
-0.00464657
-0.00509712
-0.00560454
-0.00617151
-0.00679954
-0.00748876
-0.00823769
-0.00904314
-0.00990014
-0.010802
-0.0117403
-0.0127053
-0.0136861
-0.0146708
-0.0156473
-0.0166029
-0.0175254
-0.0184027
-0.0192236
-0.0199766
-0.0206522
-0.00383724
-0.00415408
-0.00451976
-0.00493947
-0.00541847
-0.00596144
-0.00657219
-0.00725332
-0.00800592
-0.00882933
-0.00972094
-0.0106761
-0.0116881
-0.0127482
-0.0138462
-0.0149701
-0.016107
-0.0172433
-0.018365
-0.0194584
-0.0205099
-0.0215069
-0.0224375
-0.0232903
-0.0240555
-0.0043991
-0.00477699
-0.00521342
-0.00571435
-0.00628565
-0.00693234
-0.00765824
-0.0084656
-0.00935477
-0.0103239
-0.011369
-0.0124833
-0.0136583
-0.0148829
-0.0161445
-0.0174291
-0.0187219
-0.0200073
-0.02127
-0.0224951
-0.0236682
-0.0247764
-0.0258075
-0.0267508
-0.0275965
-0.0050225
-0.00546933
-0.00598528
-0.00657705
-0.00725096
-0.00801215
-0.00886418
-0.00980861
-0.0108446
-0.0119689
-0.0131754
-0.0144553
-0.0157975
-0.0171887
-0.0186138
-0.0200565
-0.0215002
-0.0229277
-0.0243226
-0.0256691
-0.0269525
-0.0281597
-0.029279
-0.0303004
-0.0312147
-0.0057094
-0.00623304
-0.00683715
-0.00752901
-0.00831519
-0.00920071
-0.0101885
-0.0112791
-0.01247
-0.0137561
-0.0151289
-0.0165772
-0.018087
-0.0196427
-0.0212267
-0.0228206
-0.0244061
-0.0259648
-0.0274793
-0.0289337
-0.0303131
-0.0316047
-0.0327977
-0.0338832
-0.0348524
-0.00646072
-0.00706877
-0.00776921
-0.00856972
-0.00947685
-0.0104951
-0.0116266
-0.0128701
-0.0142214
-0.0156729
-0.0172135
-0.0188291
-0.0205032
-0.0222173
-0.0239517
-0.0256863
-0.027401
-0.0290768
-0.030696
-0.0322426
-0.0337021
-0.0350626
-0.0363142
-0.0374489
-0.0384594
-0.00727617
-0.00797573
-0.00877993
-0.0096966
-0.010732
-0.0118898
-0.0131705
-0.0145714
-0.0160856
-0.0177029
-0.0194092
-0.0211877
-0.023019
-0.0248821
-0.0267553
-0.0286169
-0.030446
-0.0322231
-0.0339307
-0.035553
-0.0370766
-0.0384903
-0.0397862
-0.0409563
-0.00815412
-0.00895153
-0.0098659
-0.0109049
-0.0120742
-0.0133762
-0.0148097
-0.0163695
-0.0180462
-0.0198265
-0.0216934
-0.0236271
-0.0256055
-0.0276054
-0.0296035
-0.0315769
-0.0335043
-0.0353662
-0.0371456
-0.038828
-0.0404004
-0.0418533
-0.0431801
-0.0443745
-0.00909156
-0.00999216
-0.0110219
-0.0121879
-0.0134949
-0.0149436
-0.0165308
-0.0182484
-0.0200844
-0.0220221
-0.0240415
-0.02612
-0.0282332
-0.030356
-0.0324637
-0.0345331
-0.0365425
-0.0384732
-0.040309
-0.0420373
-0.0436458
-0.0100841
-0.011092
-0.0122408
-0.0135368
-0.0149832
-0.016579
-0.0183182
-0.0201902
-0.0221796
-0.0242666
-0.0264284
-0.0286396
-0.0308738
-0.0331045
-0.0353065
-0.0374561
-0.0395325
-0.0415175
-0.0433964
-0.0451582
-0.0467923
-0.0111259
-0.0122441
-0.013514
-0.0149411
-0.0165267
-0.0182677
-0.0201552
-0.0221757
-0.0243105
-0.0265368
-0.0288291
-0.0311597
-0.0335007
-0.0358246
-0.0381059
-0.0403215
-0.0424512
-0.0444783
-0.0463895
-0.0481754
-0.0498273
-0.0122101
-0.0134399
-0.0148315
-0.0163889
-0.0181117
-0.0199939
-0.022024
-0.0241852
-0.0264558
-0.0288101
-0.0312202
-0.0336567
-0.0360903
-0.0384933
-0.0408404
-0.0431092
-0.045281
-0.0473403
-0.0492757
-0.0510792
-0.0527438
-0.0133285
-0.0146699
-0.0161821
-0.0178675
-0.0197233
-0.0217411
-0.0239064
-0.0261991
-0.0285947
-0.0310651
-0.0335801
-0.036109
-0.038622
-0.0410913
-0.0434923
-0.0458039
-0.0480088
-0.0500932
-0.0520472
-0.0538645
-0.0555395
-0.0144724
-0.0159239
-0.017554
-0.0193633
-0.0213466
-0.0234929
-0.0257845
-0.0281986
-0.0307079
-0.0332821
-0.0358893
-0.0384981
-0.0410784
-0.0436029
-0.0460481
-0.0483942
-0.0506256
-0.0527304
-0.0547
-0.0565296
-0.0582148
-0.0156316
-0.0171903
-0.0189342
-0.020862
-0.0229661
-0.0252327
-0.0276411
-0.0301659
-0.0327774
-0.0354434
-0.038131
-0.0408082
-0.0434453
-0.0460158
-0.0484974
-0.050872
-0.0531257
-0.0552482
-0.0572325
-0.0590748
-0.0607718
-0.0294602
-0.0320847
-0.034787
-0.0375335
-0.0402906
-0.0430262
-0.0457112
-0.0483205
-0.0508326
-0.0532316
-0.0555051
-0.0576446
-0.0596442
-0.0615011
-0.0632127
-0.0554688
-0.0577614
-0.0599183
-0.0619349
-0.0638092
-0.0655387
)
;

boundaryField
{
    movingWall
    {
        type            zeroGradient;
    }
    fixedWalls
    {
        type            zeroGradient;
    }
    frontAndBack
    {
        type            empty;
    }
    procBoundary1to0
    {
        type            processor;
        value           nonuniform List<scalar> 
45
(
-0.000142418
-0.000118081
-0.000100787
-8.70709e-05
-7.59644e-05
-6.81426e-05
-6.41738e-05
-6.45586e-05
-6.98463e-05
-8.06276e-05
-9.7528e-05
-0.000121215
-0.000152411
-0.000191914
-0.000240619
-0.000299549
-0.000369878
-0.000452971
-0.000550453
-0.00066417
-0.00066417
-0.000761377
-0.000905654
-0.00107171
-0.00126233
-0.00148056
-0.00172967
-0.00201317
-0.00233472
-0.00269804
-0.00310677
-0.0035644
-0.00407401
-0.00463819
-0.00525884
-0.00593697
-0.00667264
-0.00746476
-0.00831106
-0.0092081
-0.0101512
-0.0111346
-0.0121514
-0.0131942
-0.0142543
)
;
    }
    procBoundary1to3
    {
        type            processor;
        value           nonuniform List<scalar> 
23
(
-0.0167979
-0.0184593
-0.0203116
-0.0223511
-0.0245677
-0.0269449
-0.0269449
-0.0312271
-0.0339402
-0.0367223
-0.0395388
-0.0423556
-0.0451409
-0.0478664
-0.0505087
-0.053048
-0.053048
-0.0575799
-0.0598918
-0.0620677
-0.0641038
-0.0659986
-0.0677501
)
;
    }
    procBoundary1to6
    {
        type            processor;
        value           nonuniform List<scalar> 
26
(
-0.0212427
-0.0217404
-0.022138
-0.0224296
-0.0226131
-0.0212427
-0.0247254
-0.0283368
-0.032014
-0.0356983
-0.0393395
-0.0419951
-0.0419951
-0.0451259
-0.0464727
-0.045431
-0.0476818
-0.0451259
-0.0482907
-0.051338
-0.0542635
-0.0570671
-0.0597515
-0.0623201
-0.064776
-0.0671211
)
;
    }
    procBoundary1to7
    {
        type            processor;
        value           nonuniform List<scalar> 
33
(
0.00127148
0.0012248
0.00119475
0.00117272
0.00115473
0.00113995
0.00112723
0.00108476
0.00111505
0.00109719
0.00101473
0.00108476
0.00104353
0.00101473
0.000983501
0.000940351
0.000879942
0.000794886
0.000675025
0.000506635
0.000271599
-5.33153e-05
-0.000496912
-0.00109352
-0.00188221
-0.002905
-0.00420406
-0.00581776
-0.00777608
-0.0100958
-0.0127764
-0.0157977
-0.0191195
)
;
    }
}


// ************************************************************************* //
