/*--------------------------------*- C++ -*----------------------------------*\
  =========                 |
  \\      /  F ield         | OpenFOAM: The Open Source CFD Toolbox
   \\    /   O peration     | Website:  https://openfoam.org
    \\  /    A nd           | Version:  9
     \\/     M anipulation  |
\*---------------------------------------------------------------------------*/
FoamFile
{
    format      ascii;
    class       surfaceScalarField;
    location    "1";
    object      phi;
}
// * * * * * * * * * * * * * * * * * * * * * * * * * * * * * * * * * * * * * //

dimensions      [0 3 -1 0 0 0 0];

internalField   nonuniform List<scalar> 
2420
(
-2.33687e-08
1.06394e-09
-2.44242e-08
1.05548e-09
-2.54667e-08
1.04246e-09
-2.6491e-08
1.02433e-09
-2.74915e-08
1.00052e-09
-2.8462e-08
9.70512e-10
-2.93958e-08
9.33764e-10
-3.02856e-08
8.89757e-10
-3.11235e-08
8.37983e-10
-3.19015e-08
7.77959e-10
-3.26107e-08
7.09246e-10
-3.32422e-08
6.31458e-10
-3.37865e-08
5.44289e-10
-3.4234e-08
4.47533e-10
-3.45751e-08
3.41106e-10
-3.48002e-08
2.2508e-10
-3.48999e-08
9.96966e-11
-3.48653e-08
-3.46214e-11
-3.46881e-08
-1.77224e-10
-3.43608e-08
-3.2722e-10
-3.38773e-08
-4.8349e-10
-3.32327e-08
-6.44672e-10
-3.24235e-08
-8.09163e-10
-3.14484e-08
-9.75135e-10
-3.03078e-08
-1.14055e-09
-2.90046e-08
-1.30321e-09
-2.75439e-08
-1.46075e-09
-2.59331e-08
-1.61073e-09
-2.41825e-08
-1.75062e-09
-2.23046e-08
-1.87791e-09
-2.03145e-08
-1.99015e-09
-1.82294e-08
-2.08506e-09
-2.16076e-09
-6.84969e-08
4.0246e-09
-7.14183e-08
3.97683e-09
-7.42875e-08
3.91169e-09
-7.70904e-08
3.82725e-09
-7.98116e-08
3.72163e-09
-8.24341e-08
3.59303e-09
-8.494e-08
3.43967e-09
-8.731e-08
3.25983e-09
-8.95239e-08
3.05186e-09
-9.15602e-08
2.81425e-09
-9.33966e-08
2.54562e-09
-9.50099e-08
2.24482e-09
-9.63766e-08
1.911e-09
-9.74728e-08
1.54366e-09
-9.82744e-08
1.14278e-09
-9.87582e-08
7.08837e-10
-9.89014e-08
2.42908e-10
-9.86829e-08
-2.53162e-10
-9.8083e-08
-7.77065e-10
-9.70849e-08
-1.32533e-09
-9.56745e-08
-1.89393e-09
-9.38412e-08
-2.47794e-09
-9.15787e-08
-3.07169e-09
-8.88851e-08
-3.66873e-09
-8.57637e-08
-4.26196e-09
-8.22232e-08
-4.84374e-09
-7.8278e-08
-5.40594e-09
-7.39485e-08
-5.94017e-09
-6.92613e-08
-6.43785e-09
-6.42488e-08
-6.89042e-09
-5.89493e-08
-7.28959e-09
-5.34067e-08
-7.62775e-09
-7.89853e-09
-1.11982e-07
8.68082e-09
-1.16559e-07
8.55321e-09
-1.21035e-07
8.38809e-09
-1.2539e-07
8.18164e-09
-1.29598e-07
7.93019e-09
-1.33635e-07
7.63019e-09
-1.37474e-07
7.2782e-09
-1.41085e-07
6.87089e-09
-1.44438e-07
6.40512e-09
-1.47502e-07
5.87802e-09
-1.50243e-07
5.28706e-09
-1.52629e-07
4.63018e-09
-1.54624e-07
3.90596e-09
-1.56194e-07
3.11371e-09
-1.57305e-07
2.25369e-09
-1.57923e-07
1.32724e-09
-1.58017e-07
3.37008e-10
-1.57557e-07
-7.13377e-10
-1.56516e-07
-1.81834e-09
-1.5487e-07
-2.9709e-09
-1.52602e-07
-4.16253e-09
-1.49696e-07
-5.38311e-09
-1.46147e-07
-6.62096e-09
-1.41953e-07
-7.86294e-09
-1.3712e-07
-9.09467e-09
-1.31663e-07
-1.03007e-08
-1.25605e-07
-1.14646e-08
-1.18975e-07
-1.25698e-08
-1.11814e-07
-1.35989e-08
-1.0417e-07
-1.45348e-08
-9.6098e-08
-1.53612e-08
-8.7663e-08
-1.60628e-08
-1.66268e-08
-1.53805e-07
1.4857e-08
-1.59855e-07
1.4603e-08
-1.65752e-07
1.4285e-08
-1.71468e-07
1.38973e-08
-1.76971e-07
1.34339e-08
-1.8223e-07
1.28894e-08
-1.87211e-07
1.22585e-08
-1.91876e-07
1.1536e-08
-1.96188e-07
1.0717e-08
-2.00107e-07
9.79728e-09
-2.03593e-07
8.77295e-09
-2.06604e-07
7.64105e-09
-2.09097e-07
6.39958e-09
-2.11032e-07
5.04784e-09
-2.12364e-07
3.58661e-09
-2.13056e-07
2.01844e-09
-2.13067e-07
3.48092e-10
-2.12362e-07
-1.41847e-09
-2.10909e-07
-3.27145e-09
-2.0868e-07
-5.19945e-09
-2.05654e-07
-7.18838e-09
-2.01816e-07
-9.22159e-09
-1.97157e-07
-1.128e-08
-1.91677e-07
-1.33423e-08
-1.85387e-07
-1.53851e-08
-1.78304e-07
-1.73834e-08
-1.70458e-07
-1.93111e-08
-1.61887e-07
-2.11409e-08
-1.5264e-07
-2.28455e-08
-1.42777e-07
-2.43973e-08
-1.32369e-07
-2.57697e-08
-1.21493e-07
-2.69383e-08
-2.78824e-08
-1.93969e-07
2.2402e-08
-2.01338e-07
2.19723e-08
-2.085e-07
2.14474e-08
-2.15422e-07
2.08192e-08
-2.22068e-07
2.00796e-08
-2.284e-07
1.92212e-08
-2.34378e-07
1.82366e-08
-2.39961e-07
1.71187e-08
-2.45104e-07
1.58609e-08
-2.49764e-07
1.44572e-08
-2.53894e-07
1.29025e-08
-2.57446e-07
1.11928e-08
-2.60372e-07
9.32558e-09
-2.62624e-07
7.3001e-09
-2.64155e-07
5.11781e-09
-2.64919e-07
2.78268e-09
-2.64873e-07
3.01963e-10
-2.63976e-07
-2.31576e-09
-2.62192e-07
-5.05587e-09
-2.59489e-07
-7.90191e-09
-2.55844e-07
-1.08335e-08
-2.51239e-07
-1.38265e-08
-2.45666e-07
-1.68534e-08
-2.39124e-07
-1.98838e-08
-2.31625e-07
-2.2884e-08
-2.23191e-07
-2.58183e-08
-2.13852e-07
-2.86491e-08
-2.03655e-07
-3.1338e-08
-1.92655e-07
-3.38456e-08
-1.8092e-07
-3.61326e-08
-1.68529e-07
-3.81603e-08
-1.55574e-07
-3.98934e-08
-4.13024e-08
-2.32507e-07
3.11898e-08
-2.41071e-07
3.05362e-08
-2.49376e-07
2.97526e-08
-2.57385e-07
2.88287e-08
-2.6506e-07
2.77545e-08
-2.72359e-07
2.65203e-08
-2.7924e-07
2.51167e-08
-2.85656e-07
2.35347e-08
-2.9156e-07
2.17656e-08
-2.96905e-07
1.98018e-08
-3.01639e-07
1.76366e-08
-3.05711e-07
1.52647e-08
-3.09068e-07
1.26831e-08
-3.11659e-07
9.89074e-09
-3.13431e-07
6.8897e-09
-3.14334e-07
3.68529e-09
-3.14319e-07
2.87372e-10
-3.13342e-07
-3.29291e-09
-3.11362e-07
-7.03574e-09
-3.08344e-07
-1.09194e-08
-3.04261e-07
-1.49166e-08
-2.99092e-07
-1.89955e-08
-2.92826e-07
-2.31196e-08
-2.85462e-07
-2.7248e-08
-2.7701e-07
-3.13363e-08
-2.67491e-07
-3.53369e-08
-2.5694e-07
-3.92001e-08
-2.45403e-07
-4.28746e-08
-2.32941e-07
-4.63083e-08
-2.19625e-07
-4.94481e-08
-2.05544e-07
-5.22418e-08
-1.90795e-07
-5.46416e-08
-5.66073e-08
-2.69488e-07
4.11214e-08
-2.79152e-07
4.02001e-08
-2.88512e-07
3.91125e-08
-2.97529e-07
3.78459e-08
-3.06163e-07
3.63884e-08
-3.14371e-07
3.47284e-08
-3.22108e-07
3.28541e-08
-3.29328e-07
3.07545e-08
-3.35981e-07
2.84187e-08
-3.42017e-07
2.5837e-08
-3.47381e-07
2.30008e-08
-3.52019e-07
1.99033e-08
-3.55876e-07
1.65401e-08
-3.58896e-07
1.29099e-08
-3.6102e-07
9.01464e-09
-3.62196e-07
4.86081e-09
-3.62369e-07
4.60137e-10
-3.61489e-07
-4.17297e-09
-3.5951e-07
-9.0146e-09
-3.56392e-07
-1.40374e-08
-3.52101e-07
-1.92073e-08
-3.46612e-07
-2.44842e-08
-3.3991e-07
-2.98223e-08
-3.31988e-07
-3.517e-08
-3.22853e-07
-4.04713e-08
-3.12524e-07
-4.56659e-08
-3.01033e-07
-5.06907e-08
-2.88427e-07
-5.5481e-08
-2.74765e-07
-5.99705e-08
-2.60122e-07
-6.40907e-08
-2.4459e-07
-6.77737e-08
-2.28275e-07
-7.09564e-08
-7.3586e-08
-3.05018e-07
5.21271e-08
-3.15721e-07
5.09032e-08
-3.26085e-07
4.94764e-08
-3.36072e-07
4.78325e-08
-3.45641e-07
4.59574e-08
-3.5475e-07
4.38375e-08
-3.63354e-07
4.14588e-08
-3.71407e-07
3.88075e-08
-3.78859e-07
3.58704e-08
-3.85657e-07
3.26349e-08
-3.91746e-07
2.90899e-08
-3.97069e-07
2.52264e-08
-4.01567e-07
2.1038e-08
-4.05179e-07
1.65219e-08
-4.07844e-07
1.16796e-08
-4.09501e-07
6.51763e-09
-4.1009e-07
1.0488e-09
-4.09553e-07
-4.70924e-09
-4.07838e-07
-1.07297e-08
-4.04896e-07
-1.69797e-08
-4.00685e-07
-2.34186e-08
-3.95171e-07
-2.99982e-08
-3.8833e-07
-3.6663e-08
-3.80149e-07
-4.33508e-08
-3.70627e-07
-4.99931e-08
-3.59777e-07
-5.65161e-08
-3.47625e-07
-6.28425e-08
-3.34213e-07
-6.88931e-08
-3.19597e-07
-7.45864e-08
-3.03853e-07
-7.98351e-08
-2.87078e-07
-8.4549e-08
-2.69381e-07
-3.39242e-07
6.417e-08
-3.5096e-07
6.2621e-08
-3.62318e-07
6.08349e-08
-3.73281e-07
5.87958e-08
-3.83812e-07
5.64877e-08
-3.93869e-07
5.38945e-08
-4.0341e-07
5.09998e-08
-4.12389e-07
4.77865e-08
-4.20756e-07
4.4238e-08
-4.2846e-07
4.03383e-08
-4.35442e-07
3.60726e-08
-4.41644e-07
3.14284e-08
-4.47003e-07
2.63962e-08
-4.51451e-07
2.09706e-08
-4.54923e-07
1.5151e-08
-4.57348e-07
8.94311e-09
-4.58659e-07
2.35962e-09
-4.58788e-07
-4.57985e-09
-4.57672e-07
-1.18463e-08
-4.55249e-07
-1.94022e-08
-4.51467e-07
-2.72009e-08
-4.46279e-07
-3.51864e-08
-4.39648e-07
-4.32937e-08
-4.31549e-07
-5.14493e-08
-4.21971e-07
-5.9572e-08
-4.10913e-07
-6.75738e-08
-3.98393e-07
-7.5362e-08
-3.84445e-07
-8.28419e-08
-3.69119e-07
-8.99116e-08
-3.52493e-07
-3.72344e-07
7.72487e-08
-3.85093e-07
7.53696e-08
-3.97481e-07
7.32235e-08
-4.09478e-07
7.07928e-08
-4.2105e-07
6.80597e-08
-4.32161e-07
6.50054e-08
-4.42771e-07
6.16098e-08
-4.52837e-07
5.7852e-08
-4.6231e-07
5.3711e-08
-4.71137e-07
4.91656e-08
-4.7926e-07
4.4196e-08
-4.86617e-07
3.87846e-08
-4.93137e-07
3.29169e-08
-4.9875e-07
2.65832e-08
-5.03378e-07
1.97792e-08
-5.06943e-07
1.25079e-08
-5.09364e-07
4.78043e-09
-5.1056e-07
-3.38322e-09
-5.10453e-07
-1.19535e-08
-5.08967e-07
-2.08888e-08
-5.0603e-07
-3.01373e-08
-5.01581e-07
-3.9636e-08
-4.95564e-07
-4.93105e-08
-4.87937e-07
-5.90759e-08
-4.78672e-07
-6.88376e-08
-4.67753e-07
-7.84924e-08
-4.55184e-07
-8.79307e-08
-4.40988e-07
-9.70381e-08
-1.05693e-07
-4.04549e-07
9.14017e-08
-4.18388e-07
8.92091e-08
-4.31891e-07
8.67265e-08
-4.45033e-07
8.39345e-08
-4.57786e-07
8.08128e-08
-4.7012e-07
7.73393e-08
-4.82e-07
7.34894e-08
-4.93385e-07
6.92369e-08
-5.04228e-07
6.45544e-08
-5.14477e-07
5.94141e-08
-5.2407e-07
5.3789e-08
-5.32939e-07
4.76541e-08
-5.4101e-07
4.09878e-08
-5.482e-07
3.37734e-08
-5.54422e-07
2.6001e-08
-5.59582e-07
1.76684e-08
-5.63585e-07
8.78288e-09
-5.66332e-07
-6.36115e-10
-5.67724e-07
-1.05619e-08
-5.67664e-07
-2.09486e-08
-5.6606e-07
-3.17412e-08
-5.62826e-07
-4.28699e-08
-5.57885e-07
-5.42514e-08
-5.51172e-07
-6.57892e-08
-5.42635e-07
-7.73746e-08
-5.3224e-07
-8.88878e-08
-5.1997e-07
-1.002e-07
-5.05831e-07
-1.11177e-07
-1.21673e-07
-4.36116e-07
1.0671e-07
-4.51154e-07
1.04247e-07
-4.65908e-07
1.01481e-07
-4.80362e-07
9.83887e-08
-4.94498e-07
9.49483e-08
-5.08291e-07
9.11322e-08
-5.21712e-07
8.69102e-08
-5.34724e-07
8.22488e-08
-5.47281e-07
7.7112e-08
-5.5933e-07
7.14629e-08
-5.70805e-07
6.52645e-08
-5.81633e-07
5.84817e-08
-5.91728e-07
5.10828e-08
-6.00996e-07
4.30416e-08
-6.09334e-07
3.4339e-08
-6.16631e-07
2.49654e-08
-6.2277e-07
1.49218e-08
-6.27629e-07
4.22294e-09
-6.31086e-07
-7.10485e-09
-6.33016e-07
-1.90184e-08
-6.333e-07
-3.14579e-08
-6.31821e-07
-4.43483e-08
-6.28475e-07
-5.75974e-08
-6.23167e-07
-7.10969e-08
-6.15819e-07
-8.47233e-08
-6.06368e-07
-9.83388e-08
-5.94774e-07
-1.11794e-07
-5.8102e-07
-1.24931e-07
-1.37578e-07
-4.6734e-07
1.23299e-07
-4.83734e-07
1.20641e-07
-4.99931e-07
1.17677e-07
-5.15925e-07
1.14383e-07
-5.31709e-07
1.10732e-07
-5.47265e-07
1.06689e-07
-5.62571e-07
1.02216e-07
-5.77594e-07
9.72712e-08
-5.92288e-07
9.18061e-08
-6.06596e-07
8.57716e-08
-6.20449e-07
7.91176e-08
-6.33763e-07
7.17952e-08
-6.46439e-07
6.37593e-08
-6.58368e-07
5.49703e-08
-6.69426e-07
4.5397e-08
-6.79479e-07
3.50187e-08
-6.88385e-07
2.38275e-08
-6.95992e-07
1.18302e-08
-7.0215e-07
-9.47415e-10
-7.06697e-07
-1.44707e-08
-7.09483e-07
-2.86726e-08
-7.10355e-07
-4.34758e-08
-7.09174e-07
-5.87788e-08
-7.05809e-07
-7.44613e-08
-7.00149e-07
-9.03838e-08
-6.92099e-07
-1.06389e-07
-6.81588e-07
-1.22305e-07
-6.68571e-07
-1.37947e-07
-1.53115e-07
-4.9854e-07
1.41343e-07
-5.165e-07
1.38601e-07
-5.34388e-07
1.35565e-07
-5.52212e-07
1.32207e-07
-5.69974e-07
1.28493e-07
-5.87667e-07
1.24382e-07
-6.05273e-07
1.19823e-07
-6.22764e-07
1.14762e-07
-6.40092e-07
1.09135e-07
-6.57197e-07
1.02877e-07
-6.74e-07
9.59203e-08
-6.90404e-07
8.8199e-08
-7.06294e-07
7.96496e-08
-7.21539e-07
7.02154e-08
-7.35992e-07
5.98492e-08
-7.49488e-07
4.85156e-08
-7.61855e-07
3.61942e-08
-7.72907e-07
2.28821e-08
-7.82451e-07
8.5968e-09
-7.90297e-07
-6.62522e-09
-7.96245e-07
-2.27243e-08
-8.00106e-07
-3.96153e-08
-8.01696e-07
-5.71884e-08
-8.00847e-07
-7.53106e-08
-7.97405e-07
-9.38254e-08
-7.9124e-07
-1.12554e-07
-7.82244e-07
-1.31301e-07
-7.70342e-07
-1.4985e-07
-1.67966e-07
-5.30059e-07
1.61063e-07
-5.49847e-07
1.58389e-07
-5.6973e-07
1.55449e-07
-5.89732e-07
1.52209e-07
-6.09865e-07
1.48626e-07
-6.30133e-07
1.44649e-07
-6.50523e-07
1.40214e-07
-6.71008e-07
1.35246e-07
-6.91537e-07
1.29664e-07
-7.12043e-07
1.23383e-07
-7.32435e-07
1.16312e-07
-7.52597e-07
1.08362e-07
-7.72395e-07
9.94473e-08
-7.9167e-07
8.94903e-08
-8.10243e-07
7.84229e-08
-8.27919e-07
6.61913e-08
-8.44484e-07
5.27593e-08
-8.59713e-07
3.81109e-08
-8.73369e-07
2.22532e-08
-8.85217e-07
5.22268e-09
-8.95017e-07
-1.2925e-08
-9.02522e-07
-3.21094e-08
-9.0751e-07
-5.22011e-08
-9.09763e-07
-7.30568e-08
-9.09087e-07
-9.45022e-08
-9.05306e-07
-1.16335e-07
-8.98275e-07
-1.38332e-07
-8.87881e-07
-1.60243e-07
-1.81797e-07
-5.62248e-07
1.82728e-07
-5.84176e-07
1.80317e-07
-6.06414e-07
1.77686e-07
-6.28997e-07
1.74792e-07
-6.51954e-07
1.71583e-07
-6.75294e-07
1.6799e-07
-6.99011e-07
1.6393e-07
-7.23073e-07
1.59308e-07
-7.47427e-07
1.54018e-07
-7.71992e-07
1.47948e-07
-7.96661e-07
1.4098e-07
-8.21296e-07
1.32997e-07
-8.45735e-07
1.23886e-07
-8.69787e-07
1.13543e-07
-8.93238e-07
1.01873e-07
-9.15849e-07
8.88027e-08
-9.37365e-07
7.42749e-08
-9.57512e-07
5.82585e-08
-9.76009e-07
4.07494e-08
-9.92557e-07
2.1771e-08
-1.00689e-06
1.41275e-09
-1.01869e-06
-2.03117e-08
-1.02769e-06
-4.32004e-08
-1.03363e-06
-6.712e-08
-1.03626e-06
-9.18741e-08
-1.03536e-06
-1.17235e-07
-1.03074e-06
-1.42946e-07
-1.02226e-06
-1.68724e-07
-1.94255e-07
-5.95457e-07
2.06651e-07
-6.19886e-07
2.04746e-07
-6.44884e-07
2.02684e-07
-6.70505e-07
2.00413e-07
-6.96786e-07
1.97864e-07
-7.23745e-07
1.94949e-07
-7.51375e-07
1.91561e-07
-7.79643e-07
1.87576e-07
-8.08484e-07
1.82859e-07
-8.378e-07
1.77264e-07
-8.67462e-07
1.70641e-07
-8.97304e-07
1.62839e-07
-9.2713e-07
1.53712e-07
-9.5671e-07
1.43123e-07
-9.85787e-07
1.30951e-07
-1.01408e-06
1.17093e-07
-1.04127e-06
1.01472e-07
-1.06706e-06
8.40389e-08
-1.09108e-06
6.47765e-08
-1.11302e-06
4.37045e-08
-1.13249e-06
2.08835e-08
-1.1492e-06
-3.59779e-09
-1.16279e-06
-2.96098e-08
-1.17295e-06
-5.69582e-08
-1.17939e-06
-8.54334e-08
-1.18185e-06
-1.14779e-07
-1.18009e-06
-1.44707e-07
-1.17392e-06
-1.74893e-07
-2.04978e-07
-6.30023e-07
2.33187e-07
-6.57354e-07
2.32076e-07
-6.8556e-07
2.30891e-07
-7.14711e-07
2.29564e-07
-7.44855e-07
2.28007e-07
-7.76012e-07
2.26106e-07
-8.08174e-07
2.23723e-07
-8.41298e-07
2.207e-07
-8.75303e-07
2.16864e-07
-9.10069e-07
2.1203e-07
-9.45436e-07
2.06009e-07
-9.81206e-07
1.98609e-07
-1.01714e-06
1.89646e-07
-1.05296e-06
1.78948e-07
-1.08837e-06
1.66359e-07
-1.12303e-06
1.51749e-07
-1.15657e-06
1.35015e-07
-1.18862e-06
1.1609e-07
-1.21879e-06
9.49441e-08
-1.24667e-06
7.15895e-08
-1.27187e-06
4.60821e-08
-1.294e-06
1.85256e-08
-1.31267e-06
-1.0933e-08
-1.32753e-06
-4.21037e-08
-1.33823e-06
-7.4736e-08
-1.34446e-06
-1.08546e-07
-1.34595e-06
-1.43211e-07
-1.34248e-06
-1.78365e-07
-2.13603e-07
-6.66253e-07
2.62721e-07
-6.96916e-07
2.62739e-07
-7.28807e-07
2.62782e-07
-7.62008e-07
2.62764e-07
-7.96572e-07
2.62571e-07
-8.32521e-07
2.62055e-07
-8.69839e-07
2.6104e-07
-9.08465e-07
2.59326e-07
-9.48297e-07
2.56696e-07
-9.89185e-07
2.52918e-07
-1.03093e-06
2.47756e-07
-1.0733e-06
2.40974e-07
-1.116e-06
2.32344e-07
-1.1587e-06
2.21652e-07
-1.20105e-06
2.08709e-07
-1.24265e-06
1.93351e-07
-1.28309e-06
1.75453e-07
-1.32193e-06
1.54927e-07
-1.35872e-06
1.31733e-07
-1.393e-06
1.05877e-07
-1.42434e-06
7.74177e-08
-1.45228e-06
4.64654e-08
-1.4764e-06
1.3192e-08
-1.49631e-06
-2.21945e-08
-1.51161e-06
-5.94361e-08
-1.52196e-06
-9.81956e-08
-1.52706e-06
-1.38117e-07
-1.52663e-06
-1.78794e-07
-2.19778e-07
-7.0441e-07
2.9566e-07
-7.38854e-07
2.97184e-07
-7.74918e-07
2.98846e-07
-8.12693e-07
3.0054e-07
-8.52236e-07
3.02114e-07
-8.9356e-07
3.0338e-07
-9.36634e-07
3.04114e-07
-9.81376e-07
3.04068e-07
-1.02765e-06
3.0297e-07
-1.07527e-06
3.00537e-07
-1.12399e-06
2.96479e-07
-1.17352e-06
2.90508e-07
-1.22353e-06
2.82348e-07
-1.27362e-06
2.71744e-07
-1.32338e-06
2.58468e-07
-1.37235e-06
2.42326e-07
-1.42007e-06
2.23167e-07
-1.46603e-06
2.0089e-07
-1.50974e-06
1.75443e-07
-1.5507e-06
1.46833e-07
-1.58841e-06
1.15126e-07
-1.62238e-06
8.04434e-08
-1.65216e-06
4.29663e-08
-1.67734e-06
2.98473e-09
-1.69745e-06
-3.93252e-08
-1.71215e-06
-8.34943e-08
-1.7211e-06
-1.29167e-07
-1.724e-06
-1.75891e-07
-2.23177e-07
-7.0793e-07
3.29362e-07
-7.44689e-07
3.32419e-07
-7.83364e-07
3.35858e-07
-8.24084e-07
3.39567e-07
-8.66946e-07
3.43401e-07
-9.11998e-07
3.47167e-07
-9.59242e-07
3.50623e-07
-1.00862e-06
3.53493e-07
-1.06002e-06
3.55467e-07
-1.11326e-06
3.56214e-07
-1.16812e-06
3.5539e-07
-1.22428e-06
3.52645e-07
-1.28141e-06
3.47637e-07
-1.3391e-06
3.4004e-07
-1.39691e-06
3.29552e-07
-1.45435e-06
3.1591e-07
-1.51092e-06
2.9889e-07
-1.56607e-06
2.78322e-07
-1.61927e-06
2.54091e-07
-1.66998e-06
2.26146e-07
-1.71764e-06
1.94496e-07
-1.76173e-06
1.5922e-07
-1.80175e-06
1.20459e-07
-1.83721e-06
7.8423e-08
-1.86761e-06
3.33902e-08
-1.89261e-06
-1.43298e-08
-1.91175e-06
-6.43504e-08
-1.9247e-06
-1.16219e-07
-1.93114e-06
-1.69451e-07
-2.23526e-07
-7.46217e-07
3.68152e-07
-7.87198e-07
3.734e-07
-8.30537e-07
3.79197e-07
-8.76372e-07
3.85402e-07
-9.24793e-07
3.91822e-07
-9.75834e-07
3.98209e-07
-1.02947e-06
4.04261e-07
-1.08562e-06
4.09637e-07
-1.14411e-06
4.13959e-07
-1.20472e-06
4.16827e-07
-1.26716e-06
4.1783e-07
-1.33107e-06
4.16555e-07
-1.39604e-06
4.12601e-07
-1.46159e-06
4.0559e-07
-1.52721e-06
3.95177e-07
-1.59237e-06
3.81064e-07
-1.65648e-06
3.63005e-07
-1.71898e-06
3.40815e-07
-1.77926e-06
3.14376e-07
-1.83675e-06
2.83639e-07
-1.89089e-06
2.48631e-07
-1.94112e-06
2.09448e-07
-1.98692e-06
1.6626e-07
-2.0278e-06
1.19304e-07
-2.06329e-06
6.88819e-08
-2.09298e-06
1.53636e-08
-2.11648e-06
-4.08515e-08
-2.13343e-06
-9.92758e-08
-2.14349e-06
-1.59385e-07
-2.2063e-07
-7.86355e-07
4.11093e-07
-8.3194e-07
4.18984e-07
-8.80345e-07
4.27602e-07
-9.31703e-07
4.3676e-07
-9.86091e-07
4.4621e-07
-1.04352e-06
4.55636e-07
-1.10392e-06
4.64666e-07
-1.16717e-06
4.72884e-07
-1.23305e-06
4.79834e-07
-1.30126e-06
4.85043e-07
-1.37145e-06
4.88024e-07
-1.4432e-06
4.88299e-07
-1.516e-06
4.85407e-07
-1.58933e-06
4.78919e-07
-1.66261e-06
4.68453e-07
-1.73522e-06
4.53681e-07
-1.80656e-06
4.34342e-07
-1.87599e-06
4.10246e-07
-1.9429e-06
3.81283e-07
-2.00668e-06
3.4742e-07
-2.06675e-06
3.08707e-07
-2.12258e-06
2.6527e-07
-2.17363e-06
2.17314e-07
-2.21944e-06
1.65112e-07
-2.25956e-06
1.09002e-07
-2.29358e-06
4.93846e-08
-2.32115e-06
-1.3286e-08
-2.3419e-06
-7.85203e-08
-2.35554e-06
-1.45747e-07
-2.14407e-07
-8.2828e-07
4.58511e-07
-8.78808e-07
4.69513e-07
-9.32622e-07
4.81416e-07
-9.89838e-07
4.93977e-07
-1.05051e-06
5.06879e-07
-1.1146e-06
5.1973e-07
-1.18201e-06
5.32076e-07
-1.25254e-06
5.43414e-07
-1.32591e-06
5.53204e-07
-1.40176e-06
5.6089e-07
-1.47965e-06
5.65911e-07
-1.55907e-06
5.67718e-07
-1.63945e-06
5.65794e-07
-1.7202e-06
5.59664e-07
-1.80066e-06
5.48914e-07
-1.88018e-06
5.33199e-07
-1.95809e-06
5.12252e-07
-2.03374e-06
4.85894e-07
-2.10649e-06
4.54033e-07
-2.17573e-06
4.16667e-07
-2.24091e-06
3.73881e-07
-2.30148e-06
3.25844e-07
-2.35697e-06
2.72802e-07
-2.40693e-06
2.15073e-07
-2.45096e-06
1.53035e-07
-2.4887e-06
8.7125e-08
-2.51982e-06
1.78292e-08
-2.54401e-06
-5.43296e-08
-2.56099e-06
-1.2877e-07
-2.04922e-07
-8.71824e-07
5.10684e-07
-9.27571e-07
5.2526e-07
-9.87053e-07
5.40898e-07
-1.05036e-06
5.57285e-07
-1.11751e-06
5.74024e-07
-1.18841e-06
5.90634e-07
-1.2629e-06
6.06565e-07
-1.34071e-06
6.21221e-07
-1.42147e-06
6.3397e-07
-1.50475e-06
6.44168e-07
-1.59002e-06
6.51177e-07
-1.67668e-06
6.54383e-07
-1.7641e-06
6.53214e-07
-1.8516e-06
6.47161e-07
-1.93847e-06
6.35786e-07
-2.02401e-06
6.18741e-07
-2.10753e-06
5.95771e-07
-2.18836e-06
5.66719e-07
-2.26585e-06
5.31531e-07
-2.33944e-06
4.90249e-07
-2.40857e-06
4.4301e-07
-2.47276e-06
3.90037e-07
-2.53158e-06
3.31626e-07
-2.58466e-06
2.68146e-07
-2.63164e-06
2.0002e-07
-2.67224e-06
1.27722e-07
-2.70618e-06
5.17673e-08
-2.73321e-06
-2.72963e-08
-2.7531e-06
-1.08878e-07
-1.92418e-07
-9.16704e-07
5.67819e-07
-9.77859e-07
5.86415e-07
-1.04317e-06
6.06205e-07
-1.11268e-06
6.26797e-07
-1.18635e-06
6.47698e-07
-1.26404e-06
6.68323e-07
-1.3455e-06
6.8802e-07
-1.43036e-06
7.0609e-07
-1.5182e-06
7.21802e-07
-1.60845e-06
7.34425e-07
-1.70052e-06
7.43244e-07
-1.79372e-06
7.47583e-07
-1.88733e-06
7.46828e-07
-1.98062e-06
7.40444e-07
-2.07282e-06
7.27989e-07
-2.1632e-06
7.09125e-07
-2.25106e-06
6.83627e-07
-2.33573e-06
6.51383e-07
-2.41659e-06
6.12392e-07
-2.4931e-06
5.6676e-07
-2.56477e-06
5.14687e-07
-2.6312e-06
4.56461e-07
-2.69202e-06
3.92444e-07
-2.74693e-06
3.23056e-07
-2.79568e-06
2.48772e-07
-2.83806e-06
1.70103e-07
-2.87388e-06
8.7589e-08
-2.90296e-06
1.78663e-09
-2.92515e-06
-8.66906e-08
-1.77325e-07
-9.62518e-07
6.30042e-07
-1.02917e-06
6.53064e-07
-1.10034e-06
6.77375e-07
-1.17602e-06
7.02483e-07
-1.25611e-06
7.27787e-07
-1.34038e-06
7.5259e-07
-1.42848e-06
7.76125e-07
-1.51998e-06
7.97582e-07
-1.61431e-06
8.16132e-07
-1.71084e-06
8.30955e-07
-1.80885e-06
8.41264e-07
-1.9076e-06
8.46333e-07
-2.00629e-06
8.45516e-07
-2.10412e-06
8.3827e-07
-2.20029e-06
8.24166e-07
-2.29407e-06
8.02899e-07
-2.38473e-06
7.74294e-07
-2.47166e-06
7.38304e-07
-2.55427e-06
6.95002e-07
-2.63208e-06
6.44572e-07
-2.70469e-06
5.87297e-07
-2.77177e-06
5.23541e-07
-2.83306e-06
4.53735e-07
-2.88836e-06
3.78361e-07
-2.93754e-06
2.97944e-07
-2.98046e-06
2.13031e-07
-3.01706e-06
1.24185e-07
-3.04725e-06
3.19744e-08
-3.07093e-06
-6.30098e-08
-1.6026e-07
-1.00875e-06
6.97375e-07
-1.08086e-06
7.25177e-07
-1.15779e-06
7.54305e-07
-1.23946e-06
7.84156e-07
-1.32568e-06
8.14007e-07
-1.41613e-06
8.43036e-07
-1.51036e-06
8.70353e-07
-1.60781e-06
8.95036e-07
-1.70783e-06
9.16155e-07
-1.80969e-06
9.32806e-07
-1.91256e-06
9.44142e-07
-2.01563e-06
9.49397e-07
-2.11803e-06
9.47913e-07
-2.21891e-06
9.39157e-07
-2.31748e-06
9.22736e-07
-2.41299e-06
8.98402e-07
-2.50475e-06
8.66053e-07
-2.59217e-06
8.25727e-07
-2.67476e-06
7.77593e-07
-2.75212e-06
7.21929e-07
-2.82393e-06
6.59114e-07
-2.88999e-06
5.89598e-07
-2.95015e-06
5.13891e-07
-3.00432e-06
4.32536e-07
-3.05248e-06
3.46107e-07
-3.09464e-06
2.55188e-07
-3.13082e-06
1.60364e-07
-3.16104e-06
6.2196e-08
-3.1853e-06
-3.87531e-08
-1.4198e-07
-1.05477e-06
7.6973e-07
-1.13219e-06
8.02593e-07
-1.21463e-06
8.3675e-07
-1.30194e-06
8.7147e-07
-1.39383e-06
9.05894e-07
-1.48986e-06
9.39068e-07
-1.58948e-06
9.69975e-07
-1.69203e-06
9.97577e-07
-1.79672e-06
1.02085e-06
-1.90273e-06
1.03881e-06
-2.00915e-06
1.05057e-06
-2.1151e-06
1.05534e-06
-2.21965e-06
1.05247e-06
-2.32194e-06
1.04145e-06
-2.42118e-06
1.02197e-06
-2.51663e-06
9.93849e-07
-2.60766e-06
9.57086e-07
-2.69376e-06
9.11826e-07
-2.77452e-06
8.5835e-07
-2.84964e-06
7.9705e-07
-2.91893e-06
7.28408e-07
-2.9823e-06
6.52971e-07
-3.03974e-06
5.71327e-07
-3.09129e-06
4.84084e-07
-3.13704e-06
3.9186e-07
-3.17714e-06
-3.21171e-06
-3.24088e-06
-3.26474e-06
-1.09986e-06
8.469e-07
-1.18229e-06
8.8502e-07
-1.26986e-06
9.24314e-07
-1.3623e-06
9.63912e-07
-1.45921e-06
1.00281e-06
-1.56006e-06
1.03991e-06
-1.66416e-06
1.07407e-06
-1.77073e-06
1.10414e-06
-1.87889e-06
1.12901e-06
-1.98771e-06
1.14763e-06
-2.09622e-06
1.15908e-06
-2.20346e-06
1.16258e-06
-2.3085e-06
1.1575e-06
-2.41046e-06
1.14342e-06
-2.50857e-06
1.12008e-06
-2.60215e-06
1.08743e-06
-2.69065e-06
1.04558e-06
-2.77364e-06
9.94817e-07
-2.85083e-06
9.35536e-07
-2.92204e-06
8.68257e-07
-2.9872e-06
7.93575e-07
-3.04637e-06
7.12135e-07
-3.09965e-06
6.2461e-07
-3.14724e-06
5.31678e-07
4.33964e-07
-1.14325e-06
9.28557e-07
-1.23026e-06
9.72029e-07
-1.3224e-06
1.01646e-06
-1.41931e-06
1.06082e-06
-1.52046e-06
1.10396e-06
-1.62519e-06
1.14464e-06
-1.73269e-06
1.18158e-06
-1.84208e-06
1.21353e-06
-1.95236e-06
1.2393e-06
-2.06254e-06
1.25781e-06
-2.17157e-06
1.26812e-06
-2.27847e-06
1.26947e-06
-2.38229e-06
1.26132e-06
-2.48219e-06
1.24331e-06
-2.57743e-06
1.21532e-06
-2.66742e-06
1.17742e-06
-2.7517e-06
1.12986e-06
-2.82996e-06
1.07308e-06
-2.90203e-06
1.00761e-06
-2.96787e-06
9.34097e-07
-3.02755e-06
8.53261e-07
-3.08126e-06
7.6584e-07
-3.12923e-06
6.72585e-07
-3.17178e-06
5.74228e-07
4.71405e-07
-1.18408e-06
1.01425e-06
-1.27512e-06
1.06307e-06
-1.37118e-06
1.11251e-06
-1.47176e-06
1.1614e-06
-1.57621e-06
1.20842e-06
-1.68376e-06
1.25218e-06
-1.79348e-06
1.2913e-06
-1.90437e-06
1.32442e-06
-2.01536e-06
1.35029e-06
-2.12538e-06
1.36783e-06
-2.23336e-06
1.37609e-06
-2.33829e-06
1.3744e-06
-2.43925e-06
1.36228e-06
-2.53544e-06
1.33951e-06
-2.62622e-06
1.3061e-06
-2.71108e-06
1.26228e-06
-2.78969e-06
1.20847e-06
-2.86186e-06
1.14525e-06
-2.92757e-06
1.07331e-06
-2.98691e-06
9.93438e-07
-3.04009e-06
9.06449e-07
-3.08743e-06
8.13177e-07
-3.12928e-06
7.14438e-07
-3.16606e-06
6.11004e-07
5.03523e-07
-1.22152e-06
1.10344e-06
-1.31593e-06
1.15747e-06
-1.4151e-06
1.21169e-06
-1.51845e-06
1.26474e-06
-1.62518e-06
1.31515e-06
-1.7344e-06
1.3614e-06
-1.84507e-06
1.40197e-06
-1.95611e-06
1.43546e-06
-2.06638e-06
1.46056e-06
-2.17476e-06
1.4762e-06
-2.28016e-06
1.4815e-06
-2.38159e-06
1.47584e-06
-2.4782e-06
1.45889e-06
-2.56925e-06
1.43057e-06
-2.6542e-06
1.39105e-06
-2.73268e-06
1.34075e-06
-2.80447e-06
1.28026e-06
-2.86955e-06
1.21033e-06
-2.92802e-06
1.13179e-06
-2.98013e-06
1.04555e-06
-3.02622e-06
9.52533e-07
-3.06669e-06
8.53653e-07
-3.10202e-06
7.49772e-07
-3.13271e-06
6.41688e-07
5.30051e-07
-1.25473e-06
1.19546e-06
-1.35174e-06
1.25448e-06
-1.45317e-06
1.31312e-06
-1.55828e-06
1.36986e-06
-1.6662e-06
1.42307e-06
-1.7759e-06
1.47109e-06
-1.88625e-06
1.51233e-06
-1.9961e-06
1.54531e-06
-2.10426e-06
1.56873e-06
-2.20959e-06
1.58153e-06
-2.31103e-06
1.58293e-06
-2.40763e-06
1.57244e-06
-2.49861e-06
1.54987e-06
-2.58335e-06
1.51531e-06
-2.66143e-06
1.46913e-06
-2.73261e-06
1.41193e-06
-2.79683e-06
1.34449e-06
-2.85421e-06
1.26771e-06
-2.90501e-06
1.18258e-06
-2.94959e-06
1.09013e-06
-2.98841e-06
9.9135e-07
-3.02198e-06
8.87221e-07
-3.05084e-06
7.78633e-07
-3.07554e-06
6.66388e-07
5.51129e-07
-1.28291e-06
1.28959e-06
-1.38169e-06
1.35326e-06
-1.48444e-06
1.41587e-06
-1.59031e-06
1.47573e-06
-1.69829e-06
1.53105e-06
-1.80727e-06
1.58008e-06
-1.91607e-06
1.62113e-06
-2.02345e-06
1.65269e-06
-2.12823e-06
1.6735e-06
-2.22927e-06
1.68257e-06
-2.32556e-06
1.67922e-06
-2.41622e-06
1.66311e-06
-2.50059e-06
1.63423e-06
-2.57817e-06
1.59289e-06
-2.64868e-06
1.53964e-06
-2.71204e-06
1.47529e-06
-2.76835e-06
1.4008e-06
-2.81787e-06
1.31723e-06
-2.86099e-06
1.2257e-06
-2.89818e-06
1.12732e-06
-2.93001e-06
1.02318e-06
-2.95704e-06
9.14258e-07
-2.97989e-06
8.01481e-07
-2.99909e-06
6.85582e-07
-1.30535e-06
1.38504e-06
-1.40503e-06
1.45294e-06
-1.50814e-06
1.51898e-06
-1.61372e-06
1.58131e-06
-1.72067e-06
1.63801e-06
-1.8278e-06
1.68721e-06
-1.93388e-06
1.7272e-06
-2.03765e-06
1.75646e-06
-2.13794e-06
1.77379e-06
-2.23364e-06
1.77828e-06
-2.32383e-06
1.76941e-06
-2.40775e-06
1.74702e-06
-2.48483e-06
1.71132e-06
-2.55475e-06
1.66281e-06
-2.61738e-06
1.60227e-06
-2.6728e-06
1.53071e-06
-2.72125e-06
1.44925e-06
-2.76314e-06
1.35912e-06
-2.79897e-06
1.26153e-06
-2.82932e-06
1.15768e-06
-2.8548e-06
1.04866e-06
-2.87604e-06
9.3549e-07
-2.89363e-06
8.19069e-07
7.00084e-07
-1.32143e-06
1.48101e-06
-1.42112e-06
1.55263e-06
-1.52363e-06
1.62149e-06
-1.62791e-06
1.68559e-06
-1.73279e-06
1.74289e-06
-1.83703e-06
1.79145e-06
-1.93935e-06
1.82952e-06
-2.03853e-06
1.85564e-06
-2.13341e-06
1.86867e-06
-2.22298e-06
1.86785e-06
-2.30641e-06
1.85283e-06
-2.38306e-06
1.82367e-06
-2.45253e-06
1.78079e-06
-2.51464e-06
1.72492e-06
-2.56944e-06
1.65707e-06
-2.61715e-06
1.57842e-06
-2.65817e-06
1.49027e-06
-2.69301e-06
1.39396e-06
-2.72229e-06
1.2908e-06
-2.74665e-06
1.18204e-06
-2.76672e-06
1.06873e-06
-2.78313e-06
-2.79647e-06
-1.33064e-06
1.57668e-06
-1.42946e-06
1.65145e-06
-1.53046e-06
1.72248e-06
-1.6325e-06
1.78763e-06
-1.73436e-06
1.84475e-06
-1.83478e-06
1.89186e-06
-1.93248e-06
1.92723e-06
-2.02627e-06
1.94943e-06
-2.11506e-06
1.95746e-06
-2.19795e-06
1.95074e-06
-2.27422e-06
1.92911e-06
-2.3434e-06
1.89285e-06
-2.40524e-06
1.84263e-06
-2.45972e-06
1.77941e-06
-2.50706e-06
1.7044e-06
-2.54761e-06
1.61898e-06
-2.58192e-06
1.52458e-06
-2.61058e-06
1.42263e-06
-2.63428e-06
1.3145e-06
-2.65368e-06
1.20144e-06
1.08448e-06
-1.33261e-06
1.67124e-06
-1.42973e-06
1.74857e-06
-1.52835e-06
1.8211e-06
-1.62729e-06
1.88657e-06
-1.72531e-06
1.94277e-06
-1.82113e-06
1.98768e-06
-1.91351e-06
2.01961e-06
-2.00133e-06
2.03725e-06
-2.08359e-06
2.03972e-06
-2.1595e-06
2.02665e-06
-2.22851e-06
1.99811e-06
-2.29029e-06
1.95463e-06
-2.34476e-06
1.89709e-06
-2.39207e-06
1.82671e-06
-2.43256e-06
1.7449e-06
-2.46675e-06
1.65317e-06
-2.49526e-06
1.55308e-06
-2.51877e-06
1.44614e-06
-2.53799e-06
1.33372e-06
-2.55361e-06
1.21706e-06
1.09713e-06
-1.32712e-06
1.76393e-06
-1.42175e-06
1.8432e-06
-1.51722e-06
1.91657e-06
-1.61232e-06
1.98167e-06
-1.70579e-06
2.03624e-06
-1.7964e-06
2.07829e-06
-1.88296e-06
2.10617e-06
-1.96443e-06
2.11871e-06
-2.03994e-06
2.11523e-06
-2.10883e-06
2.09555e-06
-2.1707e-06
2.05999e-06
-2.22539e-06
2.00932e-06
-2.27298e-06
1.94468e-06
-2.31377e-06
1.8675e-06
-2.34824e-06
1.77937e-06
-2.37701e-06
1.68193e-06
-2.40076e-06
1.57683e-06
-2.42023e-06
1.46561e-06
-2.43614e-06
1.34963e-06
-2.44916e-06
1.23008e-06
1.10786e-06
-1.31405e-06
1.85404e-06
-1.4055e-06
1.93464e-06
-1.49714e-06
2.00822e-06
-1.58777e-06
2.0723e-06
-1.67616e-06
2.12463e-06
-1.76111e-06
2.16324e-06
-1.84153e-06
2.18659e-06
-1.91648e-06
2.19366e-06
-1.98522e-06
2.18397e-06
-2.04724e-06
2.15758e-06
-2.10231e-06
2.11505e-06
-2.15041e-06
2.05742e-06
-2.19179e-06
1.98606e-06
-2.22686e-06
1.90258e-06
-2.25623e-06
1.80873e-06
-2.28058e-06
1.70628e-06
-2.30065e-06
1.59691e-06
-2.3172e-06
1.48216e-06
-2.33093e-06
1.36336e-06
-2.34247e-06
1.24162e-06
1.11774e-06
-1.29346e-06
1.94093e-06
-1.3811e-06
2.02228e-06
-1.46835e-06
2.09547e-06
-1.55401e-06
2.15797e-06
-1.63691e-06
2.20753e-06
-1.71592e-06
2.24225e-06
-1.79005e-06
2.26072e-06
-1.85848e-06
2.26209e-06
-1.92062e-06
2.24611e-06
-1.97611e-06
2.21307e-06
-2.02486e-06
2.1638e-06
-2.06701e-06
2.09957e-06
-2.10293e-06
2.02198e-06
-2.13317e-06
1.93282e-06
-2.15839e-06
1.83395e-06
-2.17933e-06
1.72723e-06
-2.19677e-06
1.61435e-06
-2.21144e-06
1.49683e-06
-2.224e-06
1.37592e-06
-2.23502e-06
1.25264e-06
1.12767e-06
-1.26549e-06
2.02404e-06
-1.34881e-06
2.1056e-06
-1.43121e-06
2.17787e-06
-1.51154e-06
2.2383e-06
-1.58868e-06
2.28467e-06
-1.66162e-06
2.31518e-06
-1.72947e-06
2.32856e-06
-1.79153e-06
2.32416e-06
-1.84737e-06
2.30195e-06
-1.89678e-06
2.26247e-06
-1.9398e-06
2.20682e-06
-1.97671e-06
2.13648e-06
-2.00799e-06
2.05326e-06
-2.03427e-06
1.95909e-06
-2.05627e-06
1.85595e-06