/*--------------------------------*- C++ -*----------------------------------*\
  =========                 |
  \\      /  F ield         | OpenFOAM: The Open Source CFD Toolbox
   \\    /   O peration     | Website:  https://openfoam.org
    \\  /    A nd           | Version:  9
     \\/     M anipulation  |
\*---------------------------------------------------------------------------*/
FoamFile
{
    format      ascii;
    class       volVectorField;
    location    "1";
    object      U;
}
// * * * * * * * * * * * * * * * * * * * * * * * * * * * * * * * * * * * * * //

dimensions      [0 1 -1 0 0 0 0];

internalField   nonuniform List<vector> 
1250
(
(-0.00228391 2.88053e-05 0)
(-0.00238999 2.87888e-05 0)
(-0.002495 2.86518e-05 0)
(-0.00259847 2.8376e-05 0)
(-0.00269985 2.7944e-05 0)
(-0.00279855 2.73381e-05 0)
(-0.00289393 2.6541e-05 0)
(-0.00298528 2.55349e-05 0)
(-0.00307185 2.43023e-05 0)
(-0.00315284 2.28261e-05 0)
(-0.0032274 2.10903e-05 0)
(-0.00329465 1.90802e-05 0)
(-0.00335365 1.6783e-05 0)
(-0.00340345 1.41891e-05 0)
(-0.0034431 1.12924e-05 0)
(-0.00347161 8.09149e-06 0)
(-0.00348805 4.59063e-06 0)
(-0.00349149 7.99539e-07 0)
(-0.00348107 -3.26635e-06 0)
(-0.00345599 -7.58161e-06 0)
(-0.00341557 -1.2114e-05 0)
(-0.00335924 -1.68235e-05 0)
(-0.00328659 -2.16617e-05 0)
(-0.00319738 -2.65726e-05 0)
(-0.00309155 -3.14932e-05 0)
(-0.00296926 -3.63543e-05 0)
(-0.00283091 -4.10814e-05 0)
(-0.00267714 -4.55964e-05 0)
(-0.00250881 -4.98183e-05 0)
(-0.00232707 -5.36654e-05 0)
(-0.0021333 -5.70575e-05 0)
(-0.00192913 -5.9919e-05 0)
(-0.0017164 -6.21889e-05 0)
(-0.00670259 0.000207129 0)
(-0.00699698 0.000205259 0)
(-0.00728684 0.000202501 0)
(-0.00757082 0.000198746 0)
(-0.00784741 0.000193891 0)
(-0.00811501 0.000187834 0)
(-0.00837189 0.000180475 0)
(-0.00861616 0.000171717 0)
(-0.00884586 0.000161463 0)
(-0.00905889 0.000149626 0)
(-0.00925307 0.000136124 0)
(-0.00942612 0.000120888 0)
(-0.00957568 0.000103861 0)
(-0.00969939 8.50094e-05 0)
(-0.00979484 6.43211e-05 0)
(-0.00985966 4.1814e-05 0)
(-0.00989152 1.75379e-05 0)
(-0.00988823 -8.42599e-06 0)
(-0.00984774 -3.59433e-05 0)
(-0.0097682 -6.48437e-05 0)
(-0.00964805 -9.49119e-05 0)
(-0.00948606 -0.000125886 0)
(-0.00928135 -0.00015746 0)
(-0.00903352 -0.000189285 0)
(-0.00874261 -0.000220973 0)
(-0.00840923 -0.000252106 0)
(-0.00803452 -0.000282238 0)
(-0.00762022 -0.000310906 0)
(-0.00716868 -0.000337633 0)
(-0.00668285 -0.000361946 0)
(-0.00616627 -0.000383383 0)
(-0.00562307 -0.000401519 0)
(-0.00505786 -0.000416 0)
(-0.0109673 0.000593603 0)
(-0.0114294 0.000585962 0)
(-0.0118825 0.000575756 0)
(-0.0123247 0.000562707 0)
(-0.0127534 0.000546549 0)
(-0.0131663 0.000527022 0)
(-0.0135608 0.000503876 0)
(-0.013934 0.000476865 0)
(-0.014283 0.000445759 0)
(-0.0146046 0.000410342 0)
(-0.0148957 0.000370424 0)
(-0.0151529 0.000325848 0)
(-0.0153727 0.000276499 0)
(-0.0155518 0.000222315 0)
(-0.0156867 0.000163301 0)
(-0.0157739 9.95371e-05 0)
(-0.0158103 3.11895e-05 0)
(-0.0157926 -4.1485e-05 0)
(-0.0157182 -0.000118104 0)
(-0.0155843 -0.000198188 0)
(-0.015389 -0.000281142 0)
(-0.0151306 -0.000366252 0)
(-0.0148079 -0.000452694 0)
(-0.0144207 -0.000539538 0)
(-0.0139691 -0.00062576 0)
(-0.0134541 -0.000710258 0)
(-0.0128777 -0.000791868 0)
(-0.0122424 -0.000869383 0)
(-0.0115518 -0.000941575 0)
(-0.0108103 -0.00100722 0)
(-0.010023 -0.00106513 0)
(-0.00919607 -0.00111422 0)
(-0.00833614 -0.00115357 0)
(-0.0150746 0.00114137 0)
(-0.0156866 0.0011235 0)
(-0.0162846 0.00110071 0)
(-0.0168659 0.0010725 0)
(-0.0174277 0.00103841 0)
(-0.0179667 0.000997994 0)
(-0.0184795 0.000950809 0)
(-0.0189627 0.000896438 0)
(-0.0194125 0.000834486 0)
(-0.019825 0.000764594 0)
(-0.0201963 0.000686446 0)
(-0.0205222 0.000599792 0)
(-0.0207984 0.000504459 0)
(-0.0210208 0.000400376 0)
(-0.0211852 0.000287588 0)
(-0.0212873 0.000166282 0)
(-0.0213234 3.68008e-05 0)
(-0.0212895 -0.000100341 0)
(-0.0211823 -0.000244433 0)
(-0.0209988 -0.000394568 0)
(-0.0207365 -0.000549638 0)
(-0.0203936 -0.000708331 0)
(-0.0199688 -0.000869138 0)
(-0.0194617 -0.00103037 0)
(-0.0188729 -0.00119017 0)
(-0.0182036 -0.00134656 0)
(-0.0174563 -0.00149744 0)
(-0.0166344 -0.00164067 0)
(-0.0157422 -0.00177403 0)
(-0.0147851 -0.00189536 0)
(-0.0137697 -0.00200252 0)
(-0.0127035 -0.00209359 0)
(-0.0115948 -0.00216692 0)
(-0.0190237 0.00183088 0)
(-0.0197702 0.00179793 0)
(-0.0204976 0.00175714 0)
(-0.0212027 0.00170779 0)
(-0.0218819 0.00164921 0)
(-0.0225318 0.00158073 0)
(-0.0231483 0.00150173 0)
(-0.0237274 0.0014116 0)
(-0.0242648 0.00130977 0)
(-0.0247561 0.00119572 0)
(-0.0251967 0.001069 0)
(-0.025582 0.000929283 0)
(-0.025907 0.000776332 0)
(-0.0261671 0.000610078 0)
(-0.0263574 0.000430631 0)
(-0.0264733 0.000238316 0)
(-0.0265102 3.36923e-05 0)
(-0.026464 -0.000182414 0)
(-0.0263307 -0.000408892 0)
(-0.026107 -0.000644333 0)
(-0.0257901 -0.000887025 0)
(-0.0253779 -0.00113495 0)
(-0.0248691 -0.0013858 0)
(-0.0242632 -0.001637 0)
(-0.0235608 -0.00188574 0)
(-0.0227634 -0.00212901 0)
(-0.0218738 -0.00236364 0)
(-0.0208958 -0.00258638 0)
(-0.0198345 -0.00279393 0)
(-0.0186959 -0.00298297 0)
(-0.0174875 -0.00315031 0)
(-0.0162179 -0.00329298 0)
(-0.0148966 -0.00340851 0)
(-0.0228166 0.00265024 0)
(-0.023685 0.00259724 0)
(-0.0245293 0.00253306 0)
(-0.025346 0.00245676 0)
(-0.0261312 0.00236745 0)
(-0.026881 0.00226425 0)
(-0.027591 0.00214634 0)
(-0.028257 0.0020129 0)
(-0.0288742 0.0018632 0)
(-0.0294379 0.00169653 0)
(-0.0299431 0.00151233 0)
(-0.0303846 0.00131014 0)
(-0.0307574 0.00108968 0)
(-0.0310561 0.000850875 0)
(-0.0312755 0.000593903 0)
(-0.0314104 0.000319232 0)
(-0.0314559 2.76615e-05 0)
(-0.0314074 -0.000279633 0)
(-0.0312604 -0.000601117 0)
(-0.0310113 -0.000934829 0)
(-0.0306569 -0.00127839 0)
(-0.0301946 -0.00162901 0)
(-0.029623 -0.00198351 0)
(-0.0289414 -0.00233832 0)
(-0.0281501 -0.00268958 0)
(-0.0272509 -0.00303313 0)
(-0.0262464 -0.00336465 0)
(-0.0251407 -0.00367965 0)
(-0.0239391 -0.0039736 0)
(-0.0226483 -0.00424194 0)
(-0.0212761 -0.00448019 0)
(-0.0198321 -0.00468422 0)
(-0.0183265 -0.00485052 0)
(-0.0264586 0.00358836 0)
(-0.0274392 0.00351063 0)
(-0.0283914 0.0034181 0)
(-0.0293112 0.00330963 0)
(-0.0301948 0.00318412 0)
(-0.031038 0.0030405 0)
(-0.0318364 0.00287772 0)
(-0.0325854 0.00269477 0)
(-0.0332803 0.00249069 0)
(-0.033916 0.00226463 0)
(-0.0344873 0.00201583 0)
(-0.0349888 0.0017437 0)
(-0.0354149 0.00144789 0)
(-0.0357601 0.00112829 0)
(-0.0360187 0.000785115 0)
(-0.0361851 0.00041897 0)
(-0.0362537 3.08757e-05 0)
(-0.0362195 -0.000377655 0)
(-0.0360776 -0.000804652 0)
(-0.0358237 -0.00124759 0)
(-0.035454 -0.0017034 0)
(-0.0349655 -0.00216848 0)
(-0.0343562 -0.00263871 0)
(-0.0336249 -0.00310951 0)
(-0.0327717 -0.00357585 0)
(-0.0317979 -0.00403236 0)
(-0.030706 -0.00447343 0)
(-0.0294998 -0.00489328 0)
(-0.0281847 -0.00528606 0)
(-0.0267674 -0.00564575 0)
(-0.0252563 -0.00596637 0)
(-0.0236611 -0.00624231 0)
(-0.0219934 -0.00646906 0)
(-0.0299587 0.00463661 0)
(-0.0310451 0.0045301 0)
(-0.0320993 0.0044051 0)
(-0.0331178 0.00426027 0)
(-0.0340966 0.00409431 0)
(-0.0350316 0.00390594 0)
(-0.0359184 0.00369391 0)
(-0.0367525 0.00345697 0)
(-0.037529 0.00319393 0)
(-0.0382428 0.0029037 0)
(-0.0388886 0.00258531 0)
(-0.0394606 0.002238 0)
(-0.0399531 0.00186125 0)
(-0.0403601 0.00145487 0)
(-0.0406755 0.00101908 0)
(-0.040893 0.000554542 0)
(-0.0410067 6.24506e-05 0)
(-0.0410107 -0.000455406 0)
(-0.0408994 -0.000996633 0)
(-0.0406676 -0.00155816 0)
(-0.0403109 -0.00213624 0)
(-0.0398253 -0.00272646 0)
(-0.039208 -0.00332374 0)
(-0.0384571 -0.00392242 0)
(-0.0375718 -0.00451627 0)
(-0.0365527 -0.00509861 0)
(-0.0354018 -0.00566246 0)
(-0.0341224 -0.00620067 0)
(-0.0327194 -0.00670593 0)
(-0.0311992 -0.00717039 0)
(-0.0295705 -0.0075862 0)
(-0.0278443 -0.00794665 0)
(-0.0260315 -0.00824594 0)
(-0.0333298 0.00578956 0)
(-0.0345187 0.00565129 0)
(-0.0356734 0.00549096 0)
(-0.0367904 0.00530702 0)
(-0.037866 0.005098 0)
(-0.0388964 0.00486241 0)
(-0.0398774 0.00459875 0)
(-0.0408046 0.00430549 0)
(-0.0416732 0.00398116 0)
(-0.0424781 0.00362436 0)
(-0.0432138 0.00323383 0)
(-0.0438746 0.00280852 0)
(-0.0444542 0.00234768 0)
(-0.0449462 0.00185093 0)
(-0.0453439 0.00131837 0)
(-0.0456404 0.000750626 0)
(-0.0458289 0.00014899 0)
(-0.0459025 -0.000484563 0)
(-0.0458546 -0.00114729 0)
(-0.0456791 -0.00183564 0)
(-0.0453701 -0.00254521 0)
(-0.0449225 -0.00327081 0)
(-0.0443324 -0.00400639 0)
(-0.0435964 -0.00474518 0)
(-0.0427126 -0.00547971 0)
(-0.0416805 -0.00620191 0)
(-0.0405011 -0.00690333 0)
(-0.0391768 -0.00757532 0)
(-0.0377112 -0.00820869 0)
(-0.0361115 -0.00879374 0)
(-0.0343862 -0.00932075 0)
(-0.0365885 0.00704522 0)
(-0.0378806 0.00687371 0)
(-0.0391382 0.00667687 0)
(-0.0403583 0.006453 0)
(-0.0415376 0.00620044 0)
(-0.0426727 0.00591745 0)
(-0.0437598 0.00560222 0)
(-0.0447947 0.0052529 0)
(-0.0457728 0.00486762 0)
(-0.0466892 0.00444457 0)
(-0.0475382 0.00398208 0)
(-0.0483138 0.00347866 0)
(-0.0490094 0.00293319 0)
(-0.0496179 0.00234494 0)
(-0.0501319 0.00171374 0)
(-0.0505435 0.00104005 0)
(-0.0508447 0.000325114 0)
(-0.0510276 -0.000429027 0)
(-0.051084 -0.00121941 0)
(-0.0510061 -0.00204208 0)
(-0.0507866 -0.00289207 0)
(-0.0504187 -0.00376341 0)
(-0.0498966 -0.00464915 0)
(-0.0492153 -0.00554136 0)
(-0.0483712 -0.00643127 0)
(-0.0473621 -0.00730935 0)
(-0.0461876 -0.00816554 0)
(-0.0448485 -0.0089894 0)
(-0.0433479 -0.00976989 0)
(-0.0397549 0.00840538 0)
(-0.0411551 0.00820108 0)
(-0.0425228 0.00796875 0)
(-0.0438557 0.00770653 0)
(-0.0451511 0.00741254 0)
(-0.0464063 0.00708473 0)
(-0.0476179 0.00672092 0)
(-0.0487822 0.0063188 0)
(-0.0498948 0.00587598 0)
(-0.0509509 0.00539008 0)
(-0.0519445 0.00485881 0)
(-0.0528694 0.0042801 0)
(-0.0537184 0.00365223 0)
(-0.0544835 0.00297392 0)
(-0.0551564 0.00224454 0)
(-0.0557278 0.00146417 0)
(-0.0561884 0.000633808 0)
(-0.0565283 -0.000244598 0)
(-0.0567376 -0.00116795 0)
(-0.0568065 -0.0021321 0)
(-0.0567256 -0.00313158 0)
(-0.0564857 -0.00415975 0)
(-0.0560787 -0.0052087 0)
(-0.0554974 -0.00626939 0)
(-0.0547359 -0.00733167 0)
(-0.05379 -0.00838442 0)
(-0.0526572 -0.00941579 0)
(-0.0513361 -0.0104133 0)
(-0.0498286 -0.0113639 0)
(-0.0428529 0.0098759 0)
(-0.0443706 0.00964171 0)
(-0.0458605 0.00937758 0)
(-0.0473214 0.00908147 0)
(-0.0487514 0.00875123 0)
(-0.0501484 0.00838444 0)
(-0.0515099 0.00797839 0)
(-0.0528326 0.00753015 0)
(-0.0541123 0.00703663 0)
(-0.0553441 0.00649466 0)
(-0.056522 0.00590111 0)
(-0.0576391 0.00525306 0)
(-0.0586875 0.00454792 0)
(-0.0596581 0.00378363 0)
(-0.060541 0.00295882 0)
(-0.0613256 0.00207295 0)
(-0.0620004 0.00112653 0)
(-0.0625533 0.000121212 0)
(-0.0629721 -0.000939984 0)
(-0.0632445 -0.00205285 0)
(-0.0633581 -0.00321155 0)
(-0.0633011 -0.00440882 0)
(-0.0630623 -0.00563586 0)
(-0.0626318 -0.00688247 0)
(-0.0620007 -0.00813704 0)
(-0.061162 -0.00938675 0)
(-0.0601109 -0.0106178 0)
(-0.0588432 -0.0118154 0)
(-0.057359 -0.0129642 0)
(-0.0459095 0.0114671 0)
(-0.0475588 0.0112088 0)
(-0.0491883 0.0109197 0)
(-0.0507981 0.0105976 0)
(-0.0523873 0.0102398 0)
(-0.0539547 0.00984358 0)
(-0.0554985 0.0094054 0)
(-0.0570159 0.00892154 0)
(-0.058503 0.00838793 0)
(-0.0599547 0.00780033 0)
(-0.0613647 0.00715448 0)
(-0.0627253 0.00644629 0)
(-0.0640274 0.00567199 0)
(-0.0652605 0.00482841 0)
(-0.066413 0.00391311 0)
(-0.067472 0.00292466 0)
(-0.0684236 0.00186279 0)
(-0.069253 0.00072861 0)
(-0.0699451 -0.000475274 0)
(-0.0704842 -0.00174449 0)
(-0.0708547 -0.00307318 0)
(-0.0710411 -0.00445355 0)
(-0.071029 -0.0058759 0)
(-0.0708048 -0.00732882 0)
(-0.070356 -0.00879918 0)
(-0.0696726 -0.0102723 0)
(-0.0687466 -0.0117322 0)
(-0.0675703 -0.0131617 0)
(-0.0661417 -0.0145424 0)
(-0.0489542 0.0131939 0)
(-0.0507542 0.0129207 0)
(-0.0525463 0.0126172 0)
(-0.0543317 0.0122807 0)
(-0.056111 0.0119082 0)
(-0.057884 0.0114961 0)
(-0.0596496 0.01104 0)
(-0.0614054 0.0105351 0)
(-0.0631476 0.00997601 0)
(-0.064871 0.00935705 0)
(-0.0665686 0.00867248 0)
(-0.0682316 0.00791663 0)
(-0.0698493 0.00708421 0)
(-0.0714096 0.0061705 0)
(-0.0728983 0.00517169 0)
(-0.0742999 0.00408506 0)
(-0.0755976 0.00290928 0)
(-0.0767732 0.00164459 0)
(-0.0778078 0.000293048 0)
(-0.0786821 -0.00114117 0)
(-0.0793766 -0.00265212 0)
(-0.0798717 -0.00423183 0)
(-0.0801486 -0.00586951 0)
(-0.0801897 -0.00755254 0)
(-0.0799786 -0.00926619 0)
(-0.0795013 -0.0109937 0)
(-0.0787463 -0.0127168 0)
(-0.0777019 -0.0144154 0)
(-0.0763638 -0.0160681 0)
(-0.0520187 0.015076 0)
(-0.0539935 0.014801 0)
(-0.0559763 0.0144976 0)
(-0.05797 0.0141626 0)
(-0.0599766 0.0137925 0)
(-0.0619967 0.0133826 0)
(-0.0640301 0.0129273 0)
(-0.0660748 0.0124202 0)
(-0.068127 0.0118544 0)
(-0.0701808 0.0112222 0)
(-0.0722282 0.010516 0)
(-0.074259 0.00972815 0)
(-0.0762606 0.00885132 0)
(-0.0782185 0.00787888 0)
(-0.0801156 0.00680517 0)
(-0.0819331 0.00562586 0)
(-0.0836506 0.00433817 0)
(-0.0852461 0.00294124 0)
(-0.0866962 0.00143629 0)
(-0.0879774 -0.000173042 0)
(-0.0890657 -0.00188056 0)
(-0.0899368 -0.00367831 0)
(-0.090567 -0.00555448 0)
(-0.0909341 -0.00749512 0)
(-0.0910175 -0.00948375 0)
(-0.0907988 -0.0115014 0)
(-0.0902622 -0.0135272 0)
(-0.089392 -0.0155379 0)
(-0.088181 -0.0175084 0)
(-0.0551357 0.0171381 0)
(-0.0573143 0.0168786 0)
(-0.0595214 0.0165942 0)
(-0.0617616 0.0162813 0)
(-0.0640381 0.0159353 0)
(-0.0663529 0.0155502 0)
(-0.0687062 0.0151188 0)
(-0.0710962 0.0146327 0)
(-0.0735187 0.0140828 0)
(-0.075967 0.0134593 0)
(-0.0784317 0.0127519 0)
(-0.0809007 0.0119505 0)
(-0.0833588 0.0110453 0)
(-0.0857884 0.0100273 0)
(-0.0881692 0.00888845 0)
(-0.0904785 0.00762246 0)
(-0.0926914 0.00622479 0)
(-0.0947815 0.00469311 0)
(-0.0967208 0.00302758 0)
(-0.0984804 0.00123098 0)
(-0.100032 -0.000690553 0)
(-0.101346 -0.00272717 0)
(-0.102392 -0.00486801 0)
(-0.103146 -0.00709747 0)
(-0.103579 -0.00939698 0)
(-0.103671 -0.0117451 0)
(-0.103401 -0.014118 0)
(-0.102747 -0.016489 0)
(-0.101702 -0.018829 0)
(-0.0583379 0.0194093 0)
(-0.0607539 0.0191871 0)
(-0.0632237 0.0189454 0)
(-0.0657534 0.0186799 0)
(-0.0683478 0.0183844 0)
(-0.0710096 0.0180514 0)
(-0.0737396 0.0176713 0)
(-0.0765358 0.0172336 0)
(-0.0793932 0.0167263 0)
(-0.0823039 0.0161365 0)
(-0.0852565 0.0154511 0)
(-0.0882362 0.0146569 0)
(-0.0912249 0.013741 0)
(-0.0942013 0.0126915 0)
(-0.097141 0.0114977 0)
(-0.100017 0.0101508 0)
(-0.102799 0.00864431 0)
(-0.105456 0.0069741 0)
(-0.107955 0.00513913 0)
(-0.110262 0.00314148 0)
(-0.11234 0.000986886 0)
(-0.114158 -0.00131424 0)
(-0.115681 -0.00374962 0)
(-0.116876 -0.00630273 0)
(-0.117713 -0.00895283 0)
(-0.118165 -0.0116757 0)
(-0.118206 -0.0144443 0)
(-0.117811 -0.0172282 0)
(-0.116969 -0.0199939 0)
(-0.0616569 0.0219232 0)
(-0.0643481 0.0217648 0)
(-0.0671229 0.0215943 0)
(-0.0699893 0.021406 0)
(-0.0729531 0.0211922 0)
(-0.076018 0.0209428 0)
(-0.0791846 0.0206458 0)
(-0.0824505 0.0202874 0)
(-0.0858094 0.0198523 0)
(-0.0892515 0.019324 0)
(-0.0927626 0.0186859 0)
(-0.096325 0.0179209 0)
(-0.0999166 0.0170127 0)
(-0.103512 0.0159459 0)
(-0.107082 0.0147067 0)
(-0.110593 0.0132836 0)
(-0.114013 0.0116676 0)
(-0.117302 0.00985289 0)
(-0.120423 0.0078371 0)
(-0.123336 0.00562177 0)
(-0.125999 0.00321238 0)
(-0.128375 0.000618368 0)
(-0.130425 -0.00214496 0)
(-0.13211 -0.00505957 0)
(-0.133395 -0.00810306 0)
(-0.134249 -0.011248 0)
(-0.134643 -0.0144638 0)
(-0.134546 -0.0177162 0)
(-0.133945 -0.0209669 0)
(-0.0651219 0.0247169 0)
(-0.0681292 0.0246536 0)
(-0.0712544 0.0245873 0)
(-0.0745072 0.0245108 0)
(-0.0778945 0.0244139 0)
(-0.0814201 0.0242837 0)
(-0.0850843 0.0241049 0)
(-0.0888836 0.0238597 0)
(-0.0928097 0.0235287 0)
(-0.0968501 0.0230914 0)
(-0.100987 0.0225266 0)
(-0.1052 0.021813 0)
(-0.109461 0.0209303 0)
(-0.113739 0.0198591 0)
(-0.118002 0.0185824 0)
(-0.122209 0.0170853 0)
(-0.126322 0.0153565 0)
(-0.130297 0.0133883 0)
(-0.13409 0.0111769 0)
(-0.137655 0.00872337 0)
(-0.140947 0.00603321 0)
(-0.143921 0.00311674 0)
(-0.146535 -1.01218e-05 0)
(-0.148746 -0.0033264 0)
(-0.150516 -0.00680776 0)
(-0.151807 -0.0104233 0)
(-0.152588 -0.0141391 0)
(-0.152823 -0.0179162 0)
(-0.152497 -0.0217122 0)
(-0.068758 0.0278304 0)
(-0.0721241 0.0278978 0)
(-0.0756467 0.0279731 0)
(-0.0793368 0.0280468 0)
(-0.0832018 0.0281059 0)
(-0.0872454 0.0281337 0)
(-0.0914667 0.0281105 0)
(-0.0958602 0.0280141 0)
(-0.100415 0.0278203 0)
(-0.105115 0.0275035 0)
(-0.109939 0.0270376 0)
(-0.11486 0.0263964 0)
(-0.119846 0.0255549 0)
(-0.124861 0.0244897 0)
(-0.129864 0.0231798 0)
(-0.134813 0.0216075 0)
(-0.139659 0.0197588 0)
(-0.144356 0.0176242 0)
(-0.148852 0.0151989 0)
(-0.153098 0.0124835 0)
(-0.157043 0.00948392 0)
(-0.160639 0.00621171 0)
(-0.163838 0.0026839 0)
(-0.166596 -0.00107609 0)
(-0.16887 -0.00503875 0)
(-0.17062 -0.00917277 0)
(-0.171812 -0.0134397 0)
(-0.172406 -0.0177965 0)
(-0.172388 -0.022196 0)
(-0.0690008 0.0310979 0)
(-0.0725848 0.0313052 0)
(-0.076353 0.0315429 0)
(-0.0803196 0.0318008 0)
(-0.0844969 0.0320666 0)
(-0.088892 0.0323233 0)
(-0.0935075 0.0325497 0)
(-0.0983408 0.032721 0)
(-0.103383 0.0328095 0)
(-0.108621 0.0327853 0)
(-0.114032 0.0326171 0)
(-0.119591 0.0322731 0)
(-0.125266 0.0317221 0)
(-0.131018 0.0309338 0)
(-0.136804 0.0298804 0)
(-0.142579 0.0285372 0)
(-0.148293 0.0268834 0)
(-0.153892 0.0249027 0)
(-0.159324 0.0225842 0)
(-0.164533 0.0199224 0)
(-0.169465 0.0169181 0)
(-0.174065 0.0135782 0)
(-0.178284 0.00991572 0)
(-0.182069 0.0059499 0)
(-0.185372 0.00170648 0)
(-0.188153 -0.00278172 0)
(-0.19037 -0.00747972 0)
(-0.191984 -0.0123457 0)
(-0.192954 -0.0173321 0)
(-0.193267 -0.0223883 0)
(-0.0726292 0.0347781 0)
(-0.0766138 0.0351826 0)
(-0.0808256 0.0356334 0)
(-0.0852813 0.036118 0)
(-0.0899925 0.03662 0)
(-0.0949655 0.0371175 0)
(-0.100201 0.0375836 0)
(-0.105693 0.0379876 0)
(-0.11143 0.0382954 0)
(-0.117392 0.0384708 0)
(-0.123553 0.0384759 0)
(-0.12988 0.0382728 0)
(-0.136335 0.0378245 0)
(-0.142873 0.0370955 0)
(-0.149446 0.0360537 0)
(-0.155999 0.0346706 0)
(-0.162477 0.0329228 0)
(-0.168822 0.0307921 0)
(-0.174976 0.0282668 0)
(-0.180879 0.0253416 0)
(-0.186475 0.022018 0)
(-0.191706 0.0183045 0)
(-0.19652 0.0142166 0)
(-0.200866 0.00977641 0)
(-0.204695 0.00501227 0)
(-0.207965 -4.16407e-05 0)
(-0.210635 -0.00534384 0)
(-0.212667 -0.0108497 0)
(-0.214017 -0.0165083 0)
(-0.214675 -0.0222655 0)
(-0.0764245 0.0388562 0)
(-0.0808461 0.039502 0)
(-0.0855414 0.0402114 0)
(-0.0905268 0.0409686 0)
(-0.095813 0.0417516 0)
(-0.101404 0.0425327 0)
(-0.107299 0.0432785 0)
(-0.113486 0.0439511 0)
(-0.119948 0.0445093 0)
(-0.126661 0.0449094 0)
(-0.133591 0.0451069 0)
(-0.1407 0.045057 0)
(-0.147941 0.0447167 0)
(-0.155262 0.0440455 0)
(-0.162607 0.043007 0)
(-0.169917 0.0415696 0)
(-0.177131 0.0397077 0)
(-0.184185 0.0374023 0)
(-0.191017 0.0346416 0)
(-0.197567 0.0314213 0)
(-0.203774 0.0277448 0)
(-0.209582 0.0236231 0)
(-0.214938 0.0190747 0)
(-0.219792 0.0141248 0)
(-0.224099 0.00880553 0)
(-0.227815 0.00315451 0)
(-0.230905 -0.00278396 0)
(-0.23333 -0.0089611 0)
(-0.235049 -0.015323 0)
(-0.236053 -0.0218134 0)
(-0.0803813 0.0433667 0)
(-0.0852739 0.0443 0)
(-0.0904869 0.045315 0)
(-0.0960362 0.0463904 0)
(-0.10193 0.0474983 0)
(-0.10817 0.0486037 0)
(-0.114749 0.0496656 0)
(-0.121652 0.050638 0)
(-0.128856 0.0514717 0)
(-0.136327 0.0521151 0)
(-0.144025 0.0525159 0)
(-0.151905 0.0526227 0)
(-0.15991 0.0523865 0)
(-0.167983 0.0517621 0)
(-0.17606 0.0507092 0)
(-0.184075 0.0491939 0)
(-0.191964 0.0471896 0)
(-0.199658 0.0446773 0)
(-0.207094 0.0416465 0)
(-0.214209 0.0380952 0)
(-0.220943 0.0340298 0)
(-0.227243 0.0294648 0)
(-0.233058 0.0244224 0)
(-0.238341 0.0189321 0)
(-0.24305 0.0130297 0)
(-0.247147 0.00675677 0)
(-0.250599 0.000160319 0)
(-0.253372 -0.00670747 0)
(-0.255429 -0.0137902 0)
(-0.256763 -0.0210308 0)
(-0.0844862 0.0483402 0)
(-0.0898775 0.0496081 0)
(-0.0956354 0.0509746 0)
(-0.101773 0.0524125 0)
(-0.108297 0.0538862 0)
(-0.115203 0.0553524 0)
(-0.122478 0.0567612 0)
(-0.130101 0.0580579 0)
(-0.13804 0.059184 0)
(-0.146254 0.0600796 0)
(-0.154696 0.0606847 0)
(-0.163308 0.060941 0)
(-0.17203 0.0607939 0)
(-0.180793 0.060194 0)
(-0.18953 0.0590982 0)
(-0.198169 0.0574715 0)
(-0.206639 0.0552873 0)
(-0.214873 0.0525285 0)
(-0.222805 0.0491872 0)
(-0.230373 0.0452651 0)
(-0.237522 0.040773 0)
(-0.244199 0.0357301 0)
(-0.25036 0.0301634 0)
(-0.255963 0.0241069 0)
(-0.260974 0.0176009 0)
(-0.26536 0.0106909 0)
(-0.269094 0.00342674 0)
(-0.272149 -0.00413717 0)
(-0.274492 -0.0119424 0)
(-0.276124 -0.0199322 0)
(-0.0887144 0.0538015 0)
(-0.0946248 0.0554498 0)
(-0.100945 0.0572118 0)
(-0.107686 0.0590526 0)
(-0.114848 0.0609279 0)
(-0.122421 0.0627849 0)
(-0.130386 0.0645638 0)
(-0.138712 0.0661998 0)
(-0.14736 0.067625 0)
(-0.156279 0.0687706 0)
(-0.165412 0.0695688 0)
(-0.174693 0.0699548 0)
(-0.184053 0.0698693 0)
(-0.193417 0.0692593 0)
(-0.202711 0.0680807 0)
(-0.211859 0.0662985 0)
(-0.220789 0.0638883 0)
(-0.229431 0.0608361 0)
(-0.237722 0.0571387 0)
(-0.245604 0.052803 0)
(-0.253024 0.0478457 0)
(-0.259939 0.0422919 0)
(-0.266309 0.0361744 0)
(-0.272102 0.0295326 0)
(-0.277291 0.0224113 0)
(-0.281852 0.0148598 0)
(-0.285767 0.00693103 0)
(-0.289017 -0.00131893 0)
(-0.291577 -0.00983149 0)
(-0.293451 -0.0185506 0)
(-0.0930306 0.0597676 0)
(-0.0994707 0.0618393 0)
(-0.10636 0.0640364 0)
(-0.113704 0.0663151 0)
(-0.121497 0.068621 0)
(-0.129722 0.0708902 0)
(-0.138351 0.0730522 0)
(-0.147344 0.0750313 0)
(-0.15665 0.0767499 0)
(-0.166211 0.07813 0)
(-0.175957 0.0790965 0)
(-0.185816 0.0795789 0)
(-0.195708 0.0795138 0)
(-0.205555 0.0788468 0)
(-0.215275 0.0775338 0)
(-0.224791 0.0755422 0)
(-0.234031 0.0728513 0)
(-0.242925 0.0694527 0)
(-0.251415 0.0653495 0)
(-0.259448 0.0605557 0)
(-0.266978 0.0550953 0)
(-0.27397 0.0490007 0)
(-0.280394 0.0423112 0)
(-0.286227 0.035072 0)
(-0.291454 0.0273329 0)
(-0.296061 0.0191472 0)
(-0.30004 0.0105702 0)
(-0.303381 0.00165897 0)
(-0.306069 -0.00752825 0)
(-0.308115 -0.0169375 0)
(-0.0973882 0.0662461 0)
(-0.104358 0.0687797 0)
(-0.11181 0.0714456 0)
(-0.119744 0.0741896 0)
(-0.128145 0.0769456 0)
(-0.136988 0.079638 0)
(-0.146235 0.0821841 0)
(-0.155835 0.0844973 0)
(-0.165727 0.0864895 0)
(-0.17584 0.0880745 0)
(-0.186098 0.08917 0)
(-0.196418 0.0897012 0)
(-0.206713 0.0896022 0)
(-0.216899 0.0888188 0)
(-0.226892 0.0873092 0)
(-0.236614 0.0850451 0)
(-0.245993 0.0820122 0)
(-0.254967 0.0782095 0)
(-0.263479 0.0736484 0)
(-0.271485 0.068352 0)
(-0.27895 0.0623529 0)
(-0.285848 0.0556917 0)
(-0.292161 0.0484152 0)
(-0.297879 0.0405749 0)
(-0.302995 0.0322256 0)
(-0.30751 0.0234245 0)
(-0.311427 0.0142287 0)
(-0.314746 0.00469552 0)
(-0.317464 -0.00511776 0)
(-0.319596 -0.0151609 0)
(-0.101731 0.0732341 0)
(-0.109219 0.0762616 0)
(-0.117214 0.0794222 0)
(-0.125707 0.0826494 0)
(-0.134677 0.0858644 0)
(-0.144085 0.0889785 0)
(-0.153884 0.0918965 0)
(-0.164011 0.0945204 0)
(-0.174393 0.096752 0)
(-0.184951 0.0984972 0)
(-0.195596 0.0996682 0)
(-0.206239 0.100187 0)
(-0.216787 0.0999872 0)
(-0.227151 0.0990171 0)
(-0.237248 0.0972395 0)
(-0.246999 0.0946332 0)
(-0.256338 0.0911922 0)
(-0.265207 0.0869252 0)
(-0.273558 0.0818543 0)
(-0.281358 0.0760127 0)
(-0.288582 0.0694433 0)
(-0.295217 0.0621958 0)
(-0.301257 0.054325 0)
(-0.306703 0.0458887 0)
(-0.311564 0.0369475 0)
(-0.315853 0.0275606 0)
(-0.319583 0.0177872 0)
(-0.322767 0.00768386 0)
(-0.325411 -0.00269438 0)
(-0.327539 -0.0133022 0)
(-0.105993 0.0807168 0)
(-0.113974 0.0842625 0)
(-0.122478 0.087934 0)
(-0.131487 0.0916514 0)
(-0.140967 0.0953219 0)
(-0.150871 0.0988429 0)
(-0.161137 0.102106 0)
(-0.171692 0.105003 0)
(-0.182453 0.107425 0)
(-0.193327 0.109272 0)
(-0.204219 0.110451 0)
(-0.215031 0.110883 0)
(-0.225669 0.110506 0)
(-0.236041 0.10927 0)
(-0.246064 0.107147 0)
(-0.255664 0.104124 0)
(-0.264781 0.100207 0)
(-0.273365 0.095417 0)
(-0.281379 0.089787 0)
(-0.288802 0.0833626 0)
(-0.29562 0.0761975 0)
(-0.301835 0.0683516 0)
(-0.307453 0.0598878 0)
(-0.312489 0.0508708 0)
(-0.316969 0.0413627 0)
(-0.110103 0.0886675 0)
(-0.11854 0.0927462 0)
(-0.127505 0.0969341 0)
(-0.136969 0.101137 0)
(-0.146887 0.105246 0)
(-0.1572 0.109145 0)
(-0.167834 0.112714 0)
(-0.178703 0.115831 0)
(-0.189713 0.11838 0)
(-0.200763 0.120256 0)
(-0.21175 0.121365 0)
(-0.222572 0.121628 0)
(-0.233132 0.120987 0)
(-0.243339 0.119401 0)
(-0.253113 0.116852 0)
(-0.262389 0.113339 0)
(-0.271112 0.108881 0)
(-0.279245 0.103512 0)
(-0.286764 0.0972801 0)
(-0.293658 0.0902428 0)
(-0.299931 0.0824656 0)
(-0.305595 0.0740182 0)
(-0.310671 0.0649719 0)
(-0.315188 0.0553974 0)
(-0.319179 0.0453579 0)
(-0.113983 0.0970474 0)
(-0.122826 0.101663 0)
(-0.132191 0.106362 0)
(-0.142037 0.111032 0)
(-0.152308 0.11555 0)
(-0.16293 0.119785 0)
(-0.173819 0.123604 0)
(-0.184876 0.126876 0)
(-0.195999 0.129478 0)
(-0.207079 0.131301 0)
(-0.218006 0.132251 0)
(-0.228677 0.132256 0)
(-0.238994 0.131262 0)
(-0.248871 0.129241 0)
(-0.258235 0.126186 0)
(-0.267028 0.122113 0)
(-0.275208 0.117054 0)
(-0.282749 0.11106 0)
(-0.289642 0.104192 0)
(-0.295889 0.0965225 0)
(-0.301509 0.0881274 0)
(-0.306526 0.0790861 0)
(-0.310974 0.0694773 0)
(-0.314895 0.0593764 0)
(-0.318327 0.0488477 0)
(-0.117554 0.105806 0)
(-0.126742 0.110953 0)
(-0.136434 0.116143 0)
(-0.146578 0.121251 0)
(-0.157104 0.126135 0)
(-0.167927 0.130651 0)
(-0.17895 0.134654 0)
(-0.190065 0.138004 0)
(-0.201161 0.140574 0)
(-0.212123 0.142254 0)
(-0.222839 0.142954 0)
(-0.233206 0.142607 0)
(-0.243129 0.141172 0)
(-0.252529 0.138633 0)
(-0.261342 0.135 0)
(-0.26952 0.130304 0)
(-0.277036 0.124596 0)
(-0.283879 0.117941 0)
(-0.290051 0.110416 0)
(-0.295572 0.102107 0)
(-0.300471 0.0931005 0)
(-0.304787 0.0834842 0)
(-0.308564 0.0733425 0)
(-0.311853 0.0627542 0)
(-0.314699 0.0517846 0)
(-0.120737 0.114883 0)
(-0.1302 0.120542 0)
(-0.140138 0.126195 0)
(-0.150487 0.131698 0)
(-0.161164 0.136894 0)
(-0.172073 0.141625 0)
(-0.183106 0.145735 0)
(-0.194147 0.149079 0)
(-0.205079 0.151527 0)
(-0.215783 0.15297 0)
(-0.226149 0.153326 0)
(-0.236074 0.152537 0)
(-0.245472 0.150577 0)
(-0.254272 0.147446 0)
(-0.262421 0.143171 0)
(-0.269887 0.137803 0)
(-0.276656 0.131409 0)
(-0.282731 0.124073 0)
(-0.288132 0.115886 0)
(-0.292889 0.106944 0)
(-0.297046 0.097346 0)
(-0.30065 0.0871848 0)
(-0.303757 0.0765494 0)
(-0.306422 0.0655201 0)
(-0.308695 0.0541623 0)
(-0.123456 0.124208 0)
(-0.133116 0.130352 0)
(-0.143212 0.136427 0)
(-0.153667 0.142272 0)
(-0.164388 0.147716 0)
(-0.175267 0.152587 0)
(-0.186188 0.156721 0)
(-0.19703 0.159969 0)
(-0.20767 0.162202 0)
(-0.21799 0.163315 0)
(-0.227881 0.163236 0)
(-0.23725 0.161923 0)
(-0.246017 0.159363 0)
(-0.254125 0.155577 0)
(-0.261534 0.150613 0)
(-0.268227 0.144538 0)
(-0.274205 0.13744 0)
(-0.279487 0.129418 0)
(-0.284107 0.120578 0)
(-0.288108 0.111027 0)
(-0.291544 0.10087 0)
(-0.29447 0.0902053 0)
(-0.296949 0.079124 0)
(-0.299039 0.0677054 0)
(-0.300786 0.056012 0)
(-0.125642 0.133707 0)
(-0.135417 0.140296 0)
(-0.145579 0.146743 0)
(-0.156041 0.152868 0)
(-0.166698 0.158488 0)
(-0.177435 0.163419 0)
(-0.188129 0.167491 0)
(-0.198655 0.170552 0)
(-0.208888 0.172479 0)
(-0.218716 0.173174 0)
(-0.228034 0.172579 0)
(-0.236757 0.170667 0)
(-0.244819 0.167447 0)
(-0.252175 0.16296 0)
(-0.258803 0.157273 0)
(-0.2647 0.150476 0)
(-0.269884 0.142674 0)
(-0.274388 0.13398 0)
(-0.278259 0.124514 0)
(-0.281552 0.114391 0)
(-0.284326 0.10372 0)
(-0.286645 0.0926023 0)
(-0.288572 0.0811294 0)
(-0.29016 0.0693714 0)
(-0.127235 0.143298 0)
(-0.137039 0.150286 0)
(-0.147175 0.157046 0)
(-0.157544 0.163385 0)
(-0.168035 0.169103 0)
(-0.178525 0.174011 0)
(-0.188887 0.177933 0)
(-0.198995 0.180721 0)
(-0.208728 0.182255 0)
(-0.217976 0.182454 0)
(-0.226645 0.181272 0)
(-0.234663 0.178704 0)
(-0.241977 0.17478 0)
(-0.248558 0.169562 0)
(-0.254399 0.16314 0)
(-0.259516 0.155624 0)
(-0.263939 0.147135 0)
(-0.267716 0.137802 0)
(-0.270905 0.127751 0)
(-0.273569 0.117106 0)
(-0.275773 0.105977 0)
(-0.277579 0.0944628 0)
(-0.279054 0.0826545 0)
(-0.280246 0.0706175 0)
(-0.128184 0.152899 0)
(-0.137932 0.160232 0)
(-0.147951 0.167243 0)
(-0.158135 0.173722 0)
(-0.168364 0.179462 0)
(-0.178512 0.184263 0)
(-0.188452 0.187953 0)
(-0.198058 0.190385 0)
(-0.207215 0.191452 0)
(-0.215822 0.191087 0)
(-0.223796 0.189263 0)
(-0.231079 0.185997 0)
(-0.237633 0.181342 0)
(-0.243446 0.175385 0)
(-0.248528 0.168236 0)
(-0.25291 0.160023 0)
(-0.256637 0.150884 0)
(-0.259767 0.140957 0)
(-0.262366 0.130378 0)
(-0.264505 0.119272 0)
(-0.266243 0.107743 0)
(-0.128451 0.162429 0)
(-0.138061 0.170049 0)
(-0.147877 0.177243 0)
(-0.157789 0.183791 0)
(-0.167671 0.189474 0)
(-0.177398 0.194091 0)
(-0.186841 0.197471 0)
(-0.19588 0.199477 0)
(-0.204409 0.200013 0)
(-0.212337 0.199031 0)
(-0.219595 0.196527 0)
(-0.22614 0.192541 0)
(-0.231951 0.187149 0)
(-0.237033 0.180463 0)
(-0.24141 0.172611 0)
(-0.245129 0.163741 0)
(-0.248245 0.154002 0)
(-0.250826 0.143542 0)
(-0.252942 0.132498 0)
(-0.254669 0.120997 0)
(-0.256063 0.109137 0)
(-0.128009 0.171809 0)
(-0.137403 0.179654 0)
(-0.14694 0.186965 0)
(-0.156502 0.193509 0)
(-0.165965 0.199063 0)
(-0.175203 0.203425 0)
(-0.184093 0.206428 0)
(-0.192522 0.207948 0)
(-0.200392 0.207905 0)
(-0.207627 0.206271 0)
(-0.214173 0.203066 0)
(-0.220002 0.198355 0)
(-0.22511 0.192239 0)
(-0.229518 0.184851 0)
(-0.233266 0.17634 0)
(-0.236409 0.166867 0)
(-0.239014 0.156591 0)
(-0.241154 0.145666 0)
(-0.242904 0.134229 0)
(-0.244335 0.122403 0)
(-0.245505 0.11028 0)
(-0.126847 0.180966 0)
(-0.135954 0.188974 0)
(-0.14514 0.196336 0)
(-0.154288 0.202809 0)
(-0.163273 0.208167 0)
(-0.171972 0.212212 0)
(-0.18027 0.214783 0)
(-0.188062 0.215771 0)
(-0.195264 0.215116 0)
(-0.201814 0.212812 0)
(-0.207672 0.208904 0)
(-0.212827 0.203482 0)
(-0.217291 0.196671 0)
(-0.221098 0.188625 0)
(-0.224302 0.179511 0)
(-0.226967 0.1695 0)
(-0.229168 0.158759 0)
(-0.230978 0.147442 0)
(-0.232473 0.135687 0)
(-0.233723 0.123607 0)
(-0.234779 0.111288 0)
(-0.124963 0.18983 0)
(-0.13372 0.197942 0)
(-0.142496 0.205293 0)
(-0.151176 0.211635 0)
(-0.159637 0.21674 0)
(-0.167763 0.220415 0)
(-0.175446 0.222512 0)
(-0.182595 0.222938 0)
(-0.189137 0.221654 0)
(-0.195025 0.218679 0)
(-0.200236 0.214082 0)
(-0.204773 0.207979 0)