/*--------------------------------*- C++ -*----------------------------------*\
  =========                 |
  \\      /  F ield         | OpenFOAM: The Open Source CFD Toolbox
   \\    /   O peration     | Website:  https://openfoam.org
    \\  /    A nd           | Version:  9
     \\/     M anipulation  |
\*---------------------------------------------------------------------------*/
FoamFile
{
    format      ascii;
    class       volScalarField;
    location    "1.25";
    object      p;
}
// * * * * * * * * * * * * * * * * * * * * * * * * * * * * * * * * * * * * * //

dimensions      [0 2 -2 0 0 0 0];

internalField   nonuniform List<scalar> 
1260
(
-0.0839804
-0.0821159
-0.0801923
-0.0782234
-0.0762226
-0.0742028
-0.0721757
-0.0701507
-0.0681341
-0.066128
-0.0641287
-0.0621261
-0.0601024
-0.0580314
-0.055879
-0.0536045
-0.0511652
-0.0485235
-0.0456588
-0.0425847
-0.0393664
-0.0361346
-0.0330833
-0.0304419
-0.0284205
-0.0271409
-0.0265862
-0.026603
-0.0270174
-0.027768
-0.0844139
-0.0825313
-0.0805891
-0.0786014
-0.0765823
-0.0745456
-0.072504
-0.0704682
-0.0684462
-0.0664421
-0.0644548
-0.0624765
-0.0604923
-0.0584787
-0.0564038
-0.0542283
-0.051909
-0.0494045
-0.0466866
-0.0437559
-0.0406604
-0.0375126
-0.0344922
-0.0318259
-0.0297362
-0.0283709
-0.0277406
-0.0277098
-0.0281085
-0.0288729
-0.0846862
-0.0827875
-0.0808287
-0.0788242
-0.0767888
-0.0747368
-0.0726819
-0.0706361
-0.0686087
-0.0666058
-0.0646283
-0.0626712
-0.0607219
-0.0587599
-0.0567557
-0.054672
-0.0524659
-0.0500938
-0.0475215
-0.0447389
-0.0417781
-0.0387332
-0.035768
-0.0331022
-0.0309662
-0.0295297
-0.0288308
-0.0287537
-0.0291354
-0.0299105
-0.0847942
-0.0828813
-0.0809078
-0.0788885
-0.0768385
-0.074773
-0.0727062
-0.0706513
-0.0686189
-0.0666168
-0.0646478
-0.0627092
-0.0607911
-0.0588755
-0.0569358
-0.0549369
-0.0528367
-0.0505911
-0.0481615
-0.0455286
-0.0427109
-0.0397844
-0.0368956
-0.034254
-0.0320932
-0.0306011
-0.0298416
-0.0297207
-0.0300844
-0.0308678
-0.084736
-0.0828105
-0.080824
-0.0787916
-0.0767289
-0.0746514
-0.0725742
-0.0705112
-0.0684746
-0.0664732
-0.0645118
-0.0625897
-0.0606996
-0.058826
-0.056945
-0.055024
-0.0530227
-0.050897
-0.0486053
-0.0461215
-0.0434517
-0.0406554
-0.0378611
-0.0352654
-0.0331006
-0.0315689
-0.0307583
-0.0305971
-0.0309427
-0.0317318
-0.0845111
-0.0825743
-0.0805762
-0.0785322
-0.0764583
-0.0743703
-0.0722841
-0.0702143
-0.068174
-0.0661735
-0.0642191
-0.0623122
-0.0604474
-0.0586119
-0.0567845
-0.0549351
-0.0530256
-0.0510125
-0.048853
-0.0465154
-0.0439957
-0.041338
-0.038653
-0.0361224
-0.0339735
-0.0324184
-0.0315668
-0.0313695
-0.0316975
-0.0324906
-0.0841198
-0.0821729
-0.0801644
-0.0781102
-0.0760263
-0.0739292
-0.0718351
-0.0697596
-0.0677165
-0.0657172
-0.0637696
-0.0618765
-0.0600348
-0.0582341
-0.0564556
-0.0546719
-0.0528472
-0.0509395
-0.0489055
-0.0467097
-0.0443397
-0.0418259
-0.0392619
-0.0368129
-0.0346983
-0.0331357
-0.0322537
-0.0320255
-0.032337
-0.0331326
-0.0835639
-0.0816077
-0.0795899
-0.0775263
-0.0754336
-0.0733285
-0.0712277
-0.0691474
-0.0671023
-0.0651046
-0.0631635
-0.0612834
-0.0594631
-0.0576941
-0.0559603
-0.0542367
-0.0524901
-0.0506803
-0.0487646
-0.0467049
-0.044482
-0.0421147
-0.0396802
-0.0373268
-0.035263
-0.0337082
-0.0328068
-0.0325533
-0.03285
-0.0336474
-0.0828464
-0.0808815
-0.078855
-0.0767829
-0.0746822
-0.07257
-0.0704635
-0.0683792
-0.0663326
-0.0643369
-0.0624022
-0.0605344
-0.0587337
-0.0569939
-0.0553008
-0.0536322
-0.0519573
-0.0502382
-0.0484329
-0.0465025
-0.0444226
-0.0422017
-0.0399023
-0.0376556
-0.0356572
-0.0341246
-0.0332146
-0.032942
-0.0332262
-0.0340252
-0.0819712
-0.079998
-0.0779633
-0.0758834
-0.0737754
-0.0716567
-0.0695451
-0.0674575
-0.06541
-0.0634165
-0.0614881
-0.0596319
-0.0578495
-0.0561363
-0.0544805
-0.052862
-0.0512525
-0.0496167
-0.0479141
-0.0461053
-0.0441624
-0.0420858
-0.0399243
-0.0377927
-0.0358721
-0.0343749
-0.0334669
-0.0331816
-0.033456
-0.034257
-0.0809435
-0.0789623
-0.0769198
-0.0748323
-0.0727174
-0.0705929
-0.0684766
-0.0663862
-0.0643382
-0.0623471
-0.0604249
-0.0585795
-0.056814
-0.0551252
-0.0535032
-0.0519302
-0.0503802
-0.0488204
-0.0472122
-0.0455168
-0.0437039
-0.0417673
-0.0397439
-0.037733
-0.0359002
-0.0344502
-0.0335544
-0.0332628
-0.0335306
-0.0343346
-0.0797696
-0.0777806
-0.0757304
-0.0736357
-0.0715142
-0.0693841
-0.0672636
-0.0651707
-0.0631223
-0.0611336
-0.0592172
-0.057382
-0.0556319
-0.0539654
-0.0523739
-0.0508418
-0.0493456
-0.0478545
-0.0463324
-0.0447415
-0.0430504
-0.0412477
-0.0393603
-0.0374728
-0.0357354
-0.0343428
-0.0334685
-0.0331771
-0.0334419
-0.0342507
-0.0784569
-0.0764602
-0.0744024
-0.0723006
-0.0701727
-0.0680372
-0.0659126
-0.0638174
-0.0617687
-0.0597823
-0.0578713
-0.0560453
-0.0543093
-0.0526626
-0.0510986
-0.049603
-0.0481547
-0.0467252
-0.0452807
-0.043785
-0.0422064
-0.0405297
-0.0387737
-0.0370099
-0.0353729
-0.0340459
-0.0332014
-0.0329164
-0.033182
-0.033998
-0.077014
-0.0750095
-0.0729442
-0.0708354
-0.0687013
-0.0665605
-0.064432
-0.0623343
-0.0602853
-0.0583009
-0.0563947
-0.0545769
-0.0528533
-0.0512242
-0.0496842
-0.0482207
-0.0468144
-0.0454393
-0.0440638
-0.0426534
-0.0411771
-0.0396172
-0.0379859
-0.036343
-0.0348087
-0.0335534
-0.032746
-0.0324732
-0.0327434
-0.0335699
-0.0754503
-0.0734382
-0.0713656
-0.0692499
-0.0671096
-0.0649636
-0.0628311
-0.0607311
-0.0586814
-0.0566985
-0.0547963
-0.0529855
-0.0512724
-0.0496584
-0.0481389
-0.046703
-0.0453329
-0.0440047
-0.0426891
-0.0413539
-0.0399687
-0.0385148
-0.0369992
-0.0354719
-0.0340397
-0.0328598
-0.0320952
-0.0318396
-0.0321186
-0.0329593
-0.0675552
-0.0654088
-0.0632577
-0.0611212
-0.0590185
-0.0569677
-0.0549856
-0.0530864
-0.0512811
-0.0495766
-0.0479748
-0.0464722
-0.0450588
-0.0437188
-0.0424299
-0.0411651
-0.0398941
-0.0385881
-0.0372279
-0.0358169
-0.0343971
-0.0330633
-0.0319598
-0.0312419
-0.0310078
-0.0312993
-0.0321589
-0.0657634
-0.0636112
-0.061455
-0.0593145
-0.0572089
-0.0551566
-0.0531744
-0.0512769
-0.0494753
-0.0477769
-0.0461842
-0.0446943
-0.0432985
-0.0419819
-0.0407245
-0.0395006
-0.0382823
-0.0370426
-0.0357624
-0.0344427
-0.0331194
-0.0318771
-0.0308479
-0.0301785
-0.0299689
-0.0302768
-0.0311606
-0.0638884
-0.0617307
-0.0595696
-0.057425
-0.0553161
-0.0532615
-0.0512782
-0.0493809
-0.0475809
-0.0458858
-0.0442986
-0.042817
-0.0414329
-0.0401329
-0.0388981
-0.037705
-0.0365274
-0.03534
-0.0341245
-0.0328806
-0.0316399
-0.0304787
-0.0295185
-0.0288966
-0.0287131
-0.0290405
-0.0299546
-0.0619451
-0.0597824
-0.0576167
-0.0554679
-0.0533553
-0.0512977
-0.049312
-0.0474129
-0.045612
-0.043917
-0.0423312
-0.0408526
-0.0394741
-0.038183
-0.0369616
-0.0357884
-0.0346383
-0.033488
-0.0323204
-0.0311347
-0.0299595
-0.0288652
-0.0279647
-0.0273865
-0.0272285
-0.0275781
-0.0285293
-0.0599498
-0.0577829
-0.0556129
-0.0534599
-0.0513433
-0.0492816
-0.0472919
-0.0453888
-0.043584
-0.0418853
-0.040296
-0.0388147
-0.0374347
-0.036144
-0.0349261
-0.0337604
-0.0326238
-0.0314943
-0.0303559
-0.0292081
-0.0280782
-0.0270326
-0.0261783
-0.0256362
-0.0255011
-0.0258743
-0.0268702
-0.0579202
-0.0557498
-0.0535761
-0.0514189
-0.0492976
-0.0472308
-0.0452352
-0.0433255
-0.0415133
-0.0398063
-0.0382081
-0.0367173
-0.0353278
-0.0340281
-0.0328023
-0.031631
-0.0304925
-0.0293656
-0.0282358
-0.0271033
-0.025995
-0.0249757
-0.0241494
-0.0236315
-0.0235134
-0.0239102
-0.0249592
-0.0558749
-0.0537021
-0.0515252
-0.0493639
-0.0472373
-0.0451639
-0.0431603
-0.0412409
-0.039417
-0.0376966
-0.036083
-0.0345751
-0.0331669
-0.0318474
-0.0306013
-0.0294097
-0.0282519
-0.0271078
-0.0259638
-0.024821
-0.0237068
-0.0226867
-0.0218647
-0.0213543
-0.0212438
-0.0216625
-0.0227736
-0.0538337
-0.0516598
-0.0494803
-0.0473148
-0.0451822
-0.0431006
-0.0410863
-0.0391534
-0.0373132
-0.0355731
-0.0339367
-0.0324028
-0.0309654
-0.0296138
-0.0283331
-0.0271048
-0.0259086
-0.0247251
-0.0235414
-0.0223594
-0.0212079
-0.0201547
-0.0193075
-0.0187822
-0.0186656
-0.0191016
-0.0202847
-0.0518171
-0.0496432
-0.0474619
-0.0452922
-0.0431526
-0.0410608
-0.0390328
-0.0370822
-0.0352198
-0.0334531
-0.0317853
-0.030215
-0.0287364
-0.0273389
-0.0260073
-0.0247235
-0.0234671
-0.0222191
-0.0209669
-0.0197132
-0.0184885
-0.0173644
-0.0164561
-0.0158869
-0.0157454
-0.0161909
-0.0174568
-0.0498458
-0.0476735
-0.045491
-0.0433168
-0.041169
-0.0390648
-0.0370194
-0.035046
-0.0331552
-0.0313536
-0.0296445
-0.0280261
-0.0264925
-0.0250328
-0.0236317
-0.0222708
-0.0209295
-0.0195885
-0.0182352
-0.0168728
-0.0155337
-0.0142948
-0.013282
-0.0126325
-0.0124412
-0.0128847
-0.0142449
-0.0479408
-0.0457713
-0.0435882
-0.0414091
-0.0392517
-0.0371322
-0.0350653
-0.0330635
-0.0311367
-0.0292911
-0.0275292
-0.0258493
-0.0242448
-0.0227043
-0.0212124
-0.0197496
-0.0182948
-0.0168279
-0.0153361
-0.0138226
-0.0123218
-0.0109169
-0.00974844
-0.00897372
-0.00870067
-0.0091261
-0.0105932
-0.0461222
-0.0439569
-0.0417735
-0.039589
-0.03742
-0.035282
-0.0331888
-0.0311521
-0.0291808
-0.0272806
-0.0254534
-0.0236965
-0.0220028
-0.0203604
-0.0187527
-0.0171593
-0.0155578
-0.013927
-0.0122531
-0.0105395
-0.00882248
-0.00719233
-0.00580724
-0.00485255
-0.00445757
-0.00484382
-0.00643148
-0.0444091
-0.0422491
-0.0400655
-0.0378745
-0.0356917
-0.0335314
-0.0314065
-0.0293275
-0.0273024
-0.0253358
-0.0234287
-0.0215775
-0.0197741
-0.0180053
-0.0162532
-0.0144958
-0.0127089
-0.0108695
-0.00896274
-0.00699146
-0.00499451
-0.00306977
-0.00139627
-0.000195102
0.000371952
5.12872e-05
-0.00167127
-0.0428186
-0.0406645
-0.0384805
-0.0362816
-0.0340821
-0.0318953
-0.0297325
-0.0276032
-0.0255138
-0.0234678
-0.0214647
-0.0194998
-0.0175632
-0.0156402
-0.0137107
-0.0117504
-0.00973261
-0.00763222
-0.0054324
-0.00313509
-0.000783334
0.0015172
0.00356426
0.005093
0.00589483
0.00567195
0.0038005
-0.0413647
-0.0392168
-0.0370317
-0.0348229
-0.0326036
-0.0303852
-0.0281779
-0.0259892
-0.0238242
-0.0216844
-0.0195678
-0.0174674
-0.0153714
-0.0132624
-0.0111176
-0.00890928
-0.00660745
-0.0041837
-0.00161881
0.00108477
0.00388196
0.00665396
0.00917632
0.0111325
0.0122482
0.0121621
0.0101308
-0.0400578
-0.0379158
-0.0357283
-0.0335072
-0.031264
-0.0290088
-0.0267495
-0.0244919
-0.0222389
-0.01999
-0.0177405
-0.0154808
-0.0131961
-0.0108653
-0.00846168
-0.00595313
-0.00330489
-0.000484284
0.002531
0.00573839
0.00909108
0.0124501
0.0155711
0.0180783
0.0196085
0.0197076
0.0175143
-0.0389035
-0.0367664
-0.0345745
-0.032338
-0.0300667
-0.0277686
-0.0254495
-0.0231128
-0.0207589
-0.0183843
-0.015981
-0.013536
-0.01103
-0.00843737
-0.00572558
-0.00285655
0.000210806
0.00351503
0.00708277
0.0109118
0.0149453
0.019047
0.0229171
0.0261272
0.0282017
0.0285505
0.0262121
-0.0379019
-0.0357679
-0.033569
-0.0313135
-0.0290092
-0.0266618
-0.0242746
-0.0218482
-0.0193797
-0.0168619
-0.0142828
-0.0116243
-0.00886156
-0.00596228
-0.00288662
0.000411788
0.00398258
0.00787229
0.0121129
0.0167005
0.0215695
0.0266188
0.0314195
0.0355227
0.0383135
0.0390069
0.0365773
-0.0370468
-0.0349134
-0.0327043
-0.0304257
-0.0280832
-0.0256799
-0.0232161
-0.020689
-0.0180918
-0.0154128
-0.0126343
-0.00973223
-0.00667413
-0.00341911
8.25936e-05
0.00388832
0.0080593
0.012653
0.0177095
0.0232299
0.0291505
0.035304
0.0413072
0.0465599
0.0502994
0.0514863
0.0490829
-0.0363258
-0.0341899
-0.0319668
-0.0296607
-0.0272745
-0.0248085
-0.0222595
-0.0196207
-0.0168805
-0.0140215
-0.0110195
-0.00784203
-0.00444736
-0.000783334
0.0032127
0.00761256
0.0124929
0.0179264
0.0239655
0.0306186
0.0378144
0.0453511
0.0528598
0.0595878
0.0645894
0.0665085
0.064351
-0.0357206
-0.0335785
-0.0313375
-0.0289992
-0.0265638
-0.0240283
-0.0213856
-0.0186242
-0.0157267
-0.012669
-0.0094186
-0.00593305
-0.00215865
0.00197086
0.00653462
0.0116232
0.0173336
0.0237593
0.0309714
0.03899
0.0477424
0.0570076
0.0663466
0.0749969
0.0816922
0.0847233
0.0831807
-0.0352084
-0.0330563
-0.0307933
-0.0284182
-0.0259283
-0.0233168
-0.0205723
-0.0176778
-0.0146092
-0.0113345
-0.007811
-0.00398448
0.000213375
0.00486627
0.0100739
0.0159507
0.0226201
0.0302036
0.0387995
0.0484483
0.059084
0.0704674
0.0821029
0.0931951
0.102206
0.106941
0.106582
-0.0347639
-0.0325982
-0.0303093
-0.0278933
-0.025344
-0.0226507
-0.0197971
-0.0167598
-0.0135074
-0.00999841
-0.00617883
-0.00198021
0.00268299
0.00791537
0.0138417
0.0206057
0.0283648
0.0372776
0.0474806
0.0590485
0.0719375
0.0859056
0.100418
0.114545
0.126803
0.134141
0.135795
-0.0343631
-0.0321805
-0.0298625
-0.0274021
-0.0247895
-0.0220097
-0.0190408
-0.015853
-0.0124063
-0.00864873
-0.0045136
8.36038e-05
0.00524812
0.0111087
0.0178198
0.0255604
0.0345301
0.0449354
0.0569659
0.0707493
0.0862873
0.103359
0.121406
0.139441
0.156068
0.167359
0.172221
-0.0339869
-0.0317853
-0.0294361
-0.026929
-0.0242507
-0.0213815
-0.0182939
-0.0149507
-0.0113032
-0.00728827
-0.0028253
0.00218747
0.00787688
0.0143985
0.0219401
0.0307218
0.040994
0.0530239
0.0670728
0.083347
0.101929
0.12266
0.145021
0.168048
0.190235
0.207384
0.21735
-0.0336268
-0.0314052
-0.0290242
-0.0264703
-0.0237263
-0.0207681
-0.0175622
-0.0140643
-0.0102166
-0.00594477
-0.00115405
0.00427495
0.0104913
0.0176784
0.0260594
0.0358998
0.0475078
0.0612248
0.0774079
0.0963786
0.118356
0.143317
0.170866
0.20008
0.229439
0.254575
0.27347
-0.0332884
-0.0310479
-0.028637
-0.0260391
-0.0232334
-0.0201914
-0.0168742
-0.0132308
-0.00919472
-0.00468111
0.000418052
0.0062387
0.0129508
0.0207643
0.0299367
0.0407778
0.0536573
0.0689991
0.0872797
0.108984
0.134562
0.164264
0.198019
0.235069
0.273955
0.310374
0.345953
-0.0329965
-0.0307407
-0.0283049
-0.0256702
-0.0228127
-0.0196999
-0.0162885
-0.0125217
-0.00832588
-0.00360747
0.00175257
0.00790377
0.0150333
0.0233727
0.0332081
0.0448866
0.0588319
0.0755445
0.0956268
0.119757
0.148726
0.183283
0.224143
0.271341
0.324423
0.3807
0.446828
-0.0327985
-0.0305351
-0.0280848
-0.0254275
-0.0225369
-0.019378
-0.0159044
-0.0120556
-0.00775366
-0.00289913
0.0026339
0.0090034
0.0164072
0.0250899
0.0353552
0.0475726
0.0622004
0.0797888
0.101033
0.126767
0.158123
0.196493
0.243998
0.303049
0.377524
0.470096
0.595613
-0.0327405
-0.030482
-0.0280335
-0.0253746
-0.0224786
-0.0193095
-0.0158201
-0.0119491
-0.00761722
-0.00272375
0.00285882
0.00929034
0.0167708
0.0255473
0.0359267
0.0482832
0.063083
0.0808891
0.102429
0.128591
0.160687
0.200459
0.251357
0.31879
0.416458
0.560938
0.781493
)
;

boundaryField
{
    movingWall
    {
        type            zeroGradient;
    }
    fixedWalls
    {
        type            zeroGradient;
    }
    frontAndBack
    {
        type            empty;
    }
    procBoundary4to5
    {
        type            processor;
        value           nonuniform List<scalar> 
48
(
-0.0857723
-0.086223
-0.0865106
-0.0866322
-0.0865861
-0.0863719
-0.0859904
-0.0854436
-0.0847345
-0.0838674
-0.0828476
-0.0816815
-0.0803767
-0.0789414
-0.0773854
-0.0737767
-0.0717573
-0.0696775
-0.0696775
-0.0678922
-0.0660231
-0.064085
-0.0620941
-0.0600676
-0.058024
-0.0559829
-0.0539644
-0.0519894
-0.0500785
-0.0482521
-0.0465294
-0.0449277
-0.0434615
-0.0421419
-0.040975
-0.039962
-0.0390973
-0.0383695
-0.0377608
-0.0372487
-0.036808
-0.0364141
-0.0360474
-0.0356978
-0.0353692
-0.0350842
-0.0348882
-0.0348226
)
;
    }
    procBoundary4to6
    {
        type            processor;
        value           nonuniform List<scalar> 
30
(
-0.0833898
-0.0815456
-0.0796428
-0.0776947
-0.0757141
-0.0737128
-0.0717013
-0.0696875
-0.0676757
-0.0656659
-0.063652
-0.0616211
-0.0595525
-0.0574176
-0.0551804
-0.0527996
-0.0502343
-0.047452
-0.0444421
-0.0412327
-0.0379073
-0.0346145
-0.0315593
-0.0289695
-0.0270375
-0.025857
-0.0253833
-0.0254479
-0.0258758
-0.0266094
)
;
    }
}


// ************************************************************************* //
