/*--------------------------------*- C++ -*----------------------------------*\
  =========                 |
  \\      /  F ield         | OpenFOAM: The Open Source CFD Toolbox
   \\    /   O peration     | Website:  https://openfoam.org
    \\  /    A nd           | Version:  9
     \\/     M anipulation  |
\*---------------------------------------------------------------------------*/
FoamFile
{
    format      ascii;
    class       surfaceScalarField;
    location    "1.25";
    object      phi;
}
// * * * * * * * * * * * * * * * * * * * * * * * * * * * * * * * * * * * * * //

dimensions      [0 3 -1 0 0 0 0];

internalField   nonuniform List<scalar> 
2445
(
-7.01306e-07
-1.81039e-06
-7.08827e-07
-1.9175e-06
-7.15456e-07
-2.0198e-06
-7.21277e-07
-2.11707e-06
-7.26481e-07
-2.20923e-06
-7.31414e-07
-2.29654e-06
-7.36612e-07
-2.37969e-06
-7.42845e-07
-2.46e-06
-7.51139e-07
-2.53963e-06
-7.62765e-07
-2.62177e-06
-7.79171e-07
-2.71081e-06
-8.0184e-07
-2.81235e-06
-8.3203e-07
-2.93297e-06
-8.70417e-07
-3.07967e-06
-9.16632e-07
-3.2588e-06
-9.68762e-07
-3.47446e-06
-1.0229e-06
-3.72639e-06
-1.07285e-06
-4.00748e-06
-1.11025e-06
-4.30138e-06
-1.12515e-06
-4.58067e-06
-1.10734e-06
-4.80656e-06
-1.04844e-06
-4.93128e-06
-9.4457e-07
-4.90436e-06
-7.98967e-07
-4.6833e-06
-6.23397e-07
-4.24737e-06
-4.37145e-07
-3.60977e-06
-2.63167e-07
-2.82112e-06
-1.22853e-07
-1.95902e-06
-3.20183e-08
-1.1067e-06
-3.312e-07
-5.95814e-07
-1.79915e-06
-6.06284e-07
-1.90703e-06
-6.15956e-07
-2.01013e-06
-6.24858e-07
-2.10816e-06
-6.33116e-07
-2.20097e-06
-6.40985e-07
-2.28867e-06
-6.48896e-07
-2.37177e-06
-6.57497e-07
-2.4514e-06
-6.67688e-07
-2.52944e-06
-6.80631e-07
-2.60883e-06
-6.97707e-07
-2.69374e-06
-7.20411e-07
-2.78965e-06
-7.50126e-07
-2.90326e-06
-7.87797e-07
-3.042e-06
-8.33486e-07
-3.21311e-06
-8.85856e-07
-3.42209e-06
-9.41665e-07
-3.67058e-06
-9.95398e-07
-3.95374e-06
-1.0392e-06
-4.25758e-06
-1.06333e-06
-4.55654e-06
-1.0573e-06
-4.8126e-06
-1.01183e-06
-4.97675e-06
-9.21589e-07
-4.9946e-06
-7.88034e-07
-4.81686e-06
-6.21358e-07
-4.41404e-06
-4.40045e-07
-3.79108e-06
-2.67352e-07
-2.99382e-06
-1.2589e-07
-2.10048e-06
-3.3124e-08
-1.19947e-06
-3.64324e-07
-4.88457e-07
-1.78508e-06
-5.01912e-07
-1.89357e-06
-5.14693e-07
-1.99735e-06
-5.26791e-07
-2.09607e-06
-5.38271e-07
-2.18949e-06
-5.49314e-07
-2.27762e-06
-5.60251e-07
-2.36084e-06
-5.71617e-07
-2.44003e-06
-5.84185e-07
-2.51687e-06
-5.98993e-07
-2.59402e-06
-6.17333e-07
-2.6754e-06
-6.40663e-07
-2.76632e-06
-6.70433e-07
-2.87349e-06
-7.0779e-07
-3.00464e-06
-7.53151e-07
-3.16775e-06
-8.05694e-07
-3.36955e-06
-8.62811e-07
-3.61346e-06
-9.19657e-07
-3.8969e-06
-9.6896e-07
-4.20827e-06
-1.00129e-06
-4.52421e-06
-1.00603e-06
-4.80786e-06
-9.73193e-07
-5.00958e-06
-8.9613e-07
-5.07166e-06
-7.7459e-07
-4.9384e-06
-6.1714e-07
-4.57149e-06
-4.41327e-07
-3.96689e-06
-2.70533e-07
-3.16461e-06
-1.28453e-07
-2.24256e-06
-3.41056e-08
-1.29381e-06
-3.98429e-07
-3.79497e-07
-1.76819e-06
-3.95949e-07
-1.87712e-06
-4.1188e-07
-1.98142e-06
-4.27249e-07
-2.0807e-06
-4.42076e-07
-2.17466e-06
-4.56474e-07
-2.26323e-06
-4.70691e-07
-2.34662e-06
-4.85152e-07
-2.42557e-06
-5.00509e-07
-2.50151e-06
-5.17673e-07
-2.57686e-06
-5.37821e-07
-2.65525e-06
-5.62347e-07
-2.74179e-06
-5.92715e-07
-2.84312e-06
-6.30207e-07
-2.96715e-06
-6.75528e-07
-3.12243e-06
-7.28304e-07
-3.31677e-06
-7.86514e-07
-3.55525e-06
-8.45973e-07
-3.83744e-06
-9.0002e-07
-4.15423e-06
-9.39633e-07
-4.4846e-06
-9.54203e-07
-4.79329e-06
-9.332e-07
-5.03059e-06
-8.688e-07
-5.13606e-06
-7.59127e-07
-5.04807e-06
-6.111e-07
-4.71952e-06
-4.41209e-07
-4.13678e-06
-2.72819e-07
-3.333e-06
-1.30577e-07
-2.3848e-06
-3.49673e-08
-1.38942e-06
-4.33397e-07
-2.69199e-07
-1.7485e-06
-2.88642e-07
-1.85768e-06
-3.07741e-07
-1.96232e-06
-3.26429e-07
-2.06201e-06
-3.44688e-07
-2.1564e-06
-3.62579e-07
-2.24534e-06
-3.80273e-07
-2.32893e-06
-3.981e-07
-2.40774e-06
-4.16594e-07
-2.48302e-06
-4.36539e-07
-2.55691e-06
-4.58989e-07
-2.6328e-06
-4.85242e-07
-2.71554e-06
-5.16737e-07
-2.81162e-06
-5.54834e-07
-2.92906e-06
-6.0046e-07
-3.07681e-06
-6.53622e-07
-3.26361e-06
-7.12833e-07
-3.49604e-06
-7.74541e-07
-3.77573e-06
-8.3272e-07
-4.09605e-06
-8.78821e-07
-4.4385e-06
-9.02365e-07
-4.76975e-06
-8.92423e-07
-5.04053e-06
-8.40145e-07
-5.18834e-06
-7.42115e-07
-5.1461e-06
-6.03597e-07
-4.85804e-06
-4.39931e-07
-4.30045e-06
-2.74335e-07
-3.4986e-06
-1.3231e-07
-2.52682e-06
-3.57166e-08
-1.48602e-06
-4.69113e-07
-1.57819e-07
-1.72604e-06
-1.80239e-07
-1.83526e-06
-2.02506e-07
-1.94005e-06
-2.24538e-07
-2.03998e-06
-2.46288e-07
-2.13465e-06
-2.67772e-07
-2.22385e-06
-2.89097e-07
-2.3076e-06
-3.10508e-07
-2.38633e-06
-3.32429e-07
-2.4611e-06
-3.55521e-07
-2.53382e-06
-3.80707e-07
-2.60761e-06
-4.09175e-07
-2.68707e-06
-4.42302e-07
-2.77849e-06
-4.81479e-07
-2.88988e-06
-5.2779e-07
-3.03049e-06
-5.8156e-07
-3.20984e-06
-6.41779e-07
-3.43582e-06
-7.05497e-07
-3.71201e-06
-7.67321e-07
-4.03422e-06
-8.19232e-07
-4.38659e-06
-8.50979e-07
-4.738e-06
-8.51369e-07
-5.04014e-06
-8.10667e-07
-5.22904e-06
-7.24005e-07
-5.23276e-06
-5.94996e-07
-4.98705e-06
-4.37746e-07
-4.4577e-06
-2.75227e-07
-3.66112e-06
-1.3371e-07
-2.66834e-06
-3.63652e-08
-1.58336e-06
-5.05478e-07
-4.56058e-08
-1.70083e-06
-7.09763e-08
-1.80989e-06
-9.64029e-08
-1.91463e-06
-1.21789e-07
-2.01459e-06
-1.47067e-07
-2.10938e-06
-1.72216e-07
-2.1987e-06
-1.9729e-07
-2.28253e-06
-2.22457e-07
-2.36116e-06
-2.48045e-07
-2.43551e-06
-2.74593e-07
-2.50727e-06
-3.02896e-07
-2.57931e-06
-3.34017e-07
-2.65595e-06
-3.69247e-07
-2.74326e-06
-4.09964e-07
-2.84916e-06
-4.57357e-07
-2.9831e-06
-5.12005e-07
-3.15519e-06
-5.73318e-07
-3.37451e-06
-6.38905e-07
-3.64642e-06
-7.04002e-07
-3.96913e-06
-7.61152e-07
-4.32944e-06
-8.00419e-07
-4.69873e-06
-8.10468e-07
-5.03009e-06
-7.80807e-07
-5.2587e-06
-7.0521e-07
-5.30836e-06
-5.85645e-07
-5.10661e-06
-4.34917e-07
-4.60843e-06
-2.75656e-07
-3.82038e-06
-1.34848e-07
-2.80915e-06
-3.69283e-08
-1.68128e-06
-5.42407e-07
6.72056e-08
-1.67293e-06
3.8915e-08
-1.7816e-06
1.03494e-08
-1.88606e-06
-1.83914e-08
-1.98585e-06
-4.72201e-08
-2.08055e-06
-7.60861e-08
-2.16984e-06
-1.04998e-07
-2.25361e-06
-1.34059e-07
-2.3321e-06
-1.63507e-07
-2.40606e-06
-1.93771e-07
-2.47701e-06
-2.25517e-07
-2.54756e-06
-2.5968e-07
-2.62179e-06
-2.97443e-07
-2.7055e-06
-3.40137e-07
-2.80647e-06
-3.89009e-07
-2.93423e-06
-4.44834e-07
-3.09937e-06
-5.07383e-07
-3.31196e-06
-5.7478e-07
-3.57903e-06
-6.42872e-07
-3.90103e-06
-7.0479e-07
-4.26752e-06
-7.50981e-07
-4.65254e-06
-7.70078e-07
-5.01099e-06
-7.50952e-07
-5.27783e-06
-6.86108e-07
-5.3732e-06
-5.75882e-07
-5.21684e-06
-4.31708e-07
-4.7526e-06
-2.75793e-07
-3.97629e-06
-1.35804e-07
-2.94914e-06
-3.7425e-08
-1.77966e-06
-5.79832e-07
1.80396e-07
-1.64236e-06
1.49214e-07
-1.75041e-06
1.17526e-07
-1.85437e-06
8.54402e-08
-1.95376e-06
5.30528e-08
-2.04816e-06
2.04372e-08
-2.13722e-06
-1.23786e-08
-2.2208e-06
-4.54406e-08
-2.29904e-06
-7.89071e-08
-2.37259e-06
-1.13102e-07
-2.44281e-06
-1.48569e-07
-2.5121e-06
-1.86111e-07
-2.58425e-06
-2.26792e-07
-2.66482e-06
-2.71871e-07
-2.76139e-06
-3.22606e-07
-2.8835e-06
-3.79919e-07
-3.04206e-06
-4.43885e-07
-3.24799e-06
-5.13097e-07
-3.50982e-06
-5.83988e-07
-3.83014e-06
-6.50288e-07
-4.20122e-06
-7.02888e-07
-4.59994e-06
-7.30485e-07
-4.9834e-06
-7.21425e-07
-5.28689e-06
-6.67031e-07
-5.42759e-06
-5.66016e-07
-5.31785e-06
-4.28377e-07
-4.89024e-06
-2.75816e-07
-4.12885e-06
-1.36666e-07
-3.08829e-06
-3.78778e-08
-1.87845e-06
-6.17709e-07
2.93761e-07
-1.60917e-06
2.5972e-07
-1.71637e-06
2.24933e-07
-1.81959e-06
1.8951e-07
-1.91834e-06
1.53557e-07
-2.01221e-06
1.17165e-07
-2.10083e-06
8.03952e-08
-2.18403e-06
4.32525e-08
-2.2619e-06
5.64679e-09
-2.33499e-06
-3.26555e-08
-2.40451e-06
-7.20767e-08
-2.47268e-06
-1.13288e-07
-2.54303e-06
-1.57228e-07
-2.62088e-06
-2.0506e-07
-2.71356e-06
-2.58022e-07
-2.83053e-06
-3.17132e-07
-2.98295e-06
-3.82719e-07
-3.1824e-06
-4.53797e-07
-3.43874e-06
-5.27355e-07
-3.75658e-06
-5.9773e-07
-4.13085e-06
-6.56299e-07
-4.54137e-06
-6.9191e-07
-4.94778e-06
-6.92493e-07
-5.2863e-06
-6.48266e-07
-5.47182e-06
-5.56333e-07
-5.40979e-06
-4.25175e-07
-5.0214e-06
-2.75906e-07
-4.27812e-06
-1.37529e-07
-3.22667e-06
-3.83122e-08
-1.97766e-06
-6.56022e-07
4.07107e-07
-1.5734e-06
3.70234e-07
-1.6795e-06
3.32369e-07
-1.78172e-06
2.9362e-07
-1.87959e-06
2.54101e-07
-1.97269e-06
2.13917e-07
-2.06065e-06
1.73157e-07
-2.14327e-06
1.31868e-07
-2.22061e-06
9.00209e-08
-2.29314e-06
4.7474e-08
-2.36196e-06
3.90906e-09
-2.42911e-06
-4.1217e-08
-2.49791e-06
-8.87096e-08
-2.57339e-06
-1.39622e-07
-2.66264e-06
-1.95144e-07
-2.77501e-06
-2.56351e-07
-2.92174e-06
-3.23774e-07
-3.11498e-06
-3.96799e-07
-3.36571e-06
-4.72945e-07
-3.68044e-06
-5.47147e-07
-4.05664e-06
-6.11311e-07
-4.47721e-06
-6.54512e-07
-4.90458e-06
-6.64362e-07
-5.27645e-06
-6.30052e-07
-5.50613e-06
-5.47081e-07
-5.49276e-06
-4.22337e-07
-5.14614e-06
-2.76247e-07
-4.42421e-06
-1.38494e-07
-3.36442e-06
-3.87565e-08
-2.0774e-06
-6.94778e-07
5.20251e-07
-1.53506e-06
4.80571e-07
-1.63982e-06
4.39644e-07
-1.74079e-06
3.9758e-07
-1.83753e-06
3.54495e-07
-1.9296e-06
3.10509e-07
-2.01666e-06
2.65733e-07
-2.09849e-06
2.20249e-07
-2.17513e-06
1.74088e-07
-2.24698e-06
1.27183e-07
-2.31506e-06
7.93204e-08
-2.38125e-06
3.00788e-08
-2.44867e-06
-2.12148e-08
-2.52209e-06
-7.54933e-08
-2.60837e-06
-1.33876e-07
-2.71663e-06
-1.97457e-07
-2.85816e-06
-2.66927e-07
-3.04551e-06
-3.42002e-07
-3.29064e-06
-4.20691e-07
-3.60175e-06
-4.98525e-07
-3.97881e-06
-5.67968e-07
-4.40776e-06
-6.1839e-07
-4.85416e-06
-6.37179e-07
-5.25767e-06
-6.12576e-07
-5.53073e-06
-5.38478e-07
-5.56686e-06
-4.20084e-07
-5.26454e-06
-2.77021e-07
-4.56727e-06
-1.39667e-07
-3.50177e-06
-3.9242e-08
-2.17783e-06
-7.3402e-07
6.33017e-07
-1.4942e-06
5.90549e-07
-1.59735e-06
5.46575e-07
-1.69682e-06
5.01203e-07
-1.79216e-06
4.54553e-07
-1.88295e-06
4.06757e-07
-1.96886e-06
3.57945e-07
-2.04968e-06
3.08234e-07
-2.12541e-06
2.57703e-07
-2.19645e-06
2.06358e-07
-2.26371e-06
1.54078e-07
-2.32897e-06
1.0056e-07
-2.39515e-06
4.52613e-08
-2.46679e-06
-1.26257e-08
-2.55048e-06
-7.41277e-08
-2.65513e-06
-1.40334e-07
-2.79195e-06
-2.12054e-07
-2.97379e-06
-2.89286e-07
-3.2134e-06
-3.705e-07
-3.52054e-06
-4.5181e-07
-3.8975e-06
-5.2626e-07
-4.33331e-06
-5.83585e-07
-4.79684e-06
-6.11034e-07
-5.23022e-06
-5.95975e-07
-5.54579e-06
-5.30701e-07
-5.63213e-06
-4.18613e-07
-5.37662e-06
-2.78404e-07
-4.70748e-06
-1.41156e-07
-3.63902e-06
-3.98025e-08
-2.27918e-06
-7.73823e-07
7.45229e-07
-1.45081e-06
6.99987e-07
-1.55211e-06
6.52975e-07
-1.64981e-06
6.043e-07
-1.74348e-06
5.54087e-07
-1.83274e-06
5.02477e-07
-1.91725e-06
4.49617e-07
-1.99682e-06
3.95657e-07
-2.07145e-06
3.4072e-07
-2.14151e-06
2.84876e-07
-2.20787e-06
2.28093e-07
-2.27218e-06
1.70177e-07
-2.33723e-06
1.10713e-07
-2.40733e-06
4.90238e-08
-2.48879e-06
-1.58208e-08
-2.59028e-06
-8.48694e-08
-2.7229e-06
-1.5902e-07
-2.89964e-06
-2.38516e-07
-3.13391e-06
-3.22251e-07
-3.4368e-06
-4.06907e-07
-3.81284e-06
-4.86133e-07
-4.25409e-06
-5.50085e-07
-4.73288e-06
-5.85962e-07
-5.19434e-06
-5.80331e-07
-5.55142e-06
-5.23883e-07
-5.68858e-06
-4.181e-07
-5.48241e-06
-2.80571e-07
-4.84501e-06
-1.43075e-07
-3.77652e-06
-4.04743e-08
-2.38178e-06
-8.14297e-07
8.56709e-07
8.08699e-07
7.58655e-07
7.06681e-07
-1.69151e-06
6.52907e-07
-1.77897e-06
5.97482e-07
-1.86183e-06
5.40572e-07
-1.93991e-06
4.82353e-07
-2.01324e-06
4.2299e-07
-2.08215e-06
3.62614e-07
-2.14749e-06
3.01272e-07
-2.21084e-06
2.38875e-07
-2.27484e-06
1.7513e-07
-2.34359e-06
1.09487e-07
-2.42315e-06
4.11284e-08
-2.52192e-06
-3.09469e-08
-2.65083e-06
-1.07685e-07
-2.8229e-06
-1.8954e-07
-3.05205e-06
-2.75795e-07
-3.35055e-06
-3.63689e-07
-3.72495e-06
-4.47486e-07
-4.17029e-06
-5.17824e-07
-4.66255e-06
-5.61939e-07
-5.15022e-06
-5.65673e-07
-5.54769e-06
-5.18113e-07
-5.73614e-06
-4.1869e-07
-5.58183e-06
-2.83685e-07
-4.98002e-06
-1.45539e-07
-3.91466e-06
-4.12963e-08
-2.48602e-06
-8.55593e-07
8.08149e-07
-1.63624e-06
7.50817e-07
-1.72163e-06
6.91583e-07
-1.80259e-06
6.30628e-07
-1.87896e-06
5.68154e-07
-1.95076e-06
5.04367e-07
-2.01836e-06
4.3945e-07
-2.08258e-06
3.73526e-07
-2.14492e-06
3.06602e-07
-2.20791e-06
2.38501e-07
-2.27548e-06
1.68801e-07
-2.35345e-06
9.67969e-08
-2.44992e-06
2.15562e-08
-2.57559e-06
-5.7894e-08
-2.74345e-06
-1.42186e-07
-2.96776e-06
-2.30959e-07
-3.26177e-06
-3.21989e-07
-3.63392e-06
-4.10173e-07
-4.08211e-06
-4.86682e-07
-4.58604e-06
-5.3888e-07
-5.09803e-06
-5.51966e-07
-5.5346e-06
-5.13427e-07
-5.77468e-06
-4.20497e-07
-5.67476e-06
-2.879e-07
-5.11261e-06
-1.48667e-07
-4.0539e-06
-4.23103e-08
-2.59238e-06
-8.97904e-07
9.08494e-07
-1.57768e-06
8.47615e-07
-1.66076e-06
7.84585e-07
-1.73956e-06
7.19603e-07
-1.81397e-06
6.52896e-07
-1.88405e-06
5.84705e-07
-1.95017e-06
5.15265e-07
-2.01314e-06
4.44768e-07
-2.07442e-06
3.7331e-07
-2.13645e-06
3.00824e-07
-2.203e-06
2.2701e-07
-2.27963e-06
1.51279e-07
-2.37419e-06
7.27767e-08
-2.49709e-06
-9.48259e-09
-2.66119e-06
-9.6261e-08
-2.88098e-06
-1.87537e-07
-3.1705e-06
-2.81603e-07
-3.53985e-06
-3.74e-07
-3.98971e-06
-4.56486e-07
-4.50355e-06
-5.16642e-07
-5.03787e-06
-5.39117e-07
-5.51213e-06
-5.09807e-07
-5.80399e-06
-4.23594e-07
-5.76097e-06
-2.93356e-07
-5.24285e-06
-1.5258e-07
-4.19467e-06
-4.35607e-08
-2.7014e-06
-9.41464e-07
1.0075e-06
-1.51584e-06
9.43089e-07
-1.59635e-06
8.7629e-07
-1.67276e-06
8.07315e-07
-1.745e-06
7.36415e-07
-1.81315e-06
6.63866e-07
-1.87762e-06
5.89951e-07
-1.93922e-06
5.14924e-07
-1.9994e-06
4.38966e-07
-2.0605e-06
3.62112e-07
-2.12614e-06
2.84175e-07
-2.20169e-06
2.04685e-07
-2.2947e-06
1.22871e-07
-2.41527e-06
3.77605e-08
-2.57608e-06
-5.15378e-08
-2.79168e-06
-1.45291e-07
-3.07675e-06
-2.42289e-07
-3.44286e-06
-3.38728e-07
-3.89327e-06
-4.27006e-07
-4.41527e-06
-4.95017e-07
-4.96986e-06
-5.26963e-07
-5.48018e-06
-5.07171e-07
-5.82378e-06
-4.28011e-07
-5.84013e-06
-3.00173e-07
-5.37069e-06
-1.574e-07
-4.33745e-06
-4.50953e-08
-2.8137e-06
-9.8656e-07
1.10492e-06
-1.45075e-06
1.03702e-06
-1.52844e-06
9.66492e-07
-1.60224e-06
8.93579e-07
-1.67209e-06
8.18553e-07
-1.73813e-06
7.41722e-07
-1.80079e-06
6.63414e-07
-1.86091e-06
5.83941e-07
-1.91992e-06
5.0356e-07
-1.98011e-06
4.22401e-07
-2.04499e-06
3.40386e-07
-2.11968e-06
2.57155e-07
-2.21147e-06
1.72025e-07
-2.33014e-06
8.40462e-08
-2.4881e-06
-7.76821e-09
-2.69987e-06
-1.03942e-07
-2.98057e-06
-2.03758e-07
-3.34304e-06
-3.04064e-07
-3.79297e-06
-3.97953e-07
-4.32138e-06
-4.73732e-07
-4.89408e-06
-5.15269e-07
-5.43865e-06
-5.05366e-07
-5.83368e-06
-4.33723e-07
-5.91177e-06
-3.08451e-07
-5.49596e-06
-1.63249e-07
-4.48265e-06
-4.69649e-08
-2.92999e-06
-1.03352e-06
1.20051e-06
-1.38244e-06
1.12917e-06
-1.4571e-06
1.05498e-06
-1.52806e-06
9.78218e-07
-1.59532e-06
8.99164e-07
-1.65908e-06
8.18163e-07
-1.71979e-06
7.35583e-07
-1.77833e-06
6.51792e-07
-1.83613e-06
5.67114e-07
-1.89544e-06
4.81765e-07
-1.95964e-06
3.95768e-07
-2.03368e-06
3.08867e-07
-2.12457e-06
2.20469e-07
-2.24174e-06
1.29657e-07
-2.39729e-06
3.53739e-08
-2.60559e-06
-6.31597e-08
-2.88204e-06
-1.65666e-07
-3.24053e-06
-2.69659e-07
-3.68897e-06
-3.68974e-07
-4.22207e-06
-4.52438e-07
-4.81062e-06
-5.0372e-07
-5.38737e-06
-5.04162e-07
-5.83324e-06
-4.40642e-07
-5.97529e-06
-3.18255e-07
-5.61835e-06
-1.70251e-07
-4.63065e-06
-4.92241e-08
-3.05102e-06
-1.08275e-06
1.29401e-06
-1.31099e-06
1.2193e-06
-1.38239e-06
1.14156e-06
-1.45032e-06
1.06106e-06
-1.51482e-06
9.78121e-07
-1.57613e-06
8.93105e-07
-1.63478e-06
8.06423e-07
-1.69165e-06
7.18491e-07
-1.7482e-06
6.29695e-07
-1.80664e-06
5.40327e-07
-1.87027e-06
4.50501e-07
-1.94386e-06
3.60058e-07
-2.03412e-06
2.6849e-07
-2.15017e-06
1.7492e-07
-2.30372e-06
7.82348e-08
-2.5089e-06
-2.25584e-08
-2.78124e-06
-1.27613e-07
-3.13548e-06
-2.351e-07
-3.58149e-06
-3.39645e-07
-4.11752e-06
-4.30711e-07
-4.71955e-06
-4.91915e-07
-5.32616e-06
-5.03239e-07
-5.82192e-06
-4.48605e-07
-6.02993e-06
-3.29613e-07
-5.73734e-06
-1.78525e-07
-4.78174e-06
-5.19311e-08
-3.17761e-06
-1.13468e-06
1.38513e-06
-1.23649e-06
1.30719e-06
-1.30445e-06
1.22604e-06
-1.36917e-06
1.14197e-06
-1.43075e-06
1.05533e-06
-1.48949e-06
9.66506e-07
-1.54595e-06
8.75946e-07
-1.60109e-06
7.8411e-07
-1.65636e-06
6.91434e-07
-1.71397e-06
5.98279e-07
-1.77711e-06
5.04837e-07
-1.85041e-06
4.11038e-07
-1.94033e-06
3.1645e-07
-2.05559e-06
2.20244e-07
-2.20752e-06
1.21263e-07
-2.40992e-06
1.83283e-08
-2.67831e-06
-8.91169e-08
-3.02803e-06
-1.99895e-07
-3.47071e-06
-3.09464e-07
-4.00795e-06
-4.08036e-07
-4.62098e-06
-4.79357e-07
-5.25484e-06
-5.02176e-07
-5.7991e-06
-4.57362e-07
-6.07474e-06
-3.42504e-07
-5.8522e-06
-1.88185e-07
-4.93606e-06
-5.51487e-08
-3.31065e-06
-1.18983e-06
1.47361e-06
-1.15908e-06
1.39261e-06
-1.22344e-06
1.30824e-06
-1.28481e-06
1.22083e-06
-1.34334e-06
1.13073e-06
-1.39939e-06
1.03838e-06
-1.4536e-06
9.44232e-07
-1.50694e-06
8.48794e-07
-1.56092e-06
7.52546e-07
-1.61772e-06
6.55902e-07
-1.68047e-06
5.59123e-07
-1.75364e-06
4.62212e-07
-1.84341e-06
3.64812e-07
-1.95819e-06
2.66136e-07
-2.10884e-06
1.65e-07
-2.30878e-06
6.00623e-08
-2.57337e-06
-4.9607e-08
-2.91836e-06
-1.63465e-07
-3.35685e-06
-2.77837e-07
-3.89358e-06
-3.83805e-07
-4.51501e-06
-4.65441e-07
-5.1732e-06
-5.00439e-07
-5.7641e-06
-4.6656e-07
-6.10862e-06
-3.56843e-07
-5.96192e-06
-1.99339e-07
-5.09356e-06
-5.89448e-08
-3.45104e-06
-1.24877e-06
1.55921e-06
-1.07898e-06
1.47537e-06
-1.1396e-06
1.38805e-06
-1.19749e-06
1.29759e-06
-1.25287e-06
1.20436e-06
-1.30616e-06
1.10882e-06
-1.35805e-06
1.01145e-06
-1.40958e-06
9.12793e-07
-1.46226e-06
8.13355e-07
-1.51828e-06
7.13595e-07
-1.58071e-06
6.13827e-07
-1.65387e-06
5.14115e-07
-1.7437e-06
4.14164e-07
-1.85824e-06
3.13229e-07
-2.0079e-06
2.10107e-07
-2.20566e-06
1.03321e-07
-2.46659e-06
-8.39814e-09
-2.80664e-06
-1.25118e-07
-3.24013e-06
-2.44063e-07
-3.77464e-06
-3.573e-07
-4.40177e-06
-4.49445e-07
-5.08106e-06
-4.97369e-07
-5.71617e-06
-4.75726e-07
-6.13026e-06
-3.72466e-07
-6.06518e-06
-2.12079e-07
-5.25395e-06
-6.33951e-08
-3.59972e-06
-1.31217e-06
1.64171e-06
-9.96458e-07
1.55534e-06
-1.05324e-06
1.46542e-06
-1.10757e-06
1.37229e-06
-1.15974e-06
1.27634e-06
-1.21022e-06
1.17804e-06
-1.25976e-06
1.07791e-06
-1.30945e-06
9.76496e-07
-1.36085e-06
8.74334e-07
-1.41612e-06
7.71911e-07
-1.47829e-06
6.69577e-07
-1.55153e-06
5.67442e-07
-1.64157e-06
4.65259e-07
-1.75605e-06
3.62318e-07
-1.90496e-06
2.57411e-07
-2.10076e-06
1.48944e-07
-2.35812e-06
3.53487e-08
-2.69305e-06
-8.40265e-08
-3.12075e-06
-2.07311e-07
-3.65135e-06
-3.27674e-07
-4.28141e-06
-4.30512e-07
-4.97822e-06
-4.92162e-07
-5.65453e-06
-4.84249e-07
-6.13818e-06
-3.89117e-07
-6.16031e-06
-2.26483e-07
-5.41658e-06
-6.85879e-08
-3.75762e-06
-1.38076e-06
1.72099e-06
-9.11876e-07
1.63251e-06
-9.6476e-07
1.54042e-06
-1.01549e-06
1.44509e-06
-1.0644e-06
1.34693e-06
-1.11205e-06
1.24641e-06
-1.15925e-06
1.14408e-06
-1.20711e-06
1.04047e-06
-1.25724e-06
9.36147e-07
-1.31179e-06
8.31603e-07
-1.37374e-06
7.27205e-07
-1.44714e-06
6.23094e-07
-1.53746e-06
5.19055e-07
-1.65201e-06
4.14408e-07
-1.80032e-06
3.07938e-07
-1.99429e-06
1.97961e-07
-2.24814e-06
8.26496e-08
-2.57774e-06
-3.91899e-08
-2.99892e-06
-1.66593e-07
-3.52395e-06
-2.93929e-07
-4.15407e-06
-4.07632e-07
-4.86452e-06
-4.83849e-07
-5.57831e-06
-4.91359e-07
-6.13067e-06
-4.06422e-07
-6.24525e-06
-2.42606e-07
-5.5804e-06
-7.46322e-08
-3.92559e-06
-1.45539e-06
1.79709e-06
-8.25702e-07
1.70699e-06
-8.74664e-07
1.61329e-06
-9.21782e-07
1.51635e-06
-9.6746e-07
1.4166e-06
-1.0123e-06
1.31453e-06
-1.05717e-06
1.21065e-06
-1.10324e-06
1.10553e-06
-1.15212e-06
9.99708e-07
-1.20597e-06
8.93677e-07
-1.26771e-06
7.87805e-07
-1.34126e-06
6.82239e-07
-1.43189e-06
5.7678e-07
-1.54655e-06
4.70765e-07
-1.6943e-06
3.62976e-07
-1.8865e-06
2.51659e-07
-2.13683e-06
1.34766e-07
-2.46084e-06
1.06139e-08
-2.87476e-06
-1.20717e-07
-3.39262e-06
-2.54883e-07
-4.01991e-06
-3.79613e-07
-4.73979e-06
-4.71277e-07
-5.48664e-06
-4.96098e-07
-6.10585e-06
-4.23871e-07
-6.31747e-06
-2.60474e-07
-5.7438e-06
-8.16733e-08
-4.10439e-06
-1.53706e-06
1.87023e-06
-7.38523e-07
1.77916e-06
-7.83594e-07
1.68452e-06
-8.27145e-07
1.5867e-06
-8.69636e-07
1.48612e-06
-9.11725e-07
1.38326e-06
-9.54316e-07
1.27865e-06
-9.98625e-07
1.1728e-06
-1.04628e-06
1.06625e-06
-1.09942e-06
9.59472e-07
-1.16093e-06
8.52802e-07
-1.23459e-06
7.46376e-07
-1.32546e-06
6.39992e-07
-1.44017e-06
5.32989e-07
-1.5873e-06
4.24143e-07
-1.77765e-06
3.11644e-07
-2.02433e-06
1.93265e-07
-2.34247e-06
6.68933e-08
-2.74839e-06
-6.82387e-08
-3.25749e-06
-2.09119e-07
-3.87903e-06
-3.45045e-07
-4.60386e-06
-4.53069e-07
-5.37862e-06
-4.97293e-07
-6.06162e-06
-4.40786e-07
-6.37398e-06
-2.80076e-07
-5.90451e-06
-8.99155e-08
-4.29455e-06
-1.62698e-06
1.94097e-06
-6.51073e-07
1.84971e-06
-6.92331e-07
1.75497e-06
-7.32405e-07
1.65713e-06
-7.718e-07
1.55662e-06
-8.11218e-07
1.45391e-06
-8.516e-07
1.34948e-06
-8.94192e-07
1.24383e-06
-9.40626e-07
1.13744e-06
-9.93039e-07
1.03075e-06
-1.05423e-06
9.24047e-07
-1.12789e-06
8.17433e-07
-1.21885e-06
7.10677e-07
-1.33342e-06
6.03104e-07
-1.47973e-06
4.93473e-07
-1.66802e-06
3.79932e-07
-1.91079e-06
2.60111e-07
-2.22264e-06
1.3153e-07
-2.61981e-06
-7.35069e-09
-3.11861e-06
-1.54923e-07
-3.73146e-06
-3.02243e-07
-4.45654e-06
-4.27584e-07
-5.25328e-06
-4.93511e-07
-5.9957e-06
-4.56283e-07
-6.41121e-06
-3.01348e-07
-6.05944e-06
-9.96529e-08
-4.49625e-06
-1.72663e-06
2.01036e-06
-5.64247e-07
1.91986e-06
-6.01825e-07
1.826e-06
-6.38554e-07
1.72918e-06
-6.74979e-07
1.6298e-06
-7.11835e-07
1.52829e-06
-7.5009e-07
1.4251e-06
-7.91005e-07
1.32069e-06
-8.36212e-07
1.21547e-06
-8.87821e-07
1.10981e-06
-9.4857e-07
1.00393e-06
-1.02202e-06
8.97875e-07
-1.11279e-06
7.91358e-07
-1.2269e-06
6.83667e-07
-1.37204e-06
5.73535e-07
-1.55789e-06
4.59065e-07
-1.79632e-06
3.37773e-07
-2.10135e-06
2.06873e-07
-2.48891e-06
6.41114e-08
-2.97585e-06
-9.02192e-08
-3.57713e-06
-2.49166e-07
-4.29759e-06
-3.9285e-07
-5.10959e-06
-4.82997e-07
-5.90555e-06
-4.69211e-07
-6.42499e-06
-3.24139e-07
-6.20451e-06
-1.11303e-07
-4.70908e-06
-1.83793e-06
2.08014e-06
-4.79119e-07
1.99152e-06
-5.13197e-07
1.89972e-06
-5.46755e-07
1.8051e-06
-5.80365e-07
1.70805e-06
-6.14784e-07
1.60896e-06
-6.50994e-07
1.50821e-06
-6.90259e-07
1.40619e-06
-7.34196e-07
1.30325e-06
-7.84879e-07
1.19965e-06
-8.4497e-07
1.09554e-06
-9.17903e-07
9.9085e-07
-1.00811e-06
8.85234e-07
-1.12128e-06
7.7791e-07
-1.26471e-06
6.67563e-07
-1.44754e-06
5.52245e-07
-1.681e-06
4.29375e-07
-1.97848e-06
2.95921e-07
-2.35546e-06
1.49029e-07
-2.82895e-06
-1.22737e-08
-3.41582e-06
-1.83339e-07
-4.12653e-06
-3.46481e-07
-4.94645e-06
-4.63575e-07
-5.78845e-06
-4.78066e-07
-6.4105e-06
-3.4815e-07
-6.33443e-06
-1.25438e-07
-4.9318e-06
-1.96337e-06
2.15305e-06
-3.96954e-07
2.06761e-06
-4.27751e-07
1.97919e-06
-4.58339e-07
1.88813e-06
-4.89304e-07
1.79476e-06
-5.21414e-07
1.69941e-06
-5.55649e-07
1.60242e-06
-5.93262e-07
1.50406e-06
-6.35841e-07
1.40459e-06
-6.85409e-07
1.30417e-06
-7.44547e-07
1.20282e-06
-8.16554e-07
1.10037e-06
-9.05659e-07
9.96362e-07
-1.01727e-06
8.89914e-07
-1.15826e-06
7.79637e-07
-1.33726e-06
6.63512e-07
-1.56487e-06
5.38864e-07
-1.85383e-06
4.02455e-07
-2.21905e-06
2.50905e-07
-2.6774e-06
8.198e-08
-3.2469e-06
-1.01884e-07
-3.94266e-06
-2.85454e-07
-4.76288e-06
-4.32503e-07
-5.6414e-06
-4.80873e-07
-6.36213e-06
-3.72842e-07
-6.44246e-06
-1.42789e-07
-5.16185e-06
-2.10616e-06
2.23323e-06
-3.19195e-07
2.15243e-06
-3.46953e-07
2.06888e-06
-3.74783e-07
1.98285e-06
-4.03274e-07
1.89462e-06
-4.33186e-07
1.80446e-06
-4.65488e-07
1.7126e-06
-5.01402e-07
1.61923e-06
-5.42476e-07
1.52449e-06
-5.90668e-07
1.42841e-06
-6.48461e-07
1.33087e-06
-7.19014e-07
1.23156e-06
-8.06351e-07
1.12988e-06
-9.1559e-07
1.02482e-06
-1.05321e-06
9.14889e-07
-1.22733e-06
7.9795e-07
-1.44793e-06
6.71217e-07
-1.7271e-06
5.31262e-07
-2.07909e-06
3.743e-07
-2.52044e-06
1.97262e-07
-3.06986e-06
8.06296e-10
-3.74621e-06
-2.05859e-07
-4.55622e-06
-3.86385e-07
-5.46088e-06
-4.75011e-07
-6.27351e-06
-3.97246e-07
-6.52022e-06
-1.64187e-07
-5.39491e-06
-2.27035e-06
2.32677e-06
-2.47427e-07
2.2522e-06
-2.72388e-07
2.17508e-06
-2.97662e-07
2.09563e-06
-3.23823e-07
2.01406e-06
-3.51617e-07
1.93055e-06
-3.81979e-07
1.84524e-06
-4.16093e-07
1.75821e-06
-4.55445e-07
1.66946e-06
-5.01914e-07
1.57887e-06
-5.57872e-07
1.48618e-06
-6.26323e-07
1.3909e-06
-7.11077e-07
1.29227e-06
-8.1696e-07
1.18912e-06
-9.50057e-07
1.07977e-06
-1.11798e-06
9.61954e-07
-1.33012e-06
8.32716e-07
-1.59786e-06
6.88422e-07
-1.9348e-06
5.24906e-07
-2.35693e-06
3.38025e-07
-2.88298e-06
1.25752e-07
-3.53394e-06
-1.03788e-07
-4.32668e-06
-3.20785e-07
-5.24388e-06
-4.56804e-07
-6.13749e-06
-4.19636e-07
-6.55739e-06
-1.90408e-07
-5.62414e-06
-2.46075e-06
2.44235e-06
-1.83297e-07
2.37564e-06
-2.05678e-07
2.30654e-06
-2.28558e-07
2.2352e-06
-2.5249e-07
2.16177e-06
-2.78188e-07
2.08634e-06
-3.06544e-07
2.00893e-06
-3.38683e-07
1.9295e-06
-3.76019e-07
1.84792e-06
-4.20332e-07
1.76391e-06
-4.73865e-07
1.67704e-06
-5.39451e-07
1.58664e-06
-6.20671e-07
1.49172e-06
-7.22044e-07
1.39092e-06
-8.49257e-07
1.28235e-06
-1.00941e-06
1.16353e-06
-1.21129e-06
1.03127e-06
-1.4656e-06
8.81682e-07
-1.78521e-06
7.10222e-07
-2.18547e-06
5.11999e-07
-2.68476e-06
2.83463e-07
-3.3054e-06
2.83017e-08
-4.07152e-06
-2.2975e-07
-4.98583e-06
-4.21139e-07
-5.9461e-06
-4.37097e-07
-6.54143e-06
-2.21856e-07
-5.83938e-06
-2.68261e-06
2.5921e-06
-1.28382e-07
2.53476e-06
-1.4834e-07
2.47513e-06
-1.68927e-07
2.4133e-06
-1.90662e-07
2.34933e-06
-2.14215e-07
2.28321e-06
-2.40423e-07
2.21487e-06
-2.70338e-07
2.14413e-06
-3.05284e-07
2.07072e-06
-3.46924e-07
1.99421e-06
-3.97353e-07
1.91397e-06
-4.59209e-07
1.82912e-06
-5.35821e-07
1.73846e-06
-6.31382e-07
1.64036e-06
-7.51156e-07
1.53267e-06
-9.01725e-07
1.41261e-06
-1.09124e-06
1.2767e-06
-1.32969e-06
1.12068e-06
-1.6292e-06
9.39586e-07
-2.00437e-06
7.27865e-07
-2.47303e-06
4.80287e-07
-3.05782e-06
1.96124e-07
-3.78735e-06
-1.05758e-07
-4.68395e-06
-3.6099e-07
-5.69087e-06
-4.44922e-07
-6.4575e-06
-2.58011e-07
-6.02629e-06
-2.94062e-06
2.7924e-06
-8.39795e-08
2.74565e-06
-1.01595e-07
2.69663e-06
-1.19906e-07
2.64536e-06
-1.39395e-07
2.59182e-06
-1.60674e-07
2.53591e-06
-1.84514e-07
2.47746e-06
-2.11881e-07
2.41616e-06
-2.4399e-07
2.35161e-06
-2.8237e-07
2.2832e-06
-3.28941e-07
2.21011e-06
-3.86124e-07
2.13125e-06
-4.56963e-07
2.04516e-06
-5.45292e-07
1.94993e-06
-6.55923e-07
1.84308e-06
-7.94871e-07
1.72146e-06
-9.69616e-07
1.58116e-06
-1.18939e-06
1.41746e-06
-1.4655e-06
1.22484e-06
-1.81175e-06
9.97054e-07
-2.24525e-06
7.27506e-07
-2.78827e-06
4.12081e-07
-3.47193e-06
6.19475e-08
-4.33381e-06
-2.66862e-07
-5.36206e-06
-4.35712e-07
-6.28865e-06
-2.96552e-07
-6.16545e-06
-3.23717e-06
3.06462e-06
-5.08454e-08
3.02913e-06
-6.61036e-08
2.9913e-06
-8.20718e-08
2.95108e-06
-9.91803e-08
2.90839e-06
-1.1798e-07
2.86304e-06
-1.39163e-07
2.81476e-06
-1.63596e-07
2.76314e-06
-1.9237e-07
2.70762e-06
-2.26855e-07
2.64746e-06
-2.68776e-07
2.58163e-06
-3.203e-07
2.50882e-06
-3.84154e-07
2.4273e-06
-4.6377e-07
2.33483e-06
-5.63454e-07
2.22857e-06
-6.88605e-07
2.10491e-06
-8.45961e-07
1.95943e-06
-1.04391e-06
1.78678e-06
-1.29284e-06
1.5807e-06
-1.60568e-06
1.3341e-06
-1.99864e-06
1.03914e-06
-2.49331e-06
6.88446e-07
-3.12124e-06
2.84636e-07
-3.93e-06
-1.24624e-07
-4.9528e-06
-3.98088e-07
-6.01519e-06
-3.32309e-07
-6.23123e-06
-3.56948e-06
3.43536e-06
-2.88741e-08
3.41094e-06
-4.16815e-08
3.38403e-06
-5.51641e-08
3.35455e-06
-6.96963e-08
3.32233e-06
-8.57587e-08
3.28712e-06
-1.03953e-07
3.24856e-06
-1.25036e-07
3.20614e-06
-1.49956e-07
3.1592e-06
-1.79907e-07
3.10681e-06
-2.16386e-07
3.04779e-06
-2.61279e-07
2.98058e-06
-3.16953e-07
2.9032e-06
-3.86386e-07
2.81306e-06
-4.73319e-07
2.70692e-06
-5.82457e-07
2.58066e-06
-7.19702e-07
2.42923e-06
-8.92482e-07
2.2465e-06
-1.11012e-06
2.02529e-06
-1.38447e-06
1.75738e-06
-1.73073e-06
1.43362e-06
-2.16955e-06
1.04404e-06
-2.73166e-06
5.8386e-07
-3.46983e-06
8.53091e-08
-4.45425e-06
-3.16114e-07
-5.61377e-06
-3.56437e-07
-6.19091e-06
-3.92592e-06
3.93548e-06
-1.68016e-08
3.92082e-06
-2.7023e-08
3.9035e-06
-3.78475e-08
3.8834e-06
-4.95879e-08
3.86028e-06
-6.2647e-08
3.83386e-06
-7.75286e-08
3.80369e-06
-9.48648e-08
3.76918e-06
-1.15448e-07
3.72955e-06
-1.40275e-07
3.68375e-06
-1.70592e-07
3.63044e-06
-2.07968e-07
3.56786e-06
-2.54369e-07
3.49374e-06
-3.12269e-07
3.4052e-06
-3.84774e-07
3.29855e-06
-4.75809e-07
3.16916e-06
-5.90315e-07
3.01129e-06
-7.34606e-07
2.81789e-06
-9.16721e-07
2.58063e-06
-1.1472e-06
2.28983e-06
-1.43993e-06
1.93473e-06
-1.81445e-06
1.50304e-06
-2.29998e-06
9.82649e-07
-2.94943e-06
3.84479e-07
-3.85608e-06
-1.64366e-07
-5.06492e-06
-3.5678e-07
-5.99849e-06
-4.2827e-06
4.59718e-06
-1.20451e-08
4.58973e-06
-1.95763e-08
4.5795e-06
-2.76128e-08
4.56631e-06
-3.64001e-08
4.54992e-06
-4.62561e-08
4.52997e-06
-5.75789e-08
4.50597e-06
-7.08667e-08
4.47727e-06
-8.67424e-08
4.44298e-06
-1.05987e-07
4.40196e-06
-1.29576e-07
4.35273e-06
-1.58735e-07
4.29335e-06
-1.94993e-07
4.22136e-06
-2.40274e-07
4.13357e-06
-2.96986e-07
4.02595e-06
-3.68187e-07
3.89336e-06
-4.57727e-07
3.72938e-06
-5.70624e-07
3.52599e-06
-7.13335e-07
3.27353e-06
-8.94737e-07
2.96044e-06
-1.12685e-06
2.57378e-06
-1.42779e-06
2.09868e-06
-1.82488e-06
1.5179e-06
-2.36865e-06
8.21647e-07
-3.15982e-06
1.0284e-07
-4.34611e-06
-3.0111e-07
-5.59454e-06
-4.58381e-06
5.44832e-06
-1.08914e-08
5.44451e-06
-1.5765e-08
5.43793e-06
-2.10269e-08
5.42838e-06
-2.68517e-08
5.41559e-06
-3.3468e-08
5.39917e-06
-4.11622e-08
5.3786e-06
-5.02913e-08
5.35316e-06
-6.12995e-08
5.32191e-06
-7.47423e-08
5.28365e-06
-9.13101e-08
5.23678e-06
-1.11868e-07
5.17927e-06
-1.37488e-07
5.10852e-06
-1.6952e-07
5.02117e-06
-2.09634e-07
4.91295e-06
-2.5997e-07
4.77841e-06
-3.23183e-07
4.61062e-06
-4.02839e-07
4.40076e-06
-5.03478e-07
4.13784e-06
-6.31814e-07
3.80808e-06
-7.97086e-07
3.39531e-06
-1.01501e-06
2.88032e-06
-1.30989e-06
2.24147e-06
-1.7298e-06
1.45106e-06
-2.36941e-06
5.55251e-07
-3.4503e-06
-1.07237e-07
-4.93205e-06
-4.69105e-06
6.50425e-06
-9.35217e-09
6.50034e-06
-1.18504e-08
6.49392e-06
-1.46054e-08
6.48478e-06
-1.77209e-08
6.47265e-06
-2.13342e-08