/*--------------------------------*- C++ -*----------------------------------*\
  =========                 |
  \\      /  F ield         | OpenFOAM: The Open Source CFD Toolbox
   \\    /   O peration     | Website:  https://openfoam.org
    \\  /    A nd           | Version:  9
     \\/     M anipulation  |
\*---------------------------------------------------------------------------*/
FoamFile
{
    format      ascii;
    class       volVectorField;
    location    "1.25";
    object      U;
}
// * * * * * * * * * * * * * * * * * * * * * * * * * * * * * * * * * * * * * //

dimensions      [0 1 -1 0 0 0 0];

internalField   nonuniform List<vector> 
1260
(
(-0.0697236 -0.181533 0)
(-0.0705207 -0.192202 0)
(-0.0712274 -0.20239 0)
(-0.071847 -0.212076 0)
(-0.0723923 -0.22126 0)
(-0.0728894 -0.229973 0)
(-0.0733814 -0.238295 0)
(-0.073933 -0.246368 0)
(-0.0746335 -0.254421 0)
(-0.0755987 -0.262786 0)
(-0.076967 -0.271912 0)
(-0.0788897 -0.282363 0)
(-0.0815111 -0.294788 0)
(-0.0849378 -0.309864 0)
(-0.0891964 -0.328176 0)
(-0.0941837 -0.35006 0)
(-0.0996158 -0.375393 0)
(-0.104989 -0.403351 0)
(-0.109565 -0.432184 0)
(-0.112404 -0.459063 0)
(-0.112463 -0.480082 0)
(-0.108763 -0.49054 0)
(-0.100639 -0.485601 0)
(-0.0880144 -0.461365 0)
(-0.0716276 -0.416189 0)
(-0.0530737 -0.351791 0)
(-0.0345453 -0.273448 0)
(-0.0183013 -0.188859 0)
(-0.00634476 -0.106084 0)
(-0.000837623 -0.0314967 0)
(-0.0590296 -0.18055 0)
(-0.0601159 -0.191303 0)
(-0.0611231 -0.201576 0)
(-0.0620503 -0.211343 0)
(-0.0629042 -0.220591 0)
(-0.0637032 -0.229339 0)
(-0.0644804 -0.237647 0)
(-0.0652889 -0.245636 0)
(-0.0662055 -0.253509 0)
(-0.0673336 -0.261572 0)
(-0.068802 -0.270253 0)
(-0.0707584 -0.280109 0)
(-0.0733531 -0.291806 0)
(-0.0767119 -0.30607 0)
(-0.0808965 -0.323584 0)
(-0.085855 -0.344831 0)
(-0.0913678 -0.369884 0)
(-0.0970005 -0.398146 0)
(-0.102078 -0.428097 0)
(-0.105702 -0.457081 0)
(-0.106825 -0.481245 0)
(-0.104411 -0.495735 0)
(-0.0976735 -0.495292 0)
(-0.0863681 -0.475319 0)
(-0.0710555 -0.433308 0)
(-0.0532031 -0.370183 0)
(-0.0349742 -0.290797 0)
(-0.0187048 -0.202962 0)
(-0.00655189 -0.115273 0)
(-0.000881896 -0.0347568 0)
(-0.0481482 -0.179284 0)
(-0.0495257 -0.190106 0)
(-0.0508384 -0.200454 0)
(-0.0520819 -0.210294 0)
(-0.0532582 -0.219607 0)
(-0.054379 -0.228398 0)
(-0.0554687 -0.236712 0)
(-0.0565697 -0.244647 0)
(-0.0577464 -0.252382 0)
(-0.0590893 -0.260197 0)
(-0.0607158 -0.268496 0)
(-0.0627664 -0.277822 0)
(-0.0653921 -0.288845 0)
(-0.0687313 -0.30233 0)
(-0.0728734 -0.319038 0)
(-0.0778106 -0.339586 0)
(-0.0833824 -0.36423 0)
(-0.0892224 -0.392603 0)
(-0.0947218 -0.423421 0)
(-0.0990294 -0.454234 0)
(-0.101111 -0.481285 0)
(-0.09989 -0.49963 0)
(-0.0944754 -0.503646 0)
(-0.0844648 -0.488073 0)
(-0.0702426 -0.449522 0)
(-0.0531385 -0.388053 0)
(-0.0352706 -0.307985 0)
(-0.0190366 -0.217151 0)
(-0.00673422 -0.124637 0)
(-0.000923001 -0.0381211 0)
(-0.0371064 -0.177735 0)
(-0.0387752 -0.18861 0)
(-0.0403958 -0.199019 0)
(-0.0419613 -0.208922 0)
(-0.0434698 -0.218294 0)
(-0.0449274 -0.22713 0)
(-0.0463511 -0.235459 0)
(-0.0477735 -0.243362 0)
(-0.0492475 -0.250995 0)
(-0.0508505 -0.258609 0)
(-0.0526875 -0.266585 0)
(-0.0548891 -0.275443 0)
(-0.0576028 -0.285852 0)
(-0.0609736 -0.298599 0)
(-0.0651117 -0.314512 0)
(-0.0700463 -0.334323 0)
(-0.07567 -0.35846 0)
(-0.081681 -0.386776 0)
(-0.0875375 -0.418235 0)
(-0.0924433 -0.450614 0)
(-0.0953883 -0.480296 0)
(-0.0952698 -0.5023 0)
(-0.09111 -0.510703 0)
(-0.0823605 -0.499627 0)
(-0.0692319 -0.464798 0)
(-0.0529087 -0.405346 0)
(-0.0354505 -0.324955 0)
(-0.0193028 -0.231378 0)
(-0.00689274 -0.134142 0)
(-0.000960785 -0.0415774 0)
(-0.0259315 -0.175905 0)
(-0.0278903 -0.186815 0)
(-0.0298192 -0.197267 0)
(-0.0317096 -0.207219 0)
(-0.0335567 -0.216641 0)
(-0.035362 -0.225518 0)
(-0.0371363 -0.233867 0)
(-0.0389034 -0.241754 0)
(-0.0407054 -0.24931 0)
(-0.0426075 -0.256763 0)
(-0.0447013 -0.264466 0)
(-0.0471058 -0.272916 0)
(-0.0499617 -0.282772 0)
(-0.0534157 -0.294831 0)
(-0.0575921 -0.309973 0)
(-0.0625502 -0.32903 0)
(-0.0682295 -0.352588 0)
(-0.0743887 -0.38071 0)
(-0.0805524 -0.41261 0)
(-0.0859836 -0.446309 0)
(-0.0897063 -0.478369 0)
(-0.0906064 -0.503827 0)
(-0.0876339 -0.516523 0)
(-0.0801068 -0.510004 0)
(-0.0680659 -0.479125 0)
(-0.0525442 -0.422029 0)
(-0.0355316 -0.341663 0)
(-0.019511 -0.245599 0)
(-0.00702904 -0.143758 0)
(-0.000995197 -0.045114 0)
(-0.0146496 -0.173795 0)
(-0.016896 -0.18472 0)
(-0.0191324 -0.195197 0)
(-0.021349 -0.205183 0)
(-0.0235386 -0.214641 0)
(-0.0256994 -0.22355 0)
(-0.0278365 -0.231919 0)
(-0.0299666 -0.239796 0)
(-0.032122 -0.247295 0)
(-0.0343559 -0.25462 0)
(-0.0367468 -0.262094 0)
(-0.0394011 -0.270191 0)
(-0.0424499 -0.279552 0)
(-0.0460372 -0.290979 0)
(-0.0502961 -0.305386 0)
(-0.0553095 -0.32369 0)
(-0.0610568 -0.346617 0)
(-0.0673526 -0.374434 0)
(-0.0737863 -0.406598 0)
(-0.0796829 -0.441392 0)
(-0.0841083 -0.475585 0)
(-0.0859494 -0.504286 0)
(-0.0840987 -0.521157 0)
(-0.0777525 -0.51923 0)
(-0.0667861 -0.4925 0)
(-0.0520767 -0.438078 0)
(-0.0355342 -0.358073 0)
(-0.0196706 -0.259782 0)
(-0.00714558 -0.15346 0)
(-0.00102632 -0.04872 0)
(-0.00328598 -0.17141 0)
(-0.00581683 -0.182329 0)
(-0.00835889 -0.192812 0)
(-0.0109015 -0.202811 0)
(-0.0134358 -0.212289 0)
(-0.0159572 -0.221219 0)
(-0.0184666 -0.229601 0)
(-0.020974 -0.23747 0)
(-0.0235032 -0.244924 0)
(-0.0260962 -0.252144 0)
(-0.0288189 -0.259428 0)
(-0.0317643 -0.267222 0)
(-0.0350522 -0.276145 0)
(-0.0388207 -0.286995 0)
(-0.0432064 -0.300711 0)
(-0.0483096 -0.318276 0)
(-0.0541439 -0.340543 0)
(-0.0605739 -0.367966 0)
(-0.0672514 -0.400244 0)
(-0.0735646 -0.435925 0)
(-0.0786275 -0.472017 0)
(-0.0813395 -0.503747 0)
(-0.0805485 -0.524661 0)
(-0.0753409 -0.527334 0)
(-0.0654317 -0.504925 0)
(-0.0515377 -0.453478 0)
(-0.0354797 -0.374165 0)
(-0.0197927 -0.273901 0)
(-0.00724549 -0.163226 0)
(-0.00105435 -0.0523862 0)
(0.0081358 -0.168753 0)
(0.00532392 -0.179645 0)
(0.00247865 -0.190111 0)
(-0.000388913 -0.200104 0)
(-0.00326889 -0.209583 0)
(-0.00615442 -0.218519 0)
(-0.00904278 -0.226903 0)
(-0.0119385 -0.234761 0)
(-0.0148577 -0.242176 0)
(-0.0178324 -0.249309 0)
(-0.0209163 -0.256432 0)
(-0.0241889 -0.263966 0)
(-0.0277575 -0.272505 0)
(-0.0317515 -0.282835 0)
(-0.0363071 -0.295907 0)
(-0.0415363 -0.31276 0)
(-0.0474806 -0.334354 0)
(-0.0540497 -0.361315 0)
(-0.0609537 -0.393578 0)
(-0.0676447 -0.42996 0)
(-0.0732898 -0.46773 0)
(-0.0768098 -0.502274 0)
(-0.077021 -0.527087 0)
(-0.0729109 -0.534347 0)
(-0.0640391 -0.516411 0)
(-0.0509581 -0.468222 0)
(-0.0353906 -0.389924 0)
(-0.0198893 -0.287942 0)
(-0.00733263 -0.173043 0)
(-0.00107965 -0.0561049 0)
(0.0195938 -0.165828 0)
(0.0165044 -0.17667 0)
(0.0133587 -0.187097 0)
(0.0101676 -0.197062 0)
(0.00694182 -0.206522 0)
(0.00368999 -0.215445 0)
(0.000417753 -0.223817 0)
(-0.00287479 -0.231656 0)
(-0.00619699 -0.239033 0)
(-0.0095718 -0.24609 0)
(-0.0130413 -0.253077 0)
(-0.0166721 -0.260388 0)
(-0.020558 -0.268591 0)
(-0.024818 -0.278455 0)
(-0.0295841 -0.290935 0)
(-0.0349755 -0.30711 0)
(-0.0410556 -0.328033 0)
(-0.0477736 -0.354485 0)
(-0.0548946 -0.386624 0)
(-0.0619333 -0.42354 0)
(-0.0681136 -0.462777 0)
(-0.0723862 -0.499926 0)
(-0.073547 -0.528484 0)
(-0.0704956 -0.540301 0)
(-0.0626413 -0.526968 0)
(-0.0503677 -0.482311 0)
(-0.0352896 -0.405347 0)
(-0.0199738 -0.301898 0)
(-0.00741148 -0.182901 0)
(-0.00110271 -0.0598704 0)
(0.0310674 -0.162638 0)
(0.027704 -0.173407 0)
(0.0242604 -0.183772 0)
(0.0207475 -0.193685 0)
(0.0171763 -0.203104 0)
(0.0135569 -0.211994 0)
(0.00989737 -0.220338 0)
(0.00620157 -0.228147 0)
(0.00246612 -0.235481 0)
(-0.00132358 -0.242468 0)
(-0.005199 -0.249338 0)
(-0.00921415 -0.256456 0)
(-0.0134493 -0.264368 0)
(-0.0180114 -0.273818 0)
(-0.0230256 -0.285759 0)
(-0.0286139 -0.301296 0)
(-0.0348569 -0.32156 0)
(-0.0417374 -0.347472 0)
(-0.0490712 -0.379399 0)
(-0.0564347 -0.416699 0)
(-0.063111 -0.457208 0)
(-0.0680878 -0.496753 0)
(-0.0701511 -0.528897 0)
(-0.0681229 -0.545224 0)
(-0.0612672 -0.536612 0)
(-0.049794 -0.495748 0)
(-0.0351995 -0.420435 0)
(-0.0200601 -0.315771 0)
(-0.0074871 -0.192799 0)
(-0.00112415 -0.0636797 0)
(0.0425376 -0.159189 0)
(0.0389033 -0.16986 0)
(0.0351643 -0.180138 0)
(0.0313312 -0.189976 0)
(0.0274152 -0.19933 0)
(0.0234274 -0.208165 0)
(0.019378 -0.216461 0)
(0.0152741 -0.224226 0)
(0.0111177 -0.23151 0)
(0.00690132 -0.238428 0)
(0.00260338 -0.245192 0)
(-0.00181789 -0.252144 0)
(-0.00642937 -0.259802 0)
(-0.0113252 -0.268888 0)
(-0.0166215 -0.280342 0)
(-0.0224395 -0.295287 0)
(-0.028872 -0.314914 0)
(-0.0359307 -0.340269 0)
(-0.0434777 -0.371912 0)
(-0.0511489 -0.409464 0)
(-0.0582885 -0.451062 0)
(-0.0639274 -0.492802 0)
(-0.0668515 -0.528365 0)
(-0.0658151 -0.549144 0)
(-0.0599416 -0.545353 0)
(-0.0492625 -0.508541 0)
(-0.0351426 -0.435199 0)
(-0.0201629 -0.329573 0)
(-0.00756506 -0.202744 0)
(-0.00114473 -0.0675322 0)
(0.0539862 -0.155482 0)
(0.0500838 -0.166031 0)
(0.0460515 -0.176197 0)
(0.0418995 -0.185934 0)
(0.0376393 -0.195199 0)
(0.0332827 -0.203956 0)
(0.0288416 -0.212184 0)
(0.0243261 -0.219888 0)
(0.0197427 -0.22711 0)
(0.0150906 -0.233957 0)
(0.0103571 -0.240623 0)
(0.00551204 -0.24743 0)
(0.000501576 -0.254868 0)
(-0.00475501 -0.263634 0)
(-0.0103634 -0.274653 0)
(-0.016441 -0.289054 0)
(-0.0230886 -0.308074 0)
(-0.0303421 -0.332866 0)
(-0.0381055 -0.364169 0)
(-0.0460719 -0.401858 0)
(-0.0536475 -0.444374 0)
(-0.0599122 -0.488111 0)
(-0.0636604 -0.526925 0)
(-0.0635888 -0.552085 0)
(-0.058685 -0.553204 0)
(-0.0487959 -0.520696 0)
(-0.0351404 -0.449653 0)
(-0.0202973 -0.343321 0)
(-0.00765144 -0.212746 0)
(-0.00116534 -0.0714305 0)
(0.0653959 -0.15152 0)
(0.0612276 -0.161922 0)
(0.0569036 -0.171951 0)
(0.0524338 -0.181561 0)
(0.0478298 -0.190711 0)
(0.0431042 -0.199366 0)
(0.0382701 -0.207504 0)
(0.0333405 -0.215128 0)
(0.0283258 -0.222276 0)
(0.0232312 -0.229045 0)
(0.0180523 -0.235617 0)
(0.0127695 -0.242294 0)
(0.00734177 -0.249542 0)
(0.00170188 -0.25803 0)
(-0.00424414 -0.268664 0)
(-0.0106078 -0.282569 0)
(-0.0174942 -0.301019 0)
(-0.0249588 -0.325253 0)
(-0.0329436 -0.356173 0)
(-0.0411959 -0.393896 0)
(-0.0491849 -0.437172 0)
(-0.0560437 -0.482716 0)
(-0.0605842 -0.524606 0)
(-0.0614551 -0.554064 0)
(-0.0575129 -0.560172 0)
(-0.0484136 -0.532219 0)
(-0.0352135 -0.463811 0)
(-0.0204787 -0.357043 0)
(-0.00775278 -0.222828 0)
(-0.001187 -0.0753804 0)
(0.0767494 -0.147307 0)
(0.0723168 -0.157536 0)
(0.0677022 -0.167401 0)
(0.0629154 -0.176858 0)
(0.057968 -0.185867 0)
(0.0528731 -0.194395 0)
(0.0476455 -0.20242 0)
(0.0423001 -0.209944 0)
(0.0368513 -0.217002 0)
(0.0313096 -0.223686 0)
(0.0256782 -0.230165 0)
(0.0199475 -0.236724 0)
(0.0140884 -0.243806 0)
(0.00804716 -0.252055 0)
(0.00174225 -0.262351 0)
(-0.00492999 -0.275811 0)
(-0.0120761 -0.293729 0)
(-0.0197672 -0.317418 0)
(-0.0279789 -0.347925 0)
(-0.0365102 -0.385595 0)
(-0.0448932 -0.429483 0)
(-0.0523184 -0.476645 0)
(-0.0576238 -0.521434 0)
(-0.0594193 -0.555095 0)
(-0.0564357 -0.566258 0)
(-0.0481316 -0.543113 0)
(-0.035381 -0.477694 0)
(-0.0207227 -0.370771 0)
(-0.00787609 -0.233017 0)
(-0.00121088 -0.0793911 0)
(0.0880292 -0.142842 0)
(0.0833331 -0.152872 0)
(0.0784287 -0.162547 0)
(0.0733253 -0.171825 0)
(0.0680347 -0.180667 0)
(0.0625707 -0.189042 0)
(0.0569492 -0.19693 0)
(0.0511876 -0.204334 0)
(0.0453034 -0.211287 0)
(0.0393121 -0.217875 0)
(0.033224 -0.224259 0)
(0.0270385 -0.230709 0)
(0.0207382 -0.237647 0)
(0.0142821 -0.245691 0)
(0.00760158 -0.255694 0)
(0.000602311 -0.268758 0)
(-0.00682113 -0.286188 0)
(-0.0147522 -0.309352 0)
(-0.0231961 -0.339425 0)
(-0.0320007 -0.376964 0)
(-0.0407606 -0.421326 0)
(-0.0487279 -0.469925 0)
(-0.0547742 -0.51743 0)
(-0.0574808 -0.555189 0)
(-0.0554586 -0.571461 0)
(-0.0479619 -0.553375 0)
(-0.03566 -0.491317 0)
(-0.0210453 -0.384543 0)
(-0.00802886 -0.243349 0)
(-0.00123825 -0.0834757 0)
(0.0836436 -0.166462 0)
(0.0780102 -0.175111 0)
(0.0721776 -0.183308 0)
(0.0661629 -0.191036 0)
(0.0599855 -0.198298 0)
(0.0536662 -0.205128 0)
(0.0472251 -0.211609 0)
(0.0406787 -0.217895 0)
(0.0340351 -0.224243 0)
(0.0272877 -0.231056 0)
(0.020408 -0.238925 0)
(0.0133399 -0.248678 0)
(0.00599954 -0.261395 0)
(-0.00171524 -0.278381 0)
(-0.0098971 -0.301046 0)
(-0.0185776 -0.330673 0)
(-0.0276502 -0.368015 0)
(-0.0367716 -0.412723 0)
(-0.0452588 -0.462577 0)
(-0.0520249 -0.51261 0)
(-0.0556332 -0.554348 0)
(-0.0545809 -0.57577 0)
(-0.0479119 -0.562997 0)
(-0.0360658 -0.504696 0)
(-0.0214621 -0.398401 0)
(-0.00821905 -0.253867 0)
(-0.00127056 -0.0876512 0)
(0.0938493 -0.160769 0)
(0.0878739 -0.169199 0)
(0.0816738 -0.177193 0)
(0.0752674 -0.184738 0)
(0.0686763 -0.191837 0)
(0.061924 -0.198527 0)
(0.0550351 -0.204889 0)
(0.048032 -0.211072 0)
(0.0409306 -0.217323 0)
(0.0337344 -0.224026 0)
(0.0264268 -0.231749 0)
(0.0189642 -0.241292 0)
(0.0112733 -0.253709 0)
(0.00325709 -0.270296 0)
(-0.0051835 -0.292493 0)
(-0.0141032 -0.32167 0)
(-0.0234381 -0.358758 0)
(-0.0329062 -0.403689 0)
(-0.0418925 -0.454623 0)
(-0.0493597 -0.50699 0)
(-0.0538635 -0.552571 0)
(-0.0537956 -0.579169 0)
(-0.0479839 -0.571962 0)
(-0.0366107 -0.517838 0)
(-0.0219888 -0.412391 0)
(-0.00845516 -0.264622 0)
(-0.00130942 -0.0919391 0)
(0.10392 -0.154748 0)
(0.097604 -0.162933 0)
(0.0910386 -0.1707 0)
(0.0842436 -0.178038 0)
(0.0772425 -0.184955 0)
(0.0700617 -0.191488 0)
(0.0627298 -0.197719 0)
(0.0552747 -0.203794 0)
(0.0477196 -0.20995 0)
(0.0400772 -0.216557 0)
(0.0323422 -0.224161 0)
(0.024483 -0.23353 0)
(0.0164371 -0.245693 0)
(0.00811357 -0.261928 0)
(-0.00059038 -0.28369 0)
(-0.00974947 -0.312417 0)
(-0.0193403 -0.349202 0)
(-0.0291404 -0.394243 0)
(-0.0386056 -0.44608 0)
(-0.0467562 -0.500579 0)
(-0.0521522 -0.549853 0)
(-0.0530892 -0.581632 0)
(-0.0481745 -0.580241 0)
(-0.0373038 -0.530745 0)
(-0.0226407 -0.426558 0)
(-0.00874627 -0.275673 0)
(-0.00135661 -0.0963654 0)
(0.113831 -0.1484 0)
(0.107178 -0.156316 0)
(0.100251 -0.163832 0)
(0.093072 -0.170941 0)
(0.085667 -0.177656 0)
(0.0780649 -0.184016 0)
(0.0702979 -0.190105 0)
(0.0623992 -0.196065 0)
(0.0543986 -0.20213 0)
(0.0463174 -0.208653 0)
(0.0381604 -0.216161 0)
(0.0299077 -0.225393 0)
(0.0215075 -0.237345 0)
(0.0128754 -0.253273 0)
(0.00390707 -0.274633 0)
(-0.00548948 -0.30292 0)
(-0.0153281 -0.339358 0)
(-0.0254449 -0.384402 0)
(-0.0353689 -0.436967 0)
(-0.044186 -0.493388 0)
(-0.0504729 -0.546183 0)
(-0.0524405 -0.583128 0)
(-0.0484732 -0.587795 0)
(-0.0381497 -0.543408 0)
(-0.0234323 -0.440949 0)
(-0.00910211 -0.287086 0)
(-0.0014141 -0.100961 0)
(0.123557 -0.141728 0)
(0.11657 -0.149351 0)
(0.109288 -0.156594 0)
(0.101733 -0.163454 0)
(0.0939335 -0.169948 0)
(0.0859205 -0.17612 0)
(0.0777304 -0.182056 0)
(0.0694007 -0.187898 0)
(0.0609675 -0.193873 0)
(0.0524596 -0.200324 0)
(0.0438914 -0.207757 0)
(0.0352537 -0.216883 0)
(0.0265049 -0.228667 0)
(0.017568 -0.244332 0)
(0.00833782 -0.265327 0)
(-0.00129144 -0.293182 0)
(-0.0113679 -0.329239 0)
(-0.0217852 -0.374183 0)
(-0.0321473 -0.427303 0)
(-0.0416136 -0.485425 0)
(-0.0487912 -0.541548 0)
(-0.05182 -0.583615 0)
(-0.0488623 -0.594572 0)
(-0.0391483 -0.555803 0)
(-0.0243772 -0.455603 0)
(-0.00953308 -0.298935 0)
(-0.0014841 -0.105762 0)
(0.133069 -0.134737 0)
(0.125757 -0.142045 0)
(0.118128 -0.148994 0)
(0.110209 -0.155586 0)
(0.102027 -0.161843 0)
(0.0936182 -0.167814 0)
(0.0850211 -0.173587 0)
(0.076278 -0.179306 0)
(0.0674301 -0.185193 0)
(0.0585133 -0.191583 0)
(0.0495505 -0.19896 0)
(0.0405418 -0.208012 0)
(0.0314557 -0.219665 0)
(0.0222224 -0.235111 0)
(0.0127372 -0.255777 0)
(0.00288283 -0.283214 0)
(-0.00742014 -0.318858 0)
(-0.0181206 -0.363605 0)
(-0.0288992 -0.417106 0)
(-0.0389964 -0.476697 0)
(-0.0470648 -0.535929 0)
(-0.0511894 -0.583043 0)
(-0.0493147 -0.600503 0)
(-0.0402928 -0.56789 0)
(-0.0254873 -0.470554 0)
(-0.0100504 -0.311298 0)
(-0.00156905 -0.11081 0)
(0.142339 -0.127436 0)
(0.134712 -0.134409 0)
(0.126751 -0.141045 0)
(0.118481 -0.147353 0)
(0.109936 -0.153358 0)
(0.101151 -0.159116 0)
(0.0921685 -0.164719 0)
(0.0830351 -0.170311 0)
(0.0737965 -0.176113 0)
(0.0644947 -0.18245 0)
(0.0551596 -0.189791 0)
(0.0458002 -0.198794 0)
(0.0363937 -0.210353 0)
(0.0268772 -0.225619 0)
(0.017148 -0.245991 0)
(0.00707884 -0.273025 0)
(-0.00343755 -0.30823 0)
(-0.0144028 -0.352687 0)
(-0.025575 -0.406397 0)
(-0.0362836 -0.467215 0)
(-0.0452421 -0.52931 0)
(-0.0505002 -0.581354 0)
(-0.0497937 -0.605504 0)
(-0.041569 -0.579607 0)
(-0.0267721 -0.485827 0)
(-0.0106662 -0.324261 0)
(-0.00167168 -0.116154 0)
(0.151336 -0.119836 0)
(0.143411 -0.126456 0)
(0.135135 -0.132763 0)
(0.126537 -0.138772 0)
(0.117651 -0.144514 0)
(0.108516 -0.150049 0)
(0.0991771 -0.155475 0)
(0.0896833 -0.160938 0)
(0.0800849 -0.166658 0)
(0.0704285 -0.172951 0)
(0.0607504 -0.180272 0)
(0.0510667 -0.189252 0)
(0.0413624 -0.200748 0)
(0.0315813 -0.21587 0)
(0.0216228 -0.235982 0)
(0.0113519 -0.262628 0)
(0.000636624 -0.297371 0)
(-0.0105741 -0.341452 0)
(-0.0221164 -0.395196 0)
(-0.0334152 -0.456987 0)
(-0.0432615 -0.52167 0)
(-0.049693 -0.578484 0)
(-0.0502509 -0.609472 0)
(-0.042953 -0.590869 0)
(-0.028238 -0.501426 0)
(-0.0113935 -0.337914 0)
(-0.00179508 -0.121847 0)
(0.160034 -0.111954 0)
(0.151831 -0.118207 0)
(0.143266 -0.124172 0)
(0.134368 -0.12987 0)
(0.125172 -0.135339 0)
(0.11572 -0.140645 0)
(0.106061 -0.145889 0)
(0.0962439 -0.151223 0)
(0.0863239 -0.156863 0)
(0.0763511 -0.163121 0)
(0.0663663 -0.170435 0)
(0.0563915 -0.179413 0)
(0.0464182 -0.190874 0)
(0.036396 -0.205885 0)
(0.0262267 -0.225765 0)
(0.0157695 -0.25204 0)
(0.00487105 -0.286299 0)
(-0.00656598 -0.32992 0)
(-0.0184542 -0.383527 0)
(-0.0303204 -0.446027 0)
(-0.0410504 -0.512989 0)
(-0.0486958 -0.574362 0)
(-0.0506248 -0.612288 0)
(-0.04441 -0.60156 0)
(-0.0298865 -0.517338 0)
(-0.0122472 -0.352351 0)
(-0.0019429 -0.127952 0)
(0.168407 -0.103816 0)
(0.159957 -0.109688 0)
(0.151135 -0.115301 0)
(0.141972 -0.120679 0)
(0.132506 -0.125869 0)
(0.12278 -0.130941 0)
(0.112844 -0.136003 0)
(0.102751 -0.141207 0)
(0.0925567 -0.146771 0)
(0.0823138 -0.153 0)
(0.0720666 -0.160319 0)
(0.0618411 -0.169311 0)
(0.0516337 -0.180759 0)
(0.0413991 -0.195685 0)
(0.0310413 -0.21536 0)
(0.0204153 -0.241274 0)
(0.00934938 -0.275031 0)
(-0.00229535 -0.318113 0)
(-0.0145059 -0.371413 0)
(-0.026916 -0.434347 0)
(-0.0385232 -0.503249 0)
(-0.0474231 -0.568909 0)
(-0.0508394 -0.613811 0)
(-0.0458922 -0.611533 0)
(-0.0317133 -0.533517 0)
(-0.0132439 -0.367665 0)
(-0.00211962 -0.134538 0)
(0.17644 -0.0954507 0)
(0.167781 -0.100935 0)
(0.158744 -0.106189 0)
(0.149362 -0.111243 0)
(0.139675 -0.11615 0)
(0.129728 -0.120987 0)
(0.11957 -0.125865 0)
(0.109257 -0.130941 0)
(0.098845 -0.136432 0)
(0.0883876 -0.142638 0)
(0.0779306 -0.14997 0)
(0.0675023 -0.158988 0)
(0.0571024 -0.170439 0)
(0.0466891 -0.185299 0)
(0.0361685 -0.204787 0)
(0.0253926 -0.23035 0)
(0.0141747 -0.263585 0)
(0.0023389 -0.306051 0)
(-0.0101727 -0.358878 0)
(-0.0231032 -0.421964 0)
(-0.0355794 -0.492433 0)
(-0.0457732 -0.562044 0)
(-0.0508017 -0.613884 0)
(-0.0473359 -0.620602 0)
(-0.033706 -0.549882 0)
(-0.0144037 -0.383948 0)
(-0.00233123 -0.141684 0)
(0.18413 -0.0869008 0)
(0.175309 -0.0919932 0)
(0.166111 -0.0968851 0)
(0.156568 -0.101614 0)
(0.146721 -0.106239 0)
(0.136616 -0.110841 0)
(0.126304 -0.115537 0)
(0.115838 -0.120488 0)
(0.105275 -0.125908 0)
(0.0946687 -0.132093 0)
(0.0840636 -0.139442 0)
(0.0734885 -0.148491 0)
(0.0629442 -0.159954 0)
(0.052391 -0.174759 0)
(0.0417366 -0.19407 0)
(0.0308307 -0.219284 0)
(0.0194748 -0.251975 0)
(0.00746104 -0.293752 0)
(-0.00533412 -0.345942 0)
(-0.0187644 -0.408892 0)
(-0.0321005 -0.480522 0)
(-0.0436268 -0.553681 0)
(-0.0503996 -0.612327 0)
(-0.0486594 -0.62854 0)
(-0.0358421 -0.566303 0)
(-0.0157514 -0.401282 0)
(-0.00258648 -0.149482 0)
(0.191493 -0.0782183 0)
(0.182573 -0.0829188 0)
(0.173279 -0.087451 0)
(0.163645 -0.0918579 0)
(0.153712 -0.0962032 0)
(0.143527 -0.100575 0)
(0.133139 -0.105093 0)
(0.1226 -0.10992 0)
(0.111966 -0.115271 0)
(0.101286 -0.121435 0)
(0.090604 -0.128799 0)
(0.0799462 -0.137878 0)
(0.0693125 -0.149351 0)
(0.0586634 -0.1641 0)
(0.047907 -0.183234 0)
(0.0368914 -0.208092 0)
(0.0254089 -0.240213 0)
(0.0132252 -0.281229 0)
(0.000157119 -0.332623 0)
(-0.0137572 -0.395144 0)
(-0.027946 -0.467503 0)
(-0.0408426 -0.543731 0)
(-0.0494989 -0.608942 0)
(-0.0497593 -0.635073 0)
(-0.0380861 -0.58259 0)
(-0.0173194 -0.419737 0)
(-0.0028989 -0.158043 0)
(0.198578 -0.0694687 0)
(0.189635 -0.0737828 0)
(0.180326 -0.0779616 0)
(0.170686 -0.0820535 0)
(0.160757 -0.0861267 0)
(0.150582 -0.0902738 0)
(0.140211 -0.0946181 0)
(0.129692 -0.0993227 0)
(0.119077 -0.104603 0)
(0.108411 -0.110741 0)
(0.0977327 -0.118112 0)
(0.0870646 -0.12721 0)
(0.0764033 -0.138682 0)
(0.0657071 -0.153363 0)
(0.0548832 -0.172306 0)
(0.0437781 -0.19679 0)
(0.032177 -0.228307 0)
(0.0198241 -0.268488 0)
(0.00648428 -0.318929 0)
(-0.00790777 -0.38073 0)
(-0.0229474 -0.453358 0)
(-0.0372533 -0.5321 0)
(-0.0479385 -0.60351 0)
(-0.050506 -0.639874 0)
(-0.0403851 -0.598482 0)
(-0.0191492 -0.439353 0)
(-0.00329013 -0.167499 0)
(0.205482 -0.060733 0)
(0.196607 -0.0646713 0)
(0.187381 -0.068508 0)
(0.177837 -0.0722957 0)
(0.168015 -0.0761067 0)
(0.157958 -0.0800369 0)
(0.14771 -0.0842116 0)
(0.137317 -0.0887947 0)
(0.126823 -0.0939987 0)
(0.116269 -0.100101 0)
(0.105685 -0.107463 0)
(0.0950869 -0.116559 0)
(0.0844663 -0.128005 0)
(0.0737767 -0.142591 0)
(0.0629223 -0.161314 0)
(0.051747 -0.185391 0)
(0.0400304 -0.216257 0)
(0.0275 -0.255524 0)
(0.0138776 -0.304859 0)
(-0.00100023 -0.365649 0)
(-0.0169008 -0.438063 0)
(-0.032659 -0.518693 0)
(-0.0455247 -0.595793 0)
(-0.0507374 -0.642561 0)
(-0.0426631 -0.613626 0)
(-0.0212936 -0.460128 0)
(-0.00379447 -0.178021 0)
(0.21237 -0.0521093 0)
(0.203674 -0.0556875 0)
(0.194644 -0.0591976 0)
(0.185313 -0.0626955 0)
(0.175719 -0.0662563 0)
(0.165901 -0.0699779 0)
(0.155897 -0.0739868 0)
(0.145748 -0.0784458 0)
(0.13549 -0.0835647 0)
(0.125154 -0.0896136 0)
(0.114764 -0.0969423 0)
(0.104325 -0.106004 0)
(0.0938191 -0.117384 0)
(0.083194 -0.131831 0)
(0.0723481 -0.150286 0)
(0.0611211 -0.173904 0)
(0.0492871 -0.204058 0)
(0.0365601 -0.24232 0)
(0.0226271 -0.290393 0)
(0.00723664 -0.349884 0)
(-0.00955477 -0.421583 0)
(-0.0268193 -0.503403 0)
(-0.0420221 -0.585528 0)
(-0.0502491 -0.642684 0)
(-0.0448119 -0.627559 0)
(-0.0238136 -0.481991 0)
(-0.00446488 -0.189826 0)
(0.219506 -0.0437145 0)
(0.211117 -0.0469528 0)
(0.202417 -0.0501553 0)
(0.193433 -0.0533799 0)
(0.184202 -0.0567035 0)
(0.174757 -0.0602245 0)
(0.16513 -0.0640691 0)
(0.155354 -0.068398 0)
(0.145454 -0.0734165 0)
(0.135454 -0.079387 0)
(0.125363 -0.0866465 0)
(0.115177 -0.0956281 0)
(0.104866 -0.106887 0)
(0.0943662 -0.121132 0)
(0.083569 -0.139251 0)
(0.072307 -0.162335 0)
(0.0603472 -0.191692 0)
(0.0473922 -0.228844 0)
(0.0331014 -0.275494 0)
(0.0171504 -0.3334 0)
(-0.000592872 -0.403878 0)
(-0.0194377 -0.486106 0)
(-0.037141 -0.57242 0)
(-0.0487837 -0.639721 0)
(-0.0466791 -0.639684 0)
(-0.0267709 -0.504763 0)
(-0.00537931 -0.2032 0)
(0.227297 -0.0356841 0)
(0.219361 -0.038606 0)
(0.211136 -0.041522 0)
(0.202649 -0.0444909 0)
(0.193928 -0.0475897 0)
(0.185 -0.0509162 0)
(0.175892 -0.0545944 0)
(0.166624 -0.0587817 0)
(0.157214 -0.0636775 0)
(0.14767 -0.0695354 0)
(0.137989 -0.0766788 0)
(0.128153 -0.0855205 0)
(0.118118 -0.0965874 0)
(0.107808 -0.110547 0)
(0.0970995 -0.128236 0)
(0.0858163 -0.150685 0)
(0.0737156 -0.179136 0)
(0.0604878 -0.215047 0)
(0.0457693 -0.260097 0)
(0.029173 -0.316137 0)
(0.0103984 -0.384892 0)
(-0.0101238 -0.466639 0)
(-0.0305252 -0.556146 0)
(-0.0460169 -0.633074 0)
(-0.0480492 -0.649252 0)
(-0.0302068 -0.528117 0)
(-0.00664494 -0.218504 0)
(0.236343 -0.0281705 0)
(0.229019 -0.030801 0)
(0.221429 -0.0334517 0)
(0.213594 -0.0361812 0)
(0.205536 -0.0390652 0)
(0.197276 -0.0421993 0)
(0.18883 -0.0457041 0)
(0.18021 -0.0497318 0)
(0.171418 -0.0544746 0)
(0.162451 -0.0601759 0)
(0.153292 -0.0671443 0)
(0.143903 -0.0757719 0)
(0.134226 -0.0865563 0)
(0.124166 -0.100126 0)
(0.113586 -0.117268 0)
(0.102292 -0.138951 0)
(0.0900271 -0.16635 0)
(0.0764659 -0.200858 0)
(0.061217 -0.244107 0)
(0.0438434 -0.297982 0)
(0.0239663 -0.364504 0)
(0.00162638 -0.444918 0)
(-0.0217355 -0.53638 0)
(-0.04153 -0.622063 0)
(-0.0486116 -0.65533 0)
(-0.0341049 -0.551512 0)
(-0.0083954 -0.236185 0)
(0.247513 -0.0213377 0)
(0.240964 -0.0237002 0)
(0.234169 -0.0261045 0)
(0.227142 -0.0286075 0)
(0.219899 -0.0312822 0)
(0.212452 -0.0342206 0)
(0.204807 -0.0375384 0)
(0.196964 -0.041381 0)
(0.188915 -0.0459319 0)
(0.180639 -0.0514224 0)
(0.172103 -0.0581449 0)
(0.163253 -0.0664695 0)
(0.154009 -0.076864 0)
(0.144257 -0.0899177 0)
(0.133837 -0.106367 0)
(0.122537 -0.127121 0)
(0.110078 -0.153286 0)
(0.0961101 -0.186186 0)
(0.0802159 -0.227391 0)
(0.0619167 -0.278768 0)
(0.0407323 -0.342511 0)
(0.0164041 -0.420727 0)
(-0.0101337 -0.512733 0)
(-0.0347562 -0.605921 0)
(-0.0479189 -0.656783 0)
(-0.0383345 -0.574125 0)
(-0.0107725 -0.25676 0)
(0.262021 -0.0153503 0)
(0.256403 -0.0174642 0)
(0.250552 -0.0196359 0)
(0.244475 -0.0219193 0)
(0.238182 -0.0243838 0)
(0.231676 -0.0271163 0)
(0.224952 -0.0302259 0)
(0.218 -0.03385 0)
(0.210796 -0.0381611 0)
(0.203308 -0.0433768 0)
(0.195482 -0.0497713 0)
(0.187245 -0.0576908 0)
(0.178496 -0.0675716 0)
(0.169096 -0.0799622 0)
(0.158862 -0.0955476 0)
(0.147551 -0.115176 0)
(0.134855 -0.139883 0)
(0.120395 -0.170922 0)
(0.103716 -0.209792 0)
(0.0842916 -0.258313 0)
(0.0615549 -0.318757 0)
(0.0350364 -0.393819 0)
(0.00504752 -0.484852 0)
(-0.0249714 -0.583808 0)
(-0.0453367 -0.652249 0)
(-0.0425743 -0.594759 0)
(-0.0138781 -0.280764 0)
(0.281521 -0.0103573 0)
(0.276959 -0.012235 0)
(0.27217 -0.0141803 0)
(0.267153 -0.0162436 0)
(0.261911 -0.018489 0)
(0.256439 -0.0209974 0)
(0.250723 -0.0238699 0)
(0.244739 -0.0272339 0)
(0.238453 -0.0312494 0)
(0.231815 -0.0361178 0)
(0.224756 -0.0420927 0)
(0.217181 -0.0494936 0)
(0.208965 -0.0587227 0)
(0.199943 -0.0702848 0)
(0.1899 -0.0848112 0)
(0.178561 -0.103085 0)
(0.165579 -0.12607 0)
(0.15053 -0.15494 0)
(0.132911 -0.19112 0)
(0.112139 -0.236363 0)
(0.0875681 -0.292931 0)
(0.05854 -0.363871 0)
(0.0248169 -0.452298 0)
(-0.0111569 -0.554818 0)
(-0.0399524 -0.640091 0)
(-0.0462199 -0.611719 0)
(-0.0176851 -0.30859 0)
(0.308179 -0.00646851 0)
(0.304744 -0.00811325 0)
(0.301078 -0.00982958 0)
(0.297174 -0.0116632 0)
(0.293029 -0.0136724 0)
(0.288629 -0.0159307 0)
(0.283951 -0.0185299 0)
(0.278961 -0.0215856 0)
(0.273614 -0.0252433 0)
(0.267843 -0.0296856 0)
(0.261563 -0.0351427 0)
(0.254657 -0.0419039 0)
(0.246977 -0.0503333 0)
(0.238327 -0.060888 0)
(0.22846 -0.0741405 0)
(0.217057 -0.0908036 0)
(0.203727 -0.111761 0)
(0.187989 -0.138103 0)
(0.169273 -0.171169 0)
(0.146922 -0.212635 0)
(0.120198 -0.264705 0)
(0.0882879 -0.330561 0)
(0.050517 -0.414609 0)
(0.00803479 -0.518085 0)
(-0.0304301 -0.618368 0)
(-0.0482804 -0.622656 0)
(-0.0219078 -0.340234 0)
(0.344696 -0.00372394 0)
(0.342372 -0.00512977 0)
(0.339807 -0.0066058 0)
(0.336988 -0.00819238 0)
(0.333904 -0.00994125 0)
(0.330535 -0.0119172 0)
(0.326851 -0.0142016 0)
(0.322811 -0.0168967 0)
(0.318354 -0.020131 0)
(0.313402 -0.024066 0)
(0.307854 -0.0289048 0)
(0.301572 -0.0349027 0)
(0.294384 -0.042381 0)
(0.286064 -0.0517431 0)
(0.276326 -0.0634957 0)
(0.264809 -0.078273 0)
(0.251065 -0.0968691 0)
(0.234544 -0.120275 0)
(0.214597 -0.149738 0)
(0.19046 -0.18684 0)
(0.161291 -0.233704 0)
(0.126122 -0.293479 0)
(0.0838872 -0.371333 0)
(0.0345146 -0.472682 0)
(-0.0147245 -0.584963 0)
(-0.047253 -0.624573 0)
(-0.0258345 -0.37514 0)
(0.394214 -0.00206166 0)
(0.392874 -0.00321566 0)
(0.391277 -0.00443417 0)
(0.389407 -0.00575155 0)
(0.387248 -0.00721206 0)
(0.384775 -0.0088711 0)
(0.381951 -0.0107981 0)
(0.378726 -0.0130804 0)
(0.375031 -0.0158274 0)
(0.370777 -0.0191767 0)
(0.365846 -0.0233012 0)
(0.360084 -0.0284177 0)
(0.353293 -0.0347992 0)
(0.345221 -0.0427886 0)
(0.335544 -0.0528182 0)
(0.323854 -0.0654317 0)
(0.309645 -0.0813191 0)
(0.292286 -0.101355 0)
(0.271034 -0.126668 0)
(0.244989 -0.158732 0)
(0.213174 -0.199578 0)
(0.174417 -0.252241 0)
(0.127373 -0.322137 0)
(0.070956 -0.417809 0)
(0.0100774 -0.537957 0)
(-0.0409075 -0.614057 0)
(-0.028085 -0.412304 0)
(0.460019 -0.00129139 0)
(0.459406 -0.00217926 0)
(0.458524 -0.00312278 0)
(0.457354 -0.00414978 0)
(0.455878 -0.00529627 0)
(0.454065 -0.00660736 0)
(0.451874 -0.00813951 0)
(0.449248 -0.00996343 0)
(0.446112 -0.0121679 0)
(0.442365 -0.0148639 0)
(0.437878 -0.018191 0)
(0.432482 -0.0223236 0)
(0.42596 -0.0274814 0)
(0.418033 -0.0339396 0)
(0.40835 -0.0420467 0)
(0.396455 -0.0522423 0)
(0.381791 -0.0650933 0)
(0.36364 -0.0813275 0)
(0.341158 -0.101924 0)
(0.313274 -0.128198 0)
(0.278845 -0.162073 0)
(0.236403 -0.206441 0)
(0.18447 -0.266609 0)
(0.120956 -0.352823 0)
(0.0481428 -0.475371 0)
(-0.0258097 -0.587427 0)
(-0.0260569 -0.449481 0)
(0.544952 -0.0010887 0)
(0.5447 -0.00170345 0)
(0.544182 -0.00236291 0)
(0.543377 -0.00308782 0)
(0.542263 -0.00390529 0)
(0.540807 -0.00484937 0)
(0.538964 -0.00596258 0)
(0.536673 -0.00729793 0)
(0.533852 -0.00892186 0)
(0.530395 -0.0109171 0)
(0.526164 -0.0133875 0)
(0.520979 -0.016462 0)
(0.514613 -0.0203032 0)
(0.506769 -0.025113 0)
(0.497078 -0.0311491 0)
(0.485052 -0.0387338 0)
(0.470101 -0.0482919 0)
(0.451429 -0.0603696 0)
(0.428119 -0.0757421 0)
(0.398887 -0.0954777 0)
(0.362418 -0.121293 0)
(0.316731 -0.15586 0)
(0.260274 -0.204283 0)
(0.189809 -0.277084 0)
(0.10536 -0.394648 0)
(0.0038149 -0.53865 0)
(-0.0139562 -0.478737 0)
(0.650556 -0.00103658 0)
(0.650279 -0.00139057 0)
(0.649764 -0.00177655 0)
(0.648989 -0.00220807 0)
(0.647928 -0.00270297 0)
(0.646548 -0.00328373 0)
(0.644802 -0.00397836 0)
(0.642626 -0.00482159 0)
(0.639938 -0.00585677 0)
(0.636626 -0.00713754 0)
(0.632554 -0.00873114 0)
(0.627538 -0.0107202 0)
(0.621352 -0.013209 0)
(0.613695 -0.0163249 0)
(0.604208 -0.0202325 0)
(0.592391 -0.0251316 0)
(0.577678 -0.031296 0)
(0.559224 -0.0390641 0)
(0.536139 -0.048959 0)
(0.506923 -0.0616836 0)
(0.470213 -0.0785499 0)
(0.423188 -0.101647 0)
(0.36416 -0.135651 0)
(0.287515 -0.189975 0)
(0.192334 -0.291378 0)
(0.0602822 -0.453284 0)
(0.0211726 -0.477591 0)