/*--------------------------------*- C++ -*----------------------------------*\
  =========                 |
  \\      /  F ield         | OpenFOAM: The Open Source CFD Toolbox
   \\    /   O peration     | Website:  https://openfoam.org
    \\  /    A nd           | Version:  9
     \\/     M anipulation  |
\*---------------------------------------------------------------------------*/
FoamFile
{
    format      ascii;
    class       surfaceScalarField;
    location    "3.25";
    object      phi;
}
// * * * * * * * * * * * * * * * * * * * * * * * * * * * * * * * * * * * * * //

dimensions      [0 3 -1 0 0 0 0];

internalField   nonuniform List<scalar> 
2420
(
-3.6945e-08
6.4909e-09
-4.39534e-08
7.00836e-09
-5.1469e-08
7.51559e-09
-5.94722e-08
8.00325e-09
-6.79334e-08
8.46113e-09
-7.68117e-08
8.87831e-09
-8.6055e-08
9.24336e-09
-9.55995e-08
9.54447e-09
-1.05369e-07
9.76974e-09
-1.15277e-07
9.90741e-09
-1.25223e-07
9.94615e-09
-1.35098e-07
9.87538e-09
-1.44784e-07
9.68553e-09
-1.54152e-07
9.36839e-09
-1.6307e-07
8.9174e-09
-1.71397e-07
8.32791e-09
-1.78995e-07
7.59752e-09
-1.85721e-07
6.72625e-09
-1.91438e-07
5.71686e-09
-1.96013e-07
4.57524e-09
-1.99324e-07
3.31101e-09
-2.01261e-07
1.93688e-09
-2.01732e-07
4.70986e-10
-2.00638e-07
-1.0943e-09
-1.9794e-07
-2.69771e-09
-1.93602e-07
-4.33796e-09
-1.87618e-07
-5.98374e-09
-1.80013e-07
-7.60582e-09
-1.70839e-07
-9.17352e-09
-1.60184e-07
-1.06552e-08
-1.48165e-07
-1.20191e-08
-1.3493e-07
-1.32344e-08
-1.42721e-08
-1.37646e-07
2.61583e-08
-1.58611e-07
2.79735e-08
-1.80807e-07
2.97115e-08
-2.0414e-07
3.13361e-08
-2.28488e-07
3.28088e-08
-2.53699e-07
3.409e-08
-2.79595e-07
3.51391e-08
-3.05966e-07
3.59158e-08
-3.32578e-07
3.63809e-08
-3.59168e-07
3.64976e-08
-3.85453e-07
3.62317e-08
-4.11132e-07
3.55536e-08
-4.35885e-07
3.44385e-08
-4.59384e-07
3.28675e-08
-4.81295e-07
3.08285e-08
-5.01284e-07
2.83167e-08
-5.19021e-07
2.53353e-08
-5.34191e-07
2.18959e-08
-5.46493e-07
1.8019e-08
-5.55652e-07
1.37347e-08
-5.61425e-07
9.08345e-09
-5.63603e-07
4.11504e-09
-5.62031e-07
-1.10112e-09
-5.5656e-07
-6.56543e-09
-5.4713e-07
-1.21279e-08
-5.33731e-07
-1.77361e-08
-5.16411e-07
-2.33041e-08
-4.95276e-07
-2.87408e-08
-4.70498e-07
-3.39521e-08
-4.4231e-07
-3.88427e-08
-4.11011e-07
-4.33184e-08
-3.76957e-07
-4.72882e-08
-5.06677e-08
-2.62501e-07
5.90697e-08
-2.97241e-07
6.27135e-08
-3.33653e-07
6.61232e-08
-3.71537e-07
6.92205e-08
-4.10653e-07
7.19244e-08
-4.50716e-07
7.41533e-08
-4.91404e-07
7.58269e-08
-5.32356e-07
7.68678e-08
-5.73179e-07
7.7204e-08
-6.13451e-07
7.67704e-08
-6.52731e-07
7.55109e-08
-6.90557e-07
7.33804e-08
-7.26464e-07
7.03454e-08
-7.59983e-07
6.63861e-08
-7.90652e-07
6.14972e-08
-8.18023e-07
5.5688e-08
-8.41672e-07
4.89839e-08
-8.61201e-07
4.14256e-08
-8.76252e-07
3.307e-08
-8.86507e-07
2.39897e-08
-8.91699e-07
1.42755e-08
-8.91636e-07
4.05128e-09
-8.86105e-07
-6.63198e-09
-8.75064e-07
-1.7606e-08
-8.58475e-07
-2.87174e-08
-8.36385e-07
-3.98255e-08
-8.08917e-07
-5.07729e-08
-7.76263e-07
-6.13946e-08
-7.38693e-07
-7.15222e-08
-6.96549e-07
-8.09863e-08
-6.50247e-07
-8.96209e-08
-6.00268e-07
-9.72668e-08
-1.03776e-07
-4.08566e-07
1.05046e-07
-4.5664e-07
1.10788e-07
-5.06538e-07
1.16021e-07
-5.57933e-07
1.20616e-07
-6.10448e-07
1.24439e-07
-6.63657e-07
1.27362e-07
-7.17094e-07
1.29264e-07
-7.70256e-07
1.3003e-07
-8.22612e-07
1.2956e-07
-8.73613e-07
1.27772e-07
-9.22699e-07
1.24596e-07
-9.69306e-07
1.19988e-07
-1.01288e-06
1.1392e-07
-1.05288e-06
1.0639e-07
-1.0888e-06
9.74171e-08
-1.12016e-06
8.70431e-08
-1.14651e-06
7.53326e-08
-1.16746e-06
6.23722e-08
-1.18266e-06
4.82701e-08
-1.19182e-06
3.3154e-08
-1.19471e-06
1.71657e-08
-1.19122e-06
5.63489e-10
-1.18114e-06
-1.67154e-08
-1.16451e-06
-3.42358e-08
-1.14136e-06
-5.1871e-08
-1.11178e-06
-6.9396e-08
-1.07598e-06
-8.65789e-08
-1.03419e-06
-1.03181e-07
-9.86752e-07
-1.18962e-07
-9.34058e-07
-1.3368e-07
-8.76582e-07
-1.47098e-07
-8.14859e-07
-1.58989e-07
-1.69143e-07
-5.72449e-07
1.63583e-07
-6.33083e-07
1.71422e-07
-6.95408e-07
1.78346e-07
-7.58959e-07
1.84166e-07
-8.23221e-07
1.88701e-07
-8.87637e-07
1.91779e-07
-9.51616e-07
1.93243e-07
-1.01454e-06
1.92957e-07
-1.07579e-06
1.90809e-07
-1.13473e-06
1.86712e-07
-1.19074e-06
1.80607e-07
-1.24322e-06
1.72467e-07
-1.2916e-06
1.62293e-07
-1.33532e-06
1.50117e-07
-1.37391e-06
1.36001e-07
-1.4069e-06
1.20034e-07
-1.4339e-06
1.02332e-07
-1.45456e-06
8.30375e-08
-1.46861e-06
6.23153e-08
-1.47581e-06
4.03532e-08
-1.47601e-06
1.73642e-08
-1.46903e-06
-6.41153e-09
-1.45494e-06
-3.08061e-08
-1.43369e-06
-5.54813e-08
-1.40538e-06
-8.01825e-08
-1.37015e-06
-1.04627e-07
-1.32821e-06
-1.28519e-07
-1.27984e-06
-1.51556e-07
-1.22537e-06
-1.73429e-07
-1.16522e-06
-1.93832e-07
-1.09986e-06
-2.12462e-07
-1.02982e-06
-2.29027e-07
-2.43254e-07
-7.50345e-07
2.33832e-07
-8.22428e-07
2.43506e-07
-8.95805e-07
2.51723e-07
-9.69883e-07
2.58244e-07
-1.04403e-06
2.62848e-07
-1.11758e-06
2.65333e-07
-1.18987e-06
2.65529e-07
-1.26021e-06
2.63296e-07
-1.32793e-06
2.5853e-07
-1.39238e-06
2.51165e-07
-1.45295e-06
2.41172e-07
-1.50904e-06
2.28562e-07
-1.56013e-06
2.13381e-07
-1.60572e-06
1.95712e-07
-1.64539e-06
1.75668e-07
-1.67875e-06
1.53393e-07
-1.70548e-06
1.29058e-07
-1.7253e-06
1.02861e-07
-1.738e-06
7.50195e-08
-1.74343e-06
4.57757e-08
-1.74146e-06
1.53971e-08
-1.73201e-06
-1.58555e-08
-1.71512e-06
-4.76971e-08
-1.69081e-06
-7.9793e-08
-1.65917e-06
-1.11824e-07
-1.62035e-06
-1.43451e-07
-1.57454e-06
-1.74326e-07
-1.52201e-06
-2.04089e-07
-1.46306e-06
-2.32374e-07
-1.39808e-06
-2.58812e-07
-1.3275e-06
-2.83039e-07
-1.25183e-06
-3.047e-07
-3.23456e-07
-9.38205e-07
3.14628e-07
-1.02034e-06
3.25644e-07
-1.10317e-06
3.34546e-07
-1.18598e-06
3.41059e-07
-1.26808e-06
3.44943e-07
-1.34873e-06
3.45989e-07
-1.42724e-06
3.44035e-07
-1.5029e-06
3.38963e-07
-1.57508e-06
3.30702e-07
-1.64314e-06
3.19225e-07
-1.70652e-06
3.04555e-07
-1.76471e-06
2.86753e-07
-1.81725e-06
2.6592e-07
-1.86373e-06
2.42195e-07
-1.90381e-06
2.15744e-07
-1.93718e-06
1.86764e-07
-1.9636e-06
1.55476e-07
-1.98286e-06
1.22122e-07
-1.99481e-06
8.69652e-08
-1.99932e-06
5.02872e-08
-1.99632e-06
1.23975e-08
-1.98575e-06
-2.64205e-08
-1.96763e-06
-6.58167e-08
-1.94199e-06
-1.05437e-07
-1.90889e-06
-1.4492e-07
-1.86846e-06
-1.83886e-07
-1.82084e-06
-2.2194e-07
-1.76626e-06
-2.58673e-07
-1.70497e-06
-2.93667e-07
-1.63728e-06
-3.26498e-07
-1.56358e-06
-3.56739e-07
-1.48431e-06
-3.83971e-07
-4.07788e-07
-1.13194e-06
4.04568e-07
-1.22256e-06
4.16262e-07
-1.31311e-06
4.25102e-07
-1.40286e-06
4.30805e-07
-1.49105e-06
4.33131e-07
-1.57695e-06
4.31895e-07
-1.65989e-06
4.26968e-07
-1.7392e-06
4.18276e-07
-1.8143e-06
4.05799e-07
-1.88464e-06
3.89567e-07
-1.94974e-06
3.69661e-07
-2.00919e-06
3.46199e-07
-2.06261e-06
3.1934e-07
-2.10968e-06
2.89271e-07
-2.15015e-06
2.56209e-07
-2.18378e-06
2.20392e-07
-2.21038e-06
1.82078e-07
-2.2298e-06
1.41544e-07
-2.24192e-06
9.90816e-08
-2.24663e-06
5.49991e-08
-2.24387e-06
9.63389e-09
-2.23357e-06
-3.67147e-08
-2.21573e-06
-8.36573e-08
-2.19035e-06
-1.30824e-07
-2.15744e-06
-1.77822e-07
-2.11709e-06
-2.2424e-07
-2.06939e-06
-2.69645e-07
-2.01447e-06
-3.13587e-07
-1.95254e-06
-3.55601e-07
-1.88383e-06
-3.95207e-07
-1.80865e-06
-4.31921e-07
-1.72736e-06
-1.3276e-06
5.02118e-07
-1.42507e-06
5.13727e-07
-1.52167e-06
5.21706e-07
-1.61665e-06
5.25786e-07
-1.70929e-06
5.25763e-07
-1.79889e-06
5.21495e-07
-1.88483e-06
5.12908e-07
-1.96654e-06
4.99988e-07
-2.04352e-06
4.82776e-07
-2.11532e-06
4.61368e-07
-2.18156e-06
4.359e-07
-2.24191e-06
4.06548e-07
-2.29608e-06
3.73517e-07
-2.34385e-06
3.37038e-07
-2.385e-06
2.97362e-07
-2.41937e-06
2.54759e-07
-2.4468e-06
2.0951e-07
-2.46717e-06
1.61912e-07
-2.48036e-06
1.12275e-07
-2.48628e-06
6.09205e-08
-2.48485e-06
8.19807e-09
-2.47599e-06
-4.55757e-08
-2.45965e-06
-9.99973e-08
-2.43579e-06
-1.54683e-07
-2.40439e-06
-2.09221e-07
-2.36546e-06
-2.63173e-07
-2.31902e-06
-3.1608e-07
-2.26515e-06
-3.67455e-07
-2.20396e-06
-4.1679e-07
-2.13561e-06
-1.52159e-06
6.05719e-07
-1.62432e-06
6.16457e-07
-1.72541e-06
6.22797e-07
-1.82413e-06
6.24514e-07
-1.91983e-06
6.21458e-07
-2.01189e-06
6.13552e-07
-2.09976e-06
6.00787e-07
-2.183e-06
5.83218e-07
-2.26117e-06
5.60952e-07
-2.33394e-06
5.34141e-07
-2.40102e-06
5.02977e-07
-2.46215e-06
4.6768e-07
-2.51713e-06
4.28493e-07
-2.56577e-06
3.85677e-07
-2.60792e-06
3.39509e-07
-2.64343e-06
2.90274e-07
-2.67219e-06
2.3827e-07
-2.69408e-06
1.83802e-07
-2.70899e-06
1.27186e-07
-2.71682e-06
6.87508e-08
-2.71747e-06
8.84361e-09
-2.71085e-06
-5.21977e-08
-2.69686e-06
-1.13978e-07
-2.67544e-06
-1.76103e-07
-2.64652e-06
-2.38148e-07
-2.61003e-06
-2.99661e-07
-2.56595e-06
-3.60162e-07
-2.51426e-06
-4.19137e-07
-4.76044e-07
-1.71068e-06
7.13879e-07
-1.81722e-06
7.22998e-07
-1.92142e-06
7.26999e-07
-2.02263e-06
7.25722e-07
-2.12026e-06
7.19087e-07
-2.2138e-06
7.0709e-07
-2.3028e-06
6.89793e-07
-2.3869e-06
6.67316e-07
-2.46577e-06
6.39826e-07
-2.53916e-06
6.07528e-07
-2.60684e-06
5.70656e-07
-2.66862e-06
5.29465e-07
-2.72436e-06
4.84225e-07
-2.7739e-06
4.3522e-07
-2.81713e-06
3.82739e-07
-2.85393e-06
3.27079e-07
-2.88421e-06
2.68544e-07
-2.90785e-06
2.07441e-07
-2.92475e-06
1.44088e-07
-2.93481e-06
7.88125e-08
-2.93792e-06
1.19538e-08
-2.93398e-06
-5.61375e-08
-2.92288e-06
-1.25082e-07
-2.9045e-06
-1.94482e-07
-2.87874e-06
-2.63911e-07
-2.84548e-06
-3.32913e-07
-2.80465e-06
-4.00997e-07
-2.75615e-06
-4.67635e-07
-5.3226e-07
-1.89211e-06
8.2522e-07
-2.00116e-06
8.3205e-07
-2.10728e-06
8.33117e-07
-2.20989e-06
8.28336e-07
-2.30851e-06
8.17704e-07
-2.40271e-06
8.01292e-07
-2.49215e-06
7.79228e-07
-2.57653e-06
7.51693e-07
-2.6556e-06
7.18904e-07
-2.72919e-06
6.81109e-07
-2.79711e-06
6.38576e-07
-2.85923e-06
5.91587e-07
-2.91544e-06
5.40433e-07
-2.96563e-06
4.85412e-07
-3.00971e-06
4.26823e-07
-3.0476e-06
3.6497e-07
-3.07922e-06
3.00159e-07
-3.10447e-06
2.32697e-07
-3.12328e-06
1.62898e-07
-3.13555e-06
9.10827e-08
-3.14118e-06
1.75826e-08
-3.14006e-06
-5.72553e-08
-3.13208e-06
-1.33066e-07
-3.1171e-06
-2.09463e-07
-3.09498e-06
-2.86027e-07
-3.06559e-06
-3.6231e-07
-3.02876e-06
-4.37823e-07
-2.98436e-06
-5.12037e-07
-5.84375e-07
-2.06351e-06
9.38491e-07
-2.17391e-06
9.42451e-07
-2.28088e-06
9.40087e-07
-2.38394e-06
9.31393e-07
-2.48268e-06
9.16444e-07
-2.57676e-06
8.95376e-07
-2.66591e-06
8.68381e-07
-2.74991e-06
8.3569e-07
-2.82857e-06
7.97564e-07
-2.90175e-06
7.54287e-07
-2.96933e-06
7.06154e-07
-3.03121e-06
6.53471e-07
-3.08732e-06
5.96547e-07
-3.1376e-06
5.35692e-07
-3.182e-06
4.71216e-07
-3.22045e-06
4.03427e-07
-3.25292e-06
3.3263e-07
-3.27936e-06
2.59133e-07
-3.29971e-06
1.83242e-07
-3.31389e-06
1.05268e-07
-3.32183e-06
2.55266e-08
-3.32345e-06
-5.56448e-08
-3.31861e-06
-1.37904e-07
-3.30719e-06
-2.20883e-07
-3.28903e-06
-3.04186e-07
-3.26396e-06
-3.87382e-07
-3.23178e-06
-4.70001e-07
-3.19229e-06
-5.51527e-07
-6.31392e-07
-2.2228e-06
1.05254e-06
-2.33348e-06
1.05313e-06
-2.4403e-06
1.04691e-06
-2.54287e-06
1.03396e-06
-2.64085e-06
1.01443e-06
-2.73398e-06
9.88502e-07
-2.82203e-06
9.56433e-07
-2.90484e-06
9.18499e-07
-2.98227e-06
8.74998e-07
-3.05423e-06
8.26246e-07
-3.12065e-06
7.72569e-07
-3.18147e-06
7.14292e-07
-3.23667e-06
6.51745e-07
-3.28623e-06
5.85251e-07
-3.33014e-06
5.15131e-07
-3.36841e-06
4.41696e-07
-3.40103e-06
3.65254e-07
-3.42801e-06
2.86106e-07
-3.44932e-06
2.04551e-07
-3.46493e-06
1.20885e-07
-3.47481e-06
3.54026e-08
-3.47888e-06
-5.15773e-08
-3.47704e-06
-1.39739e-07
-3.46918e-06
-2.28749e-07
-3.45512e-06
-3.18242e-07
-3.43468e-06
-4.0782e-07
-3.40764e-06
-4.97045e-07
-3.37373e-06
-5.85432e-07
-6.72439e-07
-2.36816e-06
1.16628e-06
-2.47808e-06
1.16304e-06
-2.58376e-06
1.15259e-06
-2.68487e-06
1.13508e-06
-2.78115e-06
1.1107e-06
-2.87236e-06
1.07972e-06
-2.95836e-06
1.04243e-06
-3.03901e-06
9.9915e-07
-3.11423e-06
9.50223e-07
-3.18398e-06
8.95996e-07
-3.24824e-06
8.36823e-07
-3.307e-06
7.73057e-07
-3.36031e-06
7.05047e-07
-3.40819e-06
6.33134e-07
-3.4507e-06
5.57646e-07
-3.48791e-06
4.78902e-07
-3.51987e-06
3.97209e-07
-3.54662e-06
3.12862e-07
-3.56821e-06
2.26145e-07
-3.58467e-06
1.37337e-07
-3.59597e-06
4.67071e-08
-3.60209e-06
-4.54553e-08
-3.60297e-06
-1.38861e-07
-3.59849e-06
-2.33227e-07
-3.58851e-06
-3.28225e-07
-3.57283e-06
-4.23503e-07
-3.5512e-06
-5.1867e-07
-3.52335e-06
-6.13286e-07
-7.06853e-07
-2.49795e-06
1.27863e-06
-2.60605e-06
1.27115e-06
-2.70956e-06
1.2561e-06
-2.80819e-06
1.2337e-06
-2.90172e-06
1.20423e-06
-2.98997e-06
1.16798e-06
-3.07284e-06
1.1253e-06
-3.15026e-06
1.07657e-06
-3.22219e-06
1.02215e-06
-3.28865e-06
9.62451e-07
-3.34967e-06
8.97844e-07
-3.40533e-06
8.28713e-07
-3.45571e-06
7.5543e-07
-3.50093e-06
6.78353e-07
-3.5411e-06
5.9782e-07
-3.57636e-06
5.14156e-07
-3.60681e-06
4.27662e-07
-3.63257e-06
3.38625e-07
-3.65374e-06
2.47313e-07
-3.67038e-06
1.5398e-07
-3.68254e-06
5.88694e-08
-3.69023e-06
-3.77718e-08
-3.69341e-06
-1.35679e-07
-3.69201e-06
-2.3463e-07
-3.68589e-06
-3.34343e-07
-3.67487e-06
-4.3452e-07
-3.65872e-06
-5.34828e-07
-3.63711e-06
-6.34887e-07
-7.34257e-07
-2.6107e-06
1.38853e-06
-2.71593e-06
1.37638e-06
-2.8162e-06
1.35636e-06
-2.91126e-06
1.32877e-06
-3.00094e-06
1.29391e-06
-3.08514e-06
1.25217e-06
-3.16378e-06
1.20394e-06
-3.23686e-06
1.14965e-06
-3.30441e-06
1.0897e-06
-3.36651e-06
1.02455e-06
-3.42326e-06
9.54596e-07
-3.47481e-06
8.80262e-07
-3.52132e-06
8.01939e-07
-3.56297e-06
7.20001e-07
-3.59994e-06
6.34796e-07
-3.63243e-06
5.46647e-07
-3.66062e-06
4.55851e-07
-3.68468e-06
3.6268e-07
-3.70475e-06
2.67383e-07
-3.72095e-06
1.70188e-07
-3.73339e-06
7.13045e-08
-3.74209e-06
-2.90669e-08
-3.74709e-06
-1.30684e-07
-3.74833e-06
-2.33394e-07
-3.7457e-06
-3.36967e-07
-3.73906e-06
-4.41166e-07
-3.72816e-06
-5.45721e-07
-3.71273e-06
-6.50323e-07
-7.54604e-07
-2.70519e-06
1.4949e-06
-2.80647e-06
1.47766e-06
-2.90241e-06
1.4523e-06
-2.99282e-06
1.41918e-06
-3.07759e-06
1.37868e-06
-3.15665e-06
1.33124e-06
-3.23002e-06
1.27731e-06
-3.29774e-06
1.21737e-06
-3.35992e-06
1.15189e-06
-3.41671e-06
1.08134e-06
-3.4683e-06
1.00619e-06
-3.5149e-06
9.26864e-07
-3.55675e-06
8.43787e-07
-3.59409e-06
7.57341e-07
-3.62718e-06
6.6788e-07
-3.65625e-06
5.75722e-07
-3.68156e-06
4.81155e-07
-3.70331e-06
3.84434e-07
-3.72171e-06
2.85783e-07
-3.73692e-06
1.85402e-07
-3.74908e-06
8.34651e-08
-3.75827e-06
-1.98808e-08
-3.76455e-06
-1.24407e-07
-3.7679e-06
-2.30041e-07
-3.76826e-06
-3.36603e-07
-3.76551e-06
-4.43917e-07
-3.75945e-06
-5.51785e-07
-3.7498e-06
-6.5997e-07
-7.68187e-07
-2.78046e-06
1.59671e-06
-2.87676e-06
1.57396e-06
-2.96734e-06
1.54289e-06
-3.05209e-06
1.50393e-06
-3.13095e-06
1.45753e-06
-3.20393e-06
1.40421e-06
-3.27111e-06
1.34448e-06
-3.33261e-06
1.27887e-06
-3.38863e-06
1.20791e-06
-3.43939e-06
1.1321e-06
-3.48515e-06
1.05195e-06
-3.5262e-06
9.67911e-07
-3.56283e-06
8.8042e-07
-3.59536e-06
7.89867e-07
-3.62408e-06
6.96603e-07
-3.6493e-06
6.00941e-07
-3.6713e-06
5.03151e-07
-3.69033e-06
4.03466e-07
-3.70663e-06
3.02087e-07
-3.72041e-06
1.99181e-07
-3.73184e-06
9.4889e-08
-3.74101e-06
-1.07098e-08
-3.74804e-06
-1.17371e-07
-3.75296e-06
-2.25127e-07
-3.75572e-06
-3.33837e-07
-3.75625e-06
-4.43387e-07
-3.75439e-06
-5.53646e-07
-3.74991e-06
-6.64452e-07
-7.75605e-07
-2.83594e-06
1.69298e-06
-2.92631e-06
1.66432e-06
-3.01063e-06
1.62721e-06
-3.08884e-06
1.58214e-06
-3.16097e-06
1.52966e-06
-3.2271e-06
1.47035e-06
-3.2874e-06
1.40478e-06
-3.34208e-06
1.33355e-06
-3.3914e-06
1.25723e-06
-3.43567e-06
1.17637e-06
-3.47521e-06
1.09149e-06
-3.51038e-06
1.00307e-06
-3.54152e-06
9.1156e-07
-3.56899e-06
8.17337e-07
-3.59314e-06
7.20752e-07
-3.61429e-06
6.22099e-07
-3.63277e-06
5.21631e-07
-3.64886e-06
4.19556e-07
-3.66282e-06
3.16044e-07
-3.67487e-06
2.11233e-07
-3.68522e-06
1.05236e-07
-3.69397e-06
-1.96463e-09
-3.7013e-06
-1.10041e-07
-3.70723e-06
-2.19196e-07
-3.71178e-06
-3.29287e-07
-3.7149e-06
-4.40261e-07
-3.7165e-06
-5.52052e-07
-3.71638e-06
-6.64572e-07
-7.77697e-07
-2.7816e-06
1.80874e-06
-2.87149e-06
1.78287e-06
-2.95512e-06
1.74795e-06
-3.03243e-06
1.70451e-06
-3.10343e-06
1.65314e-06
-3.16824e-06
1.59447e-06
-3.22702e-06
1.52913e-06
-3.28003e-06
1.45779e-06
-3.32756e-06
1.38108e-06
-3.36994e-06
1.29961e-06
-3.40756e-06
1.21398e-06
-3.44078e-06
1.12472e-06
-3.47002e-06
1.03231e-06
-3.49567e-06
9.37209e-07
-3.51812e-06
8.39784e-07
-3.53774e-06
7.40367e-07
-3.55487e-06
6.39234e-07
-3.56985e-06
5.36613e-07
-3.58298e-06
4.32683e-07
-3.59452e-06
3.27586e-07
-3.60471e-06
2.21425e-07
-3.61375e-06
1.14273e-07
-3.62185e-06
6.13996e-09
-3.62906e-06
-1.02832e-07
-3.63552e-06
-2.12737e-07
-3.64127e-06
-3.2354e-07
-3.6463e-06
-4.35232e-07
-3.65055e-06
-5.47803e-07
-3.65389e-06
-6.61227e-07
-7.75454e-07
-2.80457e-06
1.89804e-06
-2.8874e-06
1.86571e-06
-2.9637e-06
1.82425e-06
-3.03348e-06
1.77429e-06
-3.09685e-06
1.71652e-06
-3.15401e-06
1.65163e-06
-3.20522e-06
1.58035e-06
-3.25082e-06
1.50339e-06
-3.29116e-06
1.42143e-06
-3.32667e-06
1.33512e-06
-3.35775e-06
1.24507e-06
-3.38486e-06
1.15182e-06
-3.40841e-06
1.05587e-06
-3.42883e-06
9.57633e-07
-3.44653e-06
8.57482e-07
-3.46189e-06
7.55721e-07
-3.47525e-06
6.52599e-07
-3.48695e-06
5.48314e-07
-3.49728e-06
4.43016e-07
-3.50651e-06
3.36816e-07
-3.51487e-06
2.29786e-07
-3.52257e-06
1.21966e-07
-3.52979e-06
1.33662e-08
-3.53664e-06
-9.59814e-08
-3.54325e-06
-2.06133e-07
-3.54968e-06
-3.1711e-07
-3.55596e-06
-4.28947e-07
-3.56209e-06
-5.41679e-07
-3.56798e-06
-6.55333e-07
-7.69919e-07
-2.80914e-06
1.9801e-06
-2.88445e-06
1.94102e-06
-2.95304e-06
1.89284e-06
-3.01502e-06
1.83627e-06
-3.0706e-06
1.7721e-06
-3.12007e-06
1.70109e-06
-3.16377e-06
1.62405e-06
-3.20211e-06
1.54172e-06
-3.23552e-06
1.45484e-06
-3.26447e-06
1.36407e-06
-3.28943e-06
1.27002e-06
-3.31085e-06
1.17324e-06
-3.32918e-06
1.0742e-06
-3.34486e-06
9.73314e-07
-3.35829e-06
8.70913e-07
-3.36985e-06
7.67275e-07
-3.37987e-06
6.6262e-07
-3.38867e-06
5.57113e-07
-3.39653e-06
4.50874e-07
-3.40369e-06
3.43981e-07
-3.41038e-06
2.36478e-07
-3.41679e-06
1.28379e-07
-3.4231e-06
1.96752e-08
-3.42943e-06
-8.96525e-08
-3.4359e-06
-1.99663e-07
-3.4426e-06
-3.1041e-07
-3.44959e-06
-4.21959e-07
-3.45689e-06
-5.3438e-07
-3.46448e-06
-6.47739e-07
-7.62098e-07
-2.79625e-06
2.05456e-06
-2.8638e-06
2.00857e-06
-2.92456e-06
1.95359e-06
-2.97873e-06
1.89045e-06
-3.02663e-06
1.81999e-06
-3.06862e-06
1.74308e-06
-3.10512e-06
1.66056e-06
-3.13662e-06
1.57322e-06
-3.1636e-06
1.48182e-06
-3.18655e-06
1.38702e-06
-3.20597e-06
1.28944e-06
-3.22234e-06
1.18961e-06
-3.2361e-06
1.08796e-06
-3.24768e-06
9.84894e-07
-3.25747e-06
8.807e-07
-3.26581e-06
7.75623e-07
-3.27304e-06
6.69848e-07
-3.27943e-06
5.63504e-07
-3.28524e-06
4.56681e-07
-3.29069e-06
3.49428e-07
-3.29597e-06
2.41762e-07
-3.30127e-06
1.33675e-07
-3.30673e-06
2.51377e-08
-3.31249e-06
-8.38968e-08
-3.31865e-06
-1.93497e-07
-3.32533e-06
-3.03737e-07
-3.33258e-06
-4.14703e-07
-3.34047e-06
-5.26487e-07
-3.34903e-06
-6.39185e-07
-7.52891e-07
-2.76718e-06
2.1213e-06
-2.82696e-06
2.06836e-06
-2.88e-06
2.00663e-06
-2.9266e-06
1.93705e-06
-2.96715e-06
1.86054e-06
-3.00211e-06
1.77804e-06
-3.03196e-06
1.69042e-06
-3.05724e-06
1.5985e-06
-3.07845e-06
1.50303e-06
-3.09613e-06
1.4047e-06
-3.11077e-06
1.30408e-06
-3.12284e-06
1.20168e-06
-3.13279e-06
1.09791e-06
-3.141e-06
9.93112e-07
-3.14786e-06
8.87552e-07
-3.15366e-06
7.8143e-07
-3.15871e-06
6.74893e-07
-3.16324e-06
5.68038e-07
-3.16748e-06
4.60921e-07
-3.17162e-06
3.53564e-07
-3.17582e-06
2.45964e-07
-3.18023e-06
1.3809e-07
-3.18499e-06
2.98982e-08
-3.19022e-06
-7.86742e-08
-3.19601e-06
-1.87704e-07
-3.20247e-06
-2.97277e-07
-3.20968e-06
-4.07489e-07
-3.21772e-06
-5.18446e-07
-3.22665e-06
-6.30258e-07
-7.43043e-07
-2.72347e-06
2.18042e-06
-2.77569e-06
2.12058e-06
-2.82133e-06
2.05227e-06
-2.86079e-06
1.97651e-06
-2.89455e-06
1.8943e-06
-2.9231e-06
1.8066e-06
-2.94701e-06
1.71432e-06
-2.96682e-06
1.6183e-06
-2.98307e-06
1.51929e-06
-2.9963e-06
1.41792e-06
-3.00699e-06
1.31477e-06
-3.01559e-06
1.21028e-06
-3.02253e-06
1.10484e-06
-3.02816e-06
9.98741e-07
-3.0328e-06
8.92198e-07
-3.03675e-06
7.85376e-07
-3.04024e-06
6.7838e-07
-3.04347e-06
5.71275e-07
-3.04664e-06
4.64087e-07
-3.04989e-06
3.56814e-07
-3.05336e-06
2.49431e-07
-3.05716e-06
1.41895e-07
-3.06141e-06
3.41482e-08
-3.06621e-06
-7.388e-08
-3.07164e-06
-1.82271e-07
-3.0778e-06
-2.91114e-07
-3.08478e-06
-4.00508e-07
-3.09267e-06
-5.10561e-07
-3.10154e-06
-6.21391e-07
-7.33122e-07
-2.66684e-06
2.23219e-06
-2.7119e-06
2.16564e-06
-2.75065e-06
2.09102e-06
-2.78357e-06
2.00944e-06
-2.81121e-06
1.92193e-06
-2.83413e-06
1.82951e-06
-2.85289e-06
1.73309e-06
-2.86808e-06
1.63349e-06
-2.88024e-06
1.53145e-06
-2.88988e-06
1.42756e-06
-2.89747e-06
1.32236e-06
-2.90344e-06
1.21625e-06
-2.90816e-06
1.10956e-06
-2.91195e-06
1.00253e-06
-2.91509e-06
8.95342e-07
-2.91782e-06
7.88108e-07
-2.92034e-06
6.80899e-07
-2.92281e-06
5.73745e-07
-2.92537e-06
4.66647e-07
-2.92814e-06
3.59581e-07
-2.93122e-06
2.52506e-07
-2.93469e-06
1.45368e-07
-2.93864e-06
3.80997e-08
-2.94315e-06
-6.9371e-08
-2.94829e-06
-1.77126e-07
-2.95415e-06
-2.85252e-07
-2.96082e-06
-3.93846e-07
-2.96837e-06
-5.03011e-07
-2.9769e-06
-6.12862e-07
-7.23521e-07
-2.59909e-06
2.27704e-06
-2.63752e-06
2.20407e-06
-2.67002e-06
2.12352e-06
-2.69713e-06
2.03655e-06
-2.71944e-06
1.94424e-06
-2.73754e-06
1.84761e-06
-2.75202e-06
1.74757e-06
-2.76346e-06
1.64493e-06
-2.77239e-06
1.54037e-06
-2.7793e-06
1.43447e-06
-2.78462e-06
1.32768e-06
-2.78873e-06
1.22037e-06
-2.79197e-06
1.1128e-06
-2.79461e-06
1.00517e-06
-2.79689e-06
8.97617e-07
-2.79898e-06
7.90205e-07
-2.80106e-06
6.82971e-07
-2.80323e-06
5.75916e-07
-2.8056e-06
4.69015e-07
-2.80824e-06
3.62227e-07
-2.81123e-06
2.55498e-07
-2.81463e-06
1.48766e-07
-2.81849e-06
4.19617e-08
-2.82288e-06
-6.49883e-08
-2.82784e-06
-1.72161e-07
-2.83345e-06
-2.79639e-07
-2.83979e-06
-3.87509e-07
-2.84693e-06
-4.95867e-07
-2.85498e-06
-6.04815e-07
-7.14471e-07
-2.52202e-06
2.31556e-06
-2.55449e-06
2.23654e-06
-2.58146e-06
2.1505e-06
-2.60354e-06
2.05863e-06
-2.62134e-06
1.96204e-06
-2.63547e-06
1.86174e-06
-2.64653e-06
1.75863e-06
-2.65507e-06
1.65347e-06
-2.66159e-06
1.5469e-06
-2.66656e-06
1.43943e-06
-2.67035e-06
1.33148e-06
-2.67331e-06
1.22333e-06
-2.67573e-06
1.11521e-06
-2.67782e-06
1.00726e-06
-2.67977e-06
8.99566e-07
-2.68172e-06
7.92157e-07
-2.68378e-06
6.85034e-07
-2.68604e-06
5.78174e-07
-2.68855e-06
4.71531e-07
-2.69138e-06
3.65049e-07
-2.69454e-06
2.58665e-07
-2.69809e-06
1.52313e-07
-2.70205e-06
4.59224e-08
-2.70646e-06
-6.05766e-08
-2.71137e-06
-1.67255e-07
-2.71682e-06
-2.72288e-06
-2.72963e-06
-2.73716e-06
-2.43737e-06
2.34838e-06
-2.46459e-06
2.26376e-06
-2.48681e-06
2.17272e-06
-2.50466e-06
2.07648e-06
-2.51878e-06
1.97615e-06
-2.52977e-06
1.87273e-06
-2.53821e-06
1.76707e-06
-2.54463e-06
1.65989e-06
-2.5495e-06
1.55177e-06
-2.55322e-06
1.44316e-06
-2.55614e-06
1.3344e-06
-2.55856e-06
1.22574e-06
-2.56069e-06
1.11734e-06
-2.56271e-06
1.00929e-06
-2.56477e-06
9.01624e-07
-2.56696e-06
7.94346e-07
-2.56935e-06
6.87427e-07
-2.57199e-06
5.80817e-07
-2.57492e-06
4.74456e-07
-2.57815e-06
3.68276e-07
-2.58169e-06
2.62209e-07
-2.58556e-06
1.56186e-07
-2.58978e-06
5.01386e-08
-2.59436e-06
-5.59975e-08
-1.62286e-07
-2.34676e-06
2.3762e-06
-2.36947e-06
2.28647e-06
-2.38771e-06
2.19096e-06
-2.40212e-06
2.09089e-06
-2.41333e-06
1.98737e-06
-2.42194e-06
1.88135e-06
-2.42851e-06
1.77363e-06
-2.4335e-06
1.66489e-06
-2.43736e-06
1.55563e-06
-2.44044e-06
1.44624e-06
-2.44303e-06
1.33699e-06
-2.44538e-06
1.22809e-06
-2.44765e-06
1.11961e-06
-2.44999e-06
1.01162e-06
-2.45248e-06
9.04117e-07
-2.45519e-06
7.97058e-07
-2.45816e-06
6.90393e-07
-2.4614e-06
5.84056e-07
-2.46491e-06
4.77973e-07
-2.46871e-06
3.72069e-07
-2.47277e-06
2.66272e-07
-2.4771e-06
1.60513e-07
-2.48169e-06
5.47296e-08
-2.48655e-06
-5.11382e-08
-1.57145e-07
-2.25162e-06
2.39972e-06
-2.27056e-06
2.3054e-06
-2.28556e-06
2.20595e-06
-2.29726e-06
2.10259e-06
-2.30629e-06
1.9964e-06
-2.31321e-06
1.88827e-06
-2.31853e-06
1.77896e-06
-2.3227e-06
1.66905e-06
-2.32609e-06
1.55901e-06
-2.329e-06
1.44915e-06
-2.33169e-06
1.33968e-06
-2.33433e-06
1.23073e-06
-2.33706e-06
1.12235e-06
-2.33997e-06
1.01454e-06
-2.34312e-06
9.07269e-07
-2.34654e-06
8.00477e-07
-2.35024e-06
6.94089e-07
-2.3542e-06
5.88021e-07
-2.35842e-06
4.82192e-07
-2.36288e-06
3.76523e-07
-2.36755e-06
2.7094e-07
-2.37241e-06
1.65378e-07
-2.37746e-06
5.97768e-08
-2.38268e-06
-4.59148e-08
-1.51743e-07
-2.15323e-06
2.41965e-06
-2.16909e-06
2.32126e-06
-2.18154e-06
2.2184e-06
-2.1912e-06
2.11226e-06
-2.19868e-06
2.00387e-06
-2.20449e-06
1.89408e-06
-2.20911e-06
1.78357e-06
-2.21292e-06
1.67287e-06
-2.21626e-06
1.56235e-06
-2.21938e-06
1.45226e-06
-2.22246e-06
1.34277e-06
-2.22566e-06
1.23392e-06
-2.22906e-06
1.12575e-06
-2.23272e-06
1.0182e-06
-2.23667e-06
9.11214e-07
-2.2409e-06
8.04709e-07
-2.2454e-06
6.98592e-07
-2.25015e-06
5.92773e-07
-2.25512e-06
4.87163e-07
-2.26028e-06
3.8168e-07
-2.26559e-06
2.76253e-07
-2.27103e-06
1.7082e-07
-2.27658e-06
6.5326e-08
-2.28223e-06
-4.02723e-08
-1.46013e-07
-2.05266e-06
2.43661e-06
-2.06608e-06
2.33468e-06
-2.07658e-06
2.22891e-06
-2.08479e-06
2.12047e-06
-2.09124e-06
2.01032e-06
-2.09644e-06
1.89927e-06
-2.10078e-06
1.78792e-06
-2.10461e-06
1.67671e-06
-2.10822e-06
1.56595e-06
-2.11179e-06
1.45584e-06
-2.11549e-06
1.34646e-06
-2.1194e-06
1.23784e-06
-2.1236e-06
1.12994e-06
-2.12809e-06
1.02269e-06
-2.13289e-06
9.16009e-07
-2.13796e-06
8.09786e-07
-2.14329e-06
7.03922e-07
-2.14884e-06
5.98318e-07
-2.15456e-06
4.92883e-07
-2.16042e-06
3.87537e-07
-2.16637e-06
2.8221e-07
-2.1724e-06
1.76845e-07
-2.17847e-06
7.13934e-08
-2.18456e-06
-3.41821e-08
-1.39911e-07
-1.95078e-06
2.45121e-06
-1.96232e-06
2.34622e-06
-1.97142e-06
2.23801e-06
-1.97866e-06
2.1277e-06
-1.98453e-06
2.0162e-06
-1.98948e-06
1.90422e-06
-1.99388e-06
1.79231e-06
-1.998e-06
1.68083e-06
-2.00209e-06
1.57004e-06
-2.00629e-06
1.46004e-06
-2.01072e-06
1.35089e-06
-2.01543e-06
1.24256e-06
-2.02046e-06
1.13497e-06
-2.02581e-06
1.02804e-06
-2.03145e-06
9.21651e-07
-2.03736e-06
8.15691e-07
-2.04349e-06
7.10048e-07
-2.04979e-06
6.0462e-07
-2.05622e-06
4.99317e-07
-2.06274e-06
3.9406e-07
-2.06932e-06
2.88783e-07
-2.07591e-06
1.83434e-07
-2.08248e-06
7.79708e-08
-2.08903e-06
-2.76378e-08
-1.84829e-06
2.46395e-06
-1.85845e-06
2.35637e-06
-1.86659e-06
2.24615e-06
-1.87325e-06
2.13436e-06
-1.87888e-06
2.02183e-06
-1.88388e-06
1.90922e-06
-1.88856e-06
1.79699e-06
-1.89316e-06
1.68543e-06
-1.89786e-06
1.57473e-06
-1.90278e-06
1.46496e-06
-1.90799e-06
1.3561e-06
-1.91352e-06
1.24809e-06
-1.91938e-06
1.14083e-06
-1.92555e-06
1.03421e-06
-1.932e-06
9.28096e-07
-1.93867e-06
8.22367e-07
-1.94553e-06
7.16908e-07
-1.95253e-06
6.11616e-07
-1.95961e-06
5.06402e-07
-1.96674e-06
4.01191e-07
-1.97388e-06
2.95922e-07
-1.981e-06
1.90548e-07
-1.98806e-06
8.50325e-08
-2.06499e-08
-1.74573e-06
2.47531e-06
-1.75491e-06
2.36555e-06
-1.76245e-06
2.2537e-06
-1.76885e-06
2.14075e-06
-1.7745e-06
2.02749e-06
-1.77976e-06
1.91448e-06
-1.78487e-06
1.80211e-06
-1.79005e-06
1.69061e-06
-1.79543e-06
1.58011e-06
-1.80109e-06
1.47062e-06
-1.80707e-06
1.36208e-06
-1.81339e-06
1.25441e-06
-1.82003e-06
1.14747e-06
-1.82695e-06
1.04114e-06
-1.83412e-06
9.35265e-07
-1.84149e-06
8.29732e-07
-1.849e-06
7.24418e-07
-1.85661e-06
6.19223e-07
-1.86426e-06
5.1406e-07
-1.87193e-06
4.0886e-07
-1.87958e-06
3.03566e-07
-1.88717e-06
-1.89468e-06
-1.6435e-06
2.48564e-06
-1.65203e-06
2.37407e-06
-1.65926e-06
2.26092e-06
-1.66562e-06
2.14711e-06
-1.67147e-06
2.03335e-06
-1.67711e-06
1.92012e-06
-1.68275e-06
1.80775e-06
-1.68856e-06
1.69641e-06
-1.69462e-06
1.58617e-06
-1.70099e-06
1.47699e-06
-1.70771e-06
1.36879e-06
-1.71475e-06
1.26145e-06
-1.72208e-06
1.15481e-06
-1.72967e-06
1.04873e-06
-1.73747e-06
9.43065e-07
-1.74543e-06
8.3769e-07
-1.7535e-06
7.32485e-07
-1.76163e-06
6.27352e-07
-1.76978e-06
5.22209e-07
-1.77791e-06
4.16991e-07
3.11649e-07
-1.54187e-06
2.49525e-06
-1.55001e-06
2.38222e-06
-1.55714e-06
2.26805e-06
-1.56363e-06
2.1536e-06
-1.5698e-06
2.03952e-06
-1.57589e-06
1.92621e-06
-1.58209e-06
1.81395e-06
-1.58851e-06
1.70283e-06
-1.59522e-06
1.59289e-06
-1.60226e-06
1.48403e-06
-1.60963e-06
1.37616e-06
-1.6173e-06
1.26912e-06
-1.62523e-06
1.16274e-06
-1.63339e-06
1.05688e-06
-1.64172e-06
9.51394e-07
-1.65017e-06
8.46141e-07
-1.6587e-06
7.41011e-07
-1.66725e-06
6.3591e-07
-1.67581e-06
5.30763e-07
-1.68433e-06
4.2551e-07
3.20106e-07
-1.44103e-06
2.50439e-06
-1.44897e-06
2.39016e-06
-1.45614e-06
2.27521e-06
-1.46286e-06
2.16033e-06
-1.46941e-06
2.04606e-06
-1.47598e-06
1.93278e-06
-1.48272e-06
1.82069e-06
-1.48972e-06
1.70983e-06
-1.49703e-06
1.60019e-06
-1.50465e-06
1.49166e-06
-1.51258e-06
1.38409e-06
-1.52078e-06
1.27732e-06
-1.52921e-06
1.17117e-06
-1.53783e-06
1.0655e-06
-1.54658e-06
9.60147e-07
-1.55543e-06
8.54983e-07
-1.56432e-06
7.49901e-07
-1.57322e-06
6.44812e-07
-1.5821e-06
5.39644e-07
-1.59093e-06
4.34344e-07
3.28871e-07
-1.34107e-06
2.51323e-06
-1.34896e-06
2.39806e-06
-1.35627e-06
2.28252e-06
-1.36328e-06
2.16733e-06
-1.37022e-06
2.053e-06
-1.37725e-06
1.93982e-06
-1.3845e-06
1.82793e-06
-1.39202e-06
1.71735e-06
-1.39983e-06
1.60801e-06
-1.40795e-06
1.49977e-06
-1.41634e-06
1.39248e-06
-1.42496e-06
1.28594e-06
-1.43379e-06
1.18e-06
-1.44276e-06
1.07447e-06
-1.45184e-06
9.69224e-07
-1.46098e-06
8.64124e-07
-1.47014e-06
7.59069e-07
-1.47931e-06
6.53975e-07
-1.48844e-06
5.48777e-07
-1.49752e-06
4.43427e-07
3.37889e-07
-1.24205e-06
2.5219e-06
-1.24998e-06
2.40599e-06
-1.25747e-06
2.29001e-06
-1.26478e-06
2.17465e-06
-1.27211e-06
2.06032e-06
-1.27957e-06
1.94728e-06
-1.28725e-06
1.83562e-06
-1.29521e-06
1.72531e-06
-1.30344e-06
1.61625e-06
-1.31195e-06
1.50828e-06
-1.32069e-06
1.40122e-06
-1.32964e-06
1.29489e-06
-1.33876e-06
1.18911e-06
-1.34799e-06
1.0837e-06
-1.35729e-06
9.78533e-07
-1.36665e-06
8.73476e-07
-1.37601e-06
7.68434e-07
-1.38536e-06
6.63327e-07
-1.39468e-06
5.58098e-07
-1.40396e-06
4.52702e-07
3.47107e-07
-1.14396e-06
2.5305e-06
-1.15198e-06
2.414e-06
-1.15968e-06
2.29772e-06
-1.16728e-06
2.18225e-06
-1.17495e-06
2.06798e-06
-1.18277e-06
1.95511e-06
-1.19082e-06
1.84367e-06
-1.19913e-06
1.73361e-06
-1.20769e-06
1.6248e-06
-1.21648e-06
1.51707e-06
-1.22549e-06
1.41023e-06
-1.23466e-06
1.30407e-06
-1.24397e-06
1.19841e-06
-1.25336e-06