/*--------------------------------*- C++ -*----------------------------------*\
  =========                 |
  \\      /  F ield         | OpenFOAM: The Open Source CFD Toolbox
   \\    /   O peration     | Website:  https://openfoam.org
    \\  /    A nd           | Version:  9
     \\/     M anipulation  |
\*---------------------------------------------------------------------------*/
FoamFile
{
    format      ascii;
    class       volVectorField;
    location    "3.25";
    object      U;
}
// * * * * * * * * * * * * * * * * * * * * * * * * * * * * * * * * * * * * * //

dimensions      [0 1 -1 0 0 0 0];

internalField   nonuniform List<vector> 
1250
(
(-0.00335817 0.000154902 0)
(-0.00403346 0.000170712 0)
(-0.00476021 0.000186741 0)
(-0.00553694 0.000202749 0)
(-0.00636119 0.00021846 0)
(-0.00722945 0.000233564 0)
(-0.00813709 0.000247719 0)
(-0.00907829 0.000260556 0)
(-0.0100461 0.000271683 0)
(-0.0110322 0.000280691 0)
(-0.0120274 0.000287164 0)
(-0.0130212 0.000290688 0)
(-0.0140021 0.00029086 0)
(-0.0149578 0.000287302 0)
(-0.0158751 0.000279672 0)
(-0.0167404 0.000267676 0)
(-0.0175397 0.000251082 0)
(-0.0182589 0.000229733 0)
(-0.0188838 0.000203562 0)
(-0.019401 0.000172618 0)
(-0.0197976 0.000137111 0)
(-0.0200619 9.73822e-05 0)
(-0.0201839 5.37582e-05 0)
(-0.020154 6.77787e-06 0)
(-0.019965 -4.33482e-05 0)
(-0.0196132 -9.54388e-05 0)
(-0.0190967 -0.000148504 0)
(-0.0184161 -0.000201533 0)
(-0.0175754 -0.000253423 0)
(-0.0165816 -0.000303001 0)
(-0.0154449 -0.000349065 0)
(-0.0141787 -0.000390426 0)
(-0.0127993 -0.000425954 0)
(-0.0127495 0.00128739 0)
(-0.0147827 0.0013867 0)
(-0.016943 0.00148355 0)
(-0.0192223 0.00157611 0)
(-0.02161 0.00166239 0)
(-0.0240923 0.00174026 0)
(-0.0266526 0.00180753 0)
(-0.0292716 0.00186193 0)
(-0.031927 0.0019012 0)
(-0.0345939 0.00192315 0)
(-0.0372449 0.00192566 0)
(-0.0398507 0.00190679 0)
(-0.0423801 0.00186483 0)
(-0.0448007 0.00179834 0)
(-0.0470791 0.0017062 0)
(-0.0491819 0.0015877 0)
(-0.0510758 0.00144255 0)
(-0.0527282 0.00127094 0)
(-0.0541083 0.00107357 0)
(-0.0551871 0.000851692 0)
(-0.0559385 0.000607215 0)
(-0.0563401 0.000342383 0)
(-0.0563734 5.94773e-05 0)
(-0.0560229 -0.000235841 0)
(-0.0552783 -0.000541156 0)
(-0.054136 -0.000851697 0)
(-0.0525978 -0.00116231 0)
(-0.0506714 -0.00146761 0)
(-0.0483706 -0.00176194 0)
(-0.0457159 -0.00203953 0)
(-0.0427338 -0.00229461 0)
(-0.0394571 -0.0025216 0)
(-0.0359245 -0.00271526 0)
(-0.0245584 0.00392592 0)
(-0.0279446 0.00418871 0)
(-0.0315068 0.00443864 0)
(-0.0352274 0.00467031 0)
(-0.0390842 0.00487807 0)
(-0.0430509 0.00505609 0)
(-0.0470972 0.0051985 0)
(-0.0511887 0.00529953 0)
(-0.0552877 0.00535363 0)
(-0.0593534 0.00535564 0)
(-0.0633422 0.00530091 0)
(-0.067209 0.00518545 0)
(-0.0709071 0.00500609 0)
(-0.0743898 0.00476053 0)
(-0.0776101 0.0044475 0)
(-0.0805226 0.00406681 0)
(-0.0830833 0.00361945 0)
(-0.085251 0.00310759 0)
(-0.0869878 0.00253465 0)
(-0.0882596 0.00190532 0)
(-0.0890373 0.00122558 0)
(-0.0892976 0.000502435 0)
(-0.0890203 -0.000257057 0)
(-0.0881925 -0.00104056 0)
(-0.08681 -0.00183905 0)
(-0.0848734 -0.00264158 0)
(-0.0823913 -0.00343604 0)
(-0.0793791 -0.00420976 0)
(-0.0758603 -0.00494975 0)
(-0.0718653 -0.00564291 0)
(-0.0674322 -0.00627636 0)
(-0.0626059 -0.00683773 0)
(-0.057438 -0.0073155 0)
(-0.0385034 0.00789311 0)
(-0.0432123 0.00836013 0)
(-0.0481187 0.00879327 0)
(-0.0531925 0.00918222 0)
(-0.0583983 0.00951643 0)
(-0.0636958 0.0097854 0)
(-0.0690405 0.00997887 0)
(-0.0743835 0.0100872 0)
(-0.0796731 0.0101014 0)
(-0.0848549 0.0100137 0)
(-0.0898733 0.00981764 0)
(-0.0946718 0.00950802 0)
(-0.0991944 0.00908147 0)
(-0.103386 0.00853635 0)
(-0.107194 0.00787289 0)
(-0.110569 0.00709324 0)
(-0.113464 0.00620149 0)
(-0.115838 0.00520367 0)
(-0.117652 0.00410775 0)
(-0.118876 0.00292344 0)
(-0.119483 0.001662 0)
(-0.119456 0.000336927 0)
(-0.118778 -0.00103395 0)
(-0.117442 -0.00243789 0)
(-0.11545 -0.00385656 0)
(-0.11281 -0.00527106 0)
(-0.109535 -0.00666173 0)
(-0.105648 -0.00800826 0)
(-0.101177 -0.00929 0)
(-0.09616 -0.0104863 0)
(-0.0906392 -0.011577 0)
(-0.0846656 -0.0125428 0)
(-0.0782962 -0.0133655 0)
(-0.054262 0.0131372 0)
(-0.0602303 0.0138208 0)
(-0.0663894 0.0144367 0)
(-0.0726957 0.0149688 0)
(-0.0791001 0.0154013 0)
(-0.0855487 0.0157189 0)
(-0.0919838 0.0159073 0)
(-0.0983449 0.0159537 0)
(-0.10457 0.0158469 0)
(-0.110595 0.0155778 0)
(-0.116358 0.0151397 0)
(-0.121797 0.0145282 0)
(-0.126853 0.0137417 0)
(-0.131471 0.0127812 0)
(-0.135598 0.0116503 0)
(-0.139187 0.0103555 0)
(-0.142195 0.00890544 0)
(-0.144585 0.00731154 0)
(-0.146326 0.00558737 0)
(-0.147393 0.00374865 0)
(-0.147765 0.0018129 0)
(-0.147427 -0.000199856 0)
(-0.146374 -0.00226537 0)
(-0.144605 -0.00436436 0)
(-0.142124 -0.00647149 0)
(-0.138941 -0.00856089 0)
(-0.135076 -0.0106059 0)
(-0.130553 -0.0125792 0)
(-0.125401 -0.0144533 0)
(-0.11966 -0.0162004 0)
(-0.113372 -0.0177936 0)
(-0.106588 -0.0192069 0)
(-0.0993654 -0.020416 0)
(-0.0714708 0.0196027 0)
(-0.0786006 0.0204891 0)
(-0.0858882 0.02126 0)
(-0.0932766 0.0218939 0)
(-0.100704 0.0223701 0)
(-0.108106 0.0226695 0)
(-0.115416 0.0227752 0)
(-0.122564 0.0226728 0)
(-0.129484 0.0223509 0)
(-0.136109 0.0218012 0)
(-0.142374 0.021019 0)
(-0.148221 0.0200029 0)
(-0.153593 0.018755 0)
(-0.158438 0.0172808 0)
(-0.162711 0.0155888 0)
(-0.166371 0.0136908 0)
(-0.169382 0.0116011 0)
(-0.171714 0.00933681 0)
(-0.173345 0.0069173 0)
(-0.174254 0.00436423 0)
(-0.174428 0.0017014 0)
(-0.173857 -0.00104565 0)
(-0.172539 -0.00385107 0)
(-0.170477 -0.00668466 0)
(-0.167675 -0.00951635 0)
(-0.164147 -0.0123148 0)
(-0.159909 -0.0150474 0)
(-0.154985 -0.0176808 0)
(-0.149402 -0.0201812 0)
(-0.143196 -0.0225148 0)
(-0.136407 -0.0246482 0)
(-0.129082 -0.026549 0)
(-0.121274 -0.0281866 0)
(-0.0897403 0.0271888 0)
(-0.0979033 0.028239 0)
(-0.106169 0.0291132 0)
(-0.114469 0.0297851 0)
(-0.122732 0.0302309 0)
(-0.130888 0.0304297 0)
(-0.138864 0.0303641 0)
(-0.14659 0.0300206 0)
(-0.153998 0.0293898 0)
(-0.161024 0.0284668 0)
(-0.16761 0.0272509 0)
(-0.173701 0.0257454 0)
(-0.179248 0.0239577 0)
(-0.184208 0.0218987 0)
(-0.188544 0.0195825 0)
(-0.192222 0.0170264 0)
(-0.195217 0.0142502 0)
(-0.197504 0.0112761 0)
(-0.199067 0.00812853 0)
(-0.199892 0.0048339 0)
(-0.199968 0.00142063 0)
(-0.199289 -0.00208135 0)
(-0.197854 -0.00564133 0)
(-0.195664 -0.00922518 0)
(-0.192724 -0.0127982 0)
(-0.189043 -0.0163242 0)
(-0.184636 -0.0197658 0)
(-0.17952 -0.0230843 0)
(-0.173718 -0.0262405 0)
(-0.167261 -0.0291947 0)
(-0.160182 -0.0319074 0)
(-0.152522 -0.0343398 0)
(-0.144329 -0.0364548 0)
(-0.108672 0.0357636 0)
(-0.117719 0.0369181 0)
(-0.126796 0.0378256 0)
(-0.135831 0.0384576 0)
(-0.144746 0.0387893 0)
(-0.153469 0.0388004 0)
(-0.161928 0.0384758 0)
(-0.170056 0.0378054 0)
(-0.177791 0.0367842 0)
(-0.185076 0.0354123 0)
(-0.191859 0.0336945 0)
(-0.198097 0.03164 0)
(-0.203748 0.0292619 0)
(-0.20878 0.0265765 0)
(-0.213162 0.0236034 0)
(-0.216872 0.0203646 0)
(-0.219887 0.0168843 0)
(-0.222191 0.0131888 0)
(-0.22377 0.00930621 0)
(-0.224612 0.00526625 0)
(-0.22471 0.00110048 0)
(-0.224057 -0.00315796 0)
(-0.22265 -0.00747494 0)
(-0.220488 -0.0118137 0)
(-0.217571 -0.0161361 0)
(-0.213906 -0.0204022 0)
(-0.209499 -0.0245705 0)
(-0.204364 -0.0285979 0)
(-0.198516 -0.0324402 0)
(-0.191977 -0.036052 0)
(-0.184774 -0.0393879 0)
(-0.176941 -0.0424026 0)
(-0.168519 -0.0450521 0)
(-0.127877 0.0451774 0)
(-0.137648 0.0463628 0)
(-0.147371 0.0472243 0)
(-0.156969 0.0477334 0)
(-0.166368 0.0478674 0)
(-0.175496 0.0476095 0)
(-0.184289 0.046949 0)
(-0.192685 0.0458813 0)
(-0.200631 0.0444072 0)
(-0.20808 0.0425332 0)
(-0.214991 0.04027 0)
(-0.221328 0.0376327 0)
(-0.22706 0.0346396 0)
(-0.232163 0.031312 0)
(-0.236613 0.0276736 0)
(-0.240392 0.0237499 0)
(-0.243485 0.0195685 0)
(-0.245877 0.0151583 0)
(-0.247557 0.0105494 0)
(-0.248514 0.00577378 0)
(-0.248739 0.000864723 0)
(-0.248225 -0.00414268 0)
(-0.246965 -0.00921232 0)
(-0.244955 -0.0143055 0)
(-0.242192 -0.0193815 0)
(-0.238674 -0.0243978 0)
(-0.234404 -0.0293095 0)
(-0.229386 -0.0340697 0)
(-0.22363 -0.0386294 0)
(-0.217148 -0.0429383 0)
(-0.20996 -0.0469449 0)
(-0.146992 0.055273 0)
(-0.157329 0.0564101 0)
(-0.167539 0.0571448 0)
(-0.177548 0.057452 0)
(-0.187286 0.0573135 0)
(-0.196688 0.0567179 0)
(-0.205698 0.055661 0)
(-0.214264 0.0541447 0)
(-0.222344 0.0521766 0)
(-0.229899 0.0497692 0)
(-0.236898 0.046939 0)
(-0.243314 0.0437063 0)
(-0.249124 0.0400936 0)
(-0.254309 0.0361259 0)
(-0.258851 0.0318298 0)
(-0.262737 0.0272333 0)
(-0.265953 0.0223656 0)
(-0.268487 0.0172571 0)
(-0.270329 0.0119392 0)
(-0.271468 0.00644464 0)
(-0.271893 0.000807498 0)
(-0.271596 -0.00493639 0)
(-0.270567 -0.0107497 0)
(-0.268798 -0.0165924 0)
(-0.266281 -0.0224226 0)
(-0.263011 -0.0281956 0)
(-0.258982 -0.0338639 0)
(-0.254193 -0.0393775 0)
(-0.248645 -0.0446835 0)
(-0.165693 0.0658961 0)
(-0.176448 0.0669067 0)
(-0.187002 0.0674399 0)
(-0.197289 0.067476 0)
(-0.207245 0.0670031 0)
(-0.216816 0.0660172 0)
(-0.225953 0.064521 0)
(-0.234617 0.0625232 0)
(-0.242773 0.0600379 0)
(-0.250392 0.0570831 0)
(-0.25745 0.0536803 0)
(-0.263927 0.0498535 0)
(-0.269806 0.0456287 0)
(-0.275073 0.0410333 0)
(-0.279714 0.0360957 0)
(-0.283717 0.0308453 0)
(-0.287073 0.0253121 0)
(-0.289771 0.0195271 0)
(-0.2918 0.0135221 0)
(-0.29315 0.00732985 0)
(-0.29381 0.000984637 0)
(-0.29377 -0.00547786 0)
(-0.29302 -0.0120197 0)
(-0.291548 -0.0186008 0)
(-0.289343 -0.0251784 0)
(-0.286394 -0.0317068 0)
(-0.282691 -0.038137 0)
(-0.278225 -0.0444167 0)
(-0.27299 -0.0504901 0)
(-0.183695 0.0769024 0)
(-0.194733 0.0777152 0)
(-0.205507 0.0779818 0)
(-0.215957 0.0776898 0)
(-0.226031 0.076835 0)
(-0.235682 0.0754208 0)
(-0.244872 0.073457 0)
(-0.253569 0.0709587 0)
(-0.261747 0.0679453 0)
(-0.269384 0.0644399 0)
(-0.276463 0.0604675 0)
(-0.282968 0.0560552 0)
(-0.288887 0.0512313 0)
(-0.294208 0.0460248 0)
(-0.298924 0.0404654 0)
(-0.303024 0.0345831 0)
(-0.306501 0.0284084 0)
(-0.309346 0.0219722 0)
(-0.31155 0.0153062 0)
(-0.313106 0.00844291 0)
(-0.314003 0.00141597 0)
(-0.31423 -0.00573944 0)
(-0.313777 -0.012986 0)
(-0.312632 -0.020284 0)
(-0.31078 -0.0275912 0)
(-0.308207 -0.0348619 0)
(-0.304899 -0.0420466 0)
(-0.30084 -0.0490922 0)
(-0.296017 -0.0559412 0)
(-0.200755 0.0881609 0)
(-0.211954 0.0887132 0)
(-0.222836 0.088659 0)
(-0.233349 0.0879938 0)
(-0.243448 0.0867212 0)
(-0.253097 0.0848516 0)
(-0.262266 0.0824015 0)
(-0.270928 0.0793914 0)
(-0.279065 0.0758455 0)
(-0.28666 0.0717905 0)
(-0.2937 0.0672547 0)
(-0.300175 0.0622674 0)
(-0.306076 0.0568588 0)
(-0.311397 0.0510592 0)
(-0.316131 0.0448992 0)
(-0.320274 0.0384093 0)
(-0.323821 0.03162 0)
(-0.326767 0.0245624 0)
(-0.329107 0.0172673 0)
(-0.330834 0.00976663 0)
(-0.331942 0.00209296 0)
(-0.332422 -0.0057197 0)
(-0.332263 -0.0136354 0)
(-0.331453 -0.0216162 0)
(-0.329977 -0.0296211 0)
(-0.327819 -0.0376057 0)
(-0.324961 -0.0455217 0)
(-0.321382 -0.0533163 0)
(-0.317062 -0.0609321 0)
(-0.216659 0.0995522 0)
(-0.227909 0.0997905 0)
(-0.238796 0.0993704 0)
(-0.249275 0.0982953 0)
(-0.25931 0.0965763 0)
(-0.268872 0.0942304 0)
(-0.277936 0.0912795 0)
(-0.286482 0.0877492 0)
(-0.294497 0.0836676 0)
(-0.301969 0.0790646 0)
(-0.308889 0.0739713 0)
(-0.315251 0.0684194 0)
(-0.321052 0.0624405 0)
(-0.32629 0.0560665 0)
(-0.330963 0.0493287 0)
(-0.335071 0.0422583 0)
(-0.338615 0.0348859 0)
(-0.341595 0.027242 0)
(-0.344009 0.0193569 0)
(-0.345855 0.0112612 0)
(-0.347131 0.0029859 0)
(-0.347829 -0.00543696 0)
(-0.347943 -0.0139737 0)
(-0.34746 -0.0225888 0)
(-0.346368 -0.031244 0)
(-0.344648 -0.0398976 0)
(-0.342279 -0.0485038 0)
(-0.339237 -0.057012 0)
(-0.335496 -0.0653663 0)
(-0.231224 0.110965 0)
(-0.242418 0.110843 0)
(-0.253208 0.110018 0)
(-0.263556 0.108501 0)
(-0.273431 0.10631 0)
(-0.28281 0.103468 0)
(-0.291675 0.100003 0)
(-0.300009 0.0959428 0)
(-0.307805 0.0913211 0)
(-0.315054 0.0861705 0)
(-0.321754 0.0805248 0)
(-0.327904 0.0744182 0)
(-0.333506 0.0678842 0)
(-0.338563 0.0609562 0)
(-0.343081 0.0536665 0)
(-0.347065 0.0460469 0)
(-0.350521 0.038128 0)
(-0.353455 0.0299398 0)
(-0.355871 0.0215115 0)
(-0.357773 0.012872 0)
(-0.35916 0.00405008 0)
(-0.360032 -0.00492475 0)
(-0.360384 -0.0140219 0)
(-0.360206 -0.0232095 0)
(-0.359487 -0.0324528 0)
(-0.358208 -0.0417143 0)
(-0.356348 -0.050952 0)
(-0.353882 -0.0601193 0)
(-0.350776 -0.0691638 0)
(-0.244284 0.122293 0)
(-0.255317 0.121767 0)
(-0.265906 0.1205 0)
(-0.276019 0.11851 0)
(-0.285632 0.115822 0)
(-0.294725 0.112464 0)
(-0.303283 0.108468 0)
(-0.311299 0.103869 0)
(-0.318766 0.098701 0)
(-0.325685 0.0930023 0)
(-0.332057 0.0868095 0)
(-0.337888 0.0801592 0)
(-0.343187 0.0730874 0)
(-0.347963 0.065629 0)
(-0.352229 0.0578175 0)
(-0.355997 0.0496851 0)
(-0.359279 0.0412622 0)
(-0.362086 0.0325781 0)
(-0.36443 0.0236605 0)
(-0.366319 0.0145362 0)
(-0.367758 0.00523141 0)
(-0.36875 -0.0042278 0)
(-0.369294 -0.0138146 0)
(-0.369385 -0.0235014 0)
(-0.369012 -0.0332582 0)
(-0.36816 -0.0430525 0)
(-0.366807 -0.0528477 0)
(-0.364927 -0.0626024 0)
(-0.362486 -0.0722695 0)
(-0.255694 0.133429 0)
(-0.266459 0.132457 0)
(-0.276741 0.130711 0)
(-0.286512 0.128218 0)
(-0.295753 0.125006 0)
(-0.30445 0.12111 0)
(-0.312592 0.116567 0)
(-0.320178 0.111416 0)
(-0.327208 0.105697 0)
(-0.333687 0.0994504 0)
(-0.339626 0.0927176 0)
(-0.345037 0.0855378 0)
(-0.349935 0.0779492 0)
(-0.354337 0.0699884 0)
(-0.358263 0.06169 0)
(-0.361731 0.0530863 0)
(-0.36476 0.0442074 0)
(-0.367368 0.0350813 0)
(-0.36957 0.025734 0)
(-0.371381 0.0161897 0)
(-0.372811 0.00647154 0)
(-0.373866 -0.00339817 0)
(-0.374551 -0.0133969 0)
(-0.374864 -0.0235019 0)
(-0.374797 -0.0336888 0)
(-0.374338 -0.0439308 0)
(-0.373467 -0.0541975 0)
(-0.372158 -0.0644541 0)
(-0.370379 -0.0746603 0)
(-0.265331 0.144266 0)
(-0.275721 0.142806 0)
(-0.285588 0.140544 0)
(-0.294909 0.137514 0)
(-0.30367 0.133751 0)
(-0.311862 0.129294 0)
(-0.319483 0.124188 0)
(-0.326534 0.118475 0)
(-0.333026 0.112202 0)
(-0.33897 0.105412 0)
(-0.344384 0.098151 0)
(-0.349287 0.0904603 0)
(-0.353703 0.0823809 0)
(-0.357655 0.0739508 0)
(-0.36117 0.0652052 0)
(-0.364271 0.0561763 0)
(-0.366984 0.0468934 0)
(-0.369331 0.0373829 0)
(-0.371333 0.0276687 0)
(-0.37301 0.0177722 0)
(-0.374375 0.00771287 0)
(-0.37544 -0.0024908 0)
(-0.376213 -0.0128207 0)
(-0.376695 -0.0232597 0)
(-0.376882 -0.033789 0)
(-0.376766 -0.0443881 0)
(-0.376331 -0.0550335 0)
(-0.375553 -0.0656977 0)
(-0.3744 -0.0763481 0)
(-0.273098 0.154697 0)
(-0.28301 0.152706 0)
(-0.292358 0.149892 0)
(-0.301127 0.146293 0)
(-0.309308 0.141952 0)
(-0.316898 0.136915 0)
(-0.323903 0.131232 0)
(-0.330332 0.124952 0)
(-0.336203 0.118126 0)
(-0.341535 0.110803 0)
(-0.346354 0.10303 0)
(-0.350686 0.0948532 0)
(-0.354562 0.0863144 0)
(-0.358012 0.0774529 0)
(-0.361066 0.068304 0)
(-0.363755 0.0588993 0)
(-0.366109 0.0492669 0)
(-0.368153 0.0394313 0)
(-0.369914 0.0294137 0)
(-0.371414 0.0192326 0)
(-0.37267 0.00890388 0)
(-0.373696 -0.00155821 0)
(-0.374505 -0.0121401 0)
(-0.375102 -0.0228301 0)
(-0.375487 -0.033615 0)
(-0.375654 -0.0444805 0)
(-0.375592 -0.0554103 0)
(-0.375282 -0.0663845 0)
(-0.374695 -0.0773786 0)
(-0.278935 0.164622 0)
(-0.288271 0.162059 0)
(-0.297008 0.158655 0)
(-0.305134 0.154458 0)
(-0.31265 0.149516 0)
(-0.319559 0.143885 0)
(-0.325876 0.137618 0)
(-0.331618 0.130772 0)
(-0.336811 0.123402 0)
(-0.341481 0.115562 0)
(-0.345663 0.107301 0)
(-0.349389 0.0986688 0)
(-0.352694 0.0897075 0)
(-0.355615 0.0804568 0)
(-0.358187 0.0709517 0)
(-0.360444 0.0612227 0)
(-0.362418 0.051296 0)
(-0.364139 0.0411938 0)
(-0.365635 0.0309346 0)
(-0.36693 0.0205338 0)
(-0.368045 0.0100041 0)
(-0.368996 -0.000644862 0)
(-0.369798 -0.0114065 0)
(-0.37046 -0.02227 0)
(-0.370984 -0.033229 0)
(-0.371369 -0.0442751 0)
(-0.371609 -0.055399 0)
(-0.371688 -0.0665881 0)
(-0.371584 -0.0778263 0)
(-0.273519 0.17622 0)
(-0.282819 0.173947 0)
(-0.291497 0.170774 0)
(-0.299545 0.16675 0)
(-0.306958 0.161931 0)
(-0.313745 0.156373 0)
(-0.319918 0.150139 0)
(-0.325501 0.14329 0)
(-0.330519 0.135887 0)
(-0.335005 0.12799 0)
(-0.338995 0.119657 0)
(-0.342526 0.11094 0)
(-0.345639 0.101888 0)
(-0.348373 0.0925461 0)
(-0.350767 0.0829518 0)
(-0.352861 0.0731394 0)
(-0.354689 0.0631377 0)
(-0.356287 0.0529705 0)
(-0.357685 0.0426576 0)
(-0.358912 0.0322143 0)
(-0.359992 0.0216528 0)
(-0.360949 0.0109824 0)
(-0.361803 0.00020888 0)
(-0.362565 -0.0106649 0)
(-0.363247 -0.0216329 0)
(-0.363856 -0.0326934 0)
(-0.364396 -0.0438435 0)
(-0.364862 -0.0550798 0)
(-0.365245 -0.0663968 0)
(-0.36553 -0.0777861 0)
(-0.276161 0.1855 0)
(-0.284771 0.182596 0)
(-0.292729 0.178781 0)
(-0.30003 0.174113 0)
(-0.306683 0.168656 0)
(-0.312703 0.162476 0)
(-0.318114 0.155641 0)
(-0.322945 0.14822 0)
(-0.327231 0.140279 0)
(-0.331012 0.131882 0)
(-0.33433 0.123088 0)
(-0.337228 0.113952 0)
(-0.33975 0.104523 0)
(-0.341938 0.094844 0)
(-0.343833 0.0849536 0)
(-0.345476 0.0748831 0)
(-0.346903 0.064659 0)
(-0.348148 0.0543024 0)
(-0.349243 0.04383 0)
(-0.350214 0.0332542 0)
(-0.351088 0.0225839 0)
(-0.351886 0.0118246 0)
(-0.352628 0.000979473 0)
(-0.353329 -0.00994942 0)
(-0.353999 -0.020964 0)
(-0.354649 -0.0320653 0)
(-0.355285 -0.043255 0)
(-0.355906 -0.0545346 0)
(-0.35651 -0.0659045 0)
(-0.357085 -0.0773631 0)
(-0.276989 0.194078 0)
(-0.284858 0.190511 0)
(-0.292052 0.186031 0)
(-0.298576 0.180705 0)
(-0.304447 0.174605 0)
(-0.30969 0.167806 0)
(-0.314338 0.160383 0)
(-0.318429 0.152411 0)
(-0.322005 0.14396 0)
(-0.32511 0.135096 0)
(-0.327793 0.12588 0)
(-0.330099 0.116368 0)
(-0.332075 0.106607 0)
(-0.333765 0.0966394 0)
(-0.33521 0.0865008 0)
(-0.33645 0.0762202 0)
(-0.337521 0.0658212 0)
(-0.338454 0.0553219 0)
(-0.33928 0.0447359 0)
(-0.340025 0.0340725 0)
(-0.340712 0.0233375 0)
(-0.341363 0.0125334 0)
(-0.341995 0.00166088 0)
(-0.342624 -0.00928124 0)
(-0.343261 -0.0202976 0)
(-0.343918 -0.0313925 0)
(-0.344602 -0.0425713 0)
(-0.345316 -0.0538394 0)
(-0.346061 -0.065202 0)
(-0.346835 -0.0766629 0)
(-0.276086 0.201909 0)
(-0.283185 0.197657 0)
(-0.289595 0.192499 0)
(-0.295335 0.18651 0)
(-0.300429 0.179774 0)
(-0.304912 0.172372 0)
(-0.308825 0.164385 0)
(-0.312212 0.155892 0)
(-0.315123 0.146968 0)
(-0.317606 0.137678 0)
(-0.319712 0.128086 0)
(-0.321489 0.118243 0)
(-0.322983 0.108198 0)
(-0.32424 0.0979895 0)
(-0.325298 0.0876496 0)
(-0.326196 0.0772044 0)
(-0.326967 0.0666741 0)
(-0.327641 0.0560735 0)
(-0.328245 0.045413 0)
(-0.328802 0.0346991 0)
(-0.329334 0.0239346 0)
(-0.329859 0.0131197 0)
(-0.330394 0.00225244 0)
(-0.330951 -0.00867092 0)
(-0.331545 -0.0196566 0)
(-0.332185 -0.0307113 0)
(-0.33288 -0.041843 0)
(-0.333636 -0.05306 0)
(-0.334458 -0.0643708 0)
(-0.335347 -0.0757834 0)
(-0.273568 0.208969 0)
(-0.27989 0.204022 0)
(-0.285523 0.198184 0)
(-0.290495 0.191542 0)
(-0.294841 0.184187 0)
(-0.298604 0.176208 0)
(-0.301831 0.16769 0)
(-0.304573 0.158717 0)
(-0.306883 0.149362 0)
(-0.308814 0.139694 0)
(-0.310417 0.129772 0)
(-0.311741 0.119649 0)
(-0.31283 0.109368 0)
(-0.313729 0.0989647 0)
(-0.314473 0.0884678 0)
(-0.315098 0.0778996 0)
(-0.315634 0.0672766 0)
(-0.316107 0.0566103 0)
(-0.31654 0.0459077 0)
(-0.316955 0.0351724 0)
(-0.317368 0.024405 0)
(-0.317795 0.0136036 0)
(-0.318251 0.00276411 0)
(-0.318747 -0.00811895 0)
(-0.319295 -0.0190529 0)
(-0.319906 -0.0300462 0)
(-0.320587 -0.041108 0)
(-0.321349 -0.0522484 0)
(-0.322196 -0.0634781 0)
(-0.323134 -0.074808 0)
(-0.269578 0.215258 0)
(-0.275138 0.209616 0)
(-0.280021 0.203109 0)
(-0.284264 0.195834 0)
(-0.287911 0.187889 0)
(-0.291012 0.179368 0)
(-0.29362 0.170362 0)
(-0.295791 0.160953 0)
(-0.29758 0.151218 0)
(-0.299041 0.141221 0)
(-0.300224 0.131021 0)
(-0.301177 0.120666 0)
(-0.301944 0.110196 0)
(-0.302563 0.0996416 0)
(-0.303069 0.0890284 0)
(-0.303492 0.0783743 0)
(-0.303858 0.0676917 0)
(-0.304189 0.0569887 0)
(-0.304505 0.0462695 0)
(-0.304822 0.0355349 0)
(-0.305155 0.0247833 0)
(-0.305515 0.0140112 0)
(-0.305916 0.0032131 0)
(-0.306365 -0.00761764 0)
(-0.306875 -0.0184891 0)
(-0.307452 -0.0294102 0)
(-0.308107 -0.0403909 0)
(-0.308849 -0.051442 0)
(-0.309685 -0.0625753 0)
(-0.310623 -0.0738031 0)
(-0.264279 0.220795 0)
(-0.269111 0.214469 0)
(-0.273289 0.207316 0)
(-0.276858 0.199439 0)
(-0.279872 0.190942 0)
(-0.282383 0.181925 0)
(-0.284452 0.172478 0)
(-0.286135 0.162685 0)
(-0.287488 0.15262 0)
(-0.288565 0.142346 0)
(-0.289414 0.131917 0)
(-0.290082 0.121377 0)
(-0.290607 0.110762 0)
(-0.291024 0.100097 0)
(-0.291365 0.0894041 0)
(-0.291653 0.0786956 0)
(-0.291911 0.0679808 0)
(-0.292156 0.0572643 0)
(-0.292405 0.0465473 0)
(-0.292668 0.0358286 0)
(-0.292958 0.0251048 0)
(-0.293283 0.0143707 0)
(-0.293653 0.00362025 0)
(-0.294074 -0.00715393 0)
(-0.294555 -0.0179601 0)
(-0.295103 -0.0288071 0)
(-0.295727 -0.0397051 0)
(-0.296436 -0.0506646 0)
(-0.297238 -0.0616974 0)
(-0.298142 -0.0728163 0)
(-0.257843 0.225615 0)
(-0.261996 0.21863 0)
(-0.265528 0.210863 0)
(-0.268493 0.202424 0)
(-0.270948 0.193421 0)
(-0.272952 0.183957 0)
(-0.274565 0.174121 0)
(-0.275846 0.163997 0)
(-0.276851 0.153655 0)
(-0.27763 0.143155 0)
(-0.278231 0.132546 0)
(-0.278693 0.121865 0)
(-0.279053 0.111145 0)
(-0.27934 0.100405 0)
(-0.279581 0.0896625 0)
(-0.279795 0.0789258 0)
(-0.28 0.0682003 0)
(-0.28021 0.0574875 0)
(-0.280434 0.046786 0)
(-0.280683 0.0360927 0)
(-0.280963 0.0254025 0)
(-0.281282 0.0147096 0)
(-0.281643 0.00400729 0)
(-0.282054 -0.00671199 0)
(-0.28252 -0.0174562 0)
(-0.283047 -0.0282339 0)
(-0.283643 -0.0390544 0)
(-0.284315 -0.0499277 0)
(-0.285072 -0.0608649 0)
(-0.285924 -0.071878 0)
(-0.250445 0.22977 0)
(-0.25398 0.22216 0)
(-0.256936 0.21382 0)
(-0.259372 0.204866 0)
(-0.261349 0.195408 0)
(-0.262929 0.185549 0)
(-0.264173 0.17538 0)
(-0.265138 0.164978 0)
(-0.265879 0.154411 0)
(-0.266442 0.143732 0)
(-0.26687 0.132986 0)
(-0.2672 0.122205 0)
(-0.267462 0.111414 0)
(-0.267682 0.10063 0)
(-0.26788 0.089863 0)
(-0.268072 0.0791187 0)
(-0.26827 0.0683986 0)
(-0.268484 0.0577014 0)
(-0.268722 0.0470236 0)
(-0.268987 0.0363603 0)
(-0.269286 0.0257054 0)
(-0.269621 0.0150525 0)
(-0.269996 0.00439465 0)
(-0.270413 -0.00627546 0)
(-0.270878 -0.0169653 0)
(-0.271395 -0.0276826 0)
(-0.271969 -0.0384358 0)
(-0.272607 -0.0492336 0)
(-0.273319 -0.0600859 0)
(-0.274112 -0.0710037 0)
(-0.242254 0.233321 0)
(-0.24524 0.225128 0)
(-0.247695 0.216262 0)
(-0.249681 0.206844 0)
(-0.251262 0.196986 0)
(-0.252501 0.186788 0)
(-0.253458 0.176337 0)
(-0.254188 0.165709 0)
(-0.25474 0.154964 0)
(-0.25516 0.144152 0)
(-0.255484 0.133308 0)
(-0.255744 0.122462 0)
(-0.255966 0.11163 0)
(-0.256169 0.100826 0)
(-0.256371 0.0900547 0)
(-0.256581 0.0793182 0)
(-0.256809 0.0686147 0)
(-0.25706 0.0579406 0)
(-0.257337 0.0472905 0)
(-0.257645 0.0366581 0)
(-0.257983 0.0260368 0)
(-0.258354 0.0154198 0)
(-0.258758 0.00480002 0)
(-0.259197 -0.00582917 0)
(-0.259674 -0.0164746 0)
(-0.23343 0.236337 0)
(-0.235939 0.227608 0)
(-0.237969 0.218268 0)
(-0.239584 0.20844 0)
(-0.240848 0.198235 0)
(-0.241824 0.187751 0)
(-0.242569 0.177072 0)
(-0.243134 0.166265 0)
(-0.243567 0.155387 0)
(-0.243905 0.14448 0)
(-0.244182 0.133573 0)
(-0.244423 0.12269 0)
(-0.24465 0.111842 0)
(-0.244878 0.101037 0)
(-0.245117 0.0902758 0)
(-0.245376 0.0795577 0)
(-0.24566 0.0688779 0)
(-0.24597 0.0582306 0)
(-0.246308 0.0476089 0)
(-0.246673 0.0370058 0)
(-0.247066 0.0264141 0)
(-0.247486 0.0158268 0)
(-0.247932 0.00523747 0)
(-0.248404 -0.0053602 0)
(-0.248904 -0.0159721 0)
(-0.224118 0.238888 0)
(-0.226223 0.229674 0)
(-0.227902 0.219913 0)
(-0.22922 0.20973 0)
(-0.23024 0.199232 0)
(-0.231023 0.188513 0)
(-0.231622 0.177652 0)
(-0.232086 0.166711 0)
(-0.232454 0.155738 0)
(-0.232762 0.144769 0)
(-0.233037 0.133829 0)
(-0.233299 0.122932 0)
(-0.233565 0.112086 0)
(-0.233845 0.101294 0)
(-0.234147 0.0905537 0)
(-0.234475 0.0798606 0)
(-0.234831 0.0692079 0)
(-0.235215 0.0585881 0)
(-0.235624 0.0479934 0)
(-0.236059 0.037416 0)
(-0.236515 0.0268486 0)
(-0.236992 0.0162843 0)
(-0.237488 0.00571716 0)
(-0.238002 -0.00485849 0)
(-0.238533 -0.0154476 0)
(-0.214445 0.241045 0)
(-0.216216 0.231398 0)
(-0.217613 0.22127 0)
(-0.218702 0.210784 0)
(-0.219544 0.200044 0)
(-0.220195 0.189138 0)
(-0.220705 0.178138 0)
(-0.221117 0.167101 0)
(-0.221467 0.156066 0)
(-0.221784 0.145064 0)
(-0.222089 0.134111 0)
(-0.222401 0.123218 0)
(-0.222729 0.112388 0)
(-0.223081 0.101619 0)
(-0.223461 0.0909061 0)
(-0.22387 0.0802412 0)
(-0.224307 0.0696163 0)
(-0.224771 0.0590227 0)
(-0.225258 0.0484518 0)
(-0.225765 0.0378955 0)
(-0.22629 0.0273465 0)
(-0.226828 0.0167984 0)
(-0.227378 0.00624547 0)
(-0.227938 -0.00431703 0)
(-0.228506 -0.0148933 0)
(-0.204522 0.242875 0)
(-0.206023 0.232847 0)
(-0.207202 0.222405 0)
(-0.208121 0.211665 0)
(-0.20884 0.200729 0)
(-0.20941 0.189678 0)
(-0.209877 0.178577 0)
(-0.210278 0.167476 0)
(-0.210643 0.156407 0)
(-0.210998 0.145393 0)
(-0.211358 0.134446 0)
(-0.211737 0.123571 0)
(-0.212141 0.112766 0)
(-0.212576 0.102026 0)
(-0.21304 0.0913421 0)
(-0.213535 0.080706 0)
(-0.214056 0.0701077 0)
(-0.214601 0.0595375 0)
(-0.215165 0.0489863 0)
(-0.215745 0.0384461 0)
(-0.216337 0.0279097 0)
(-0.216937 0.0173712 0)
(-0.217542 0.00682547 0)
(-0.21815 -0.00373162 0)
(-0.21876 -0.0143034 0)
(-0.194439 0.24444 0)
(-0.195728 0.234083 0)
(-0.196744 0.223374 0)
(-0.197546 0.212427 0)
(-0.198188 0.201336 0)
(-0.198719 0.190177 0)
(-0.199177 0.179008 0)
(-0.199596 0.167868 0)
(-0.200002 0.156787 0)
(-0.200413 0.145779 0)
(-0.200842 0.13485 0)
(-0.201298 0.124001 0)
(-0.201786 0.113226 0)
(-0.202305 0.102518 0)
(-0.202855 0.0918642 0)
(-0.203434 0.0812557 0)
(-0.204037 0.0706812 0)
(-0.204659 0.0601306 0)
(-0.205297 0.0495947 0)
(-0.205946 0.0390656 0)
(-0.206602 0.0285366 0)
(-0.207261 0.018002 0)
(-0.20792 0.00745744 0)
(-0.208576 -0.00310056 0)
(-0.209228 -0.0136746 0)
(-0.18427 0.245796 0)
(-0.185398 0.235157 0)
(-0.186297 0.224227 0)
(-0.187024 0.213113 0)
(-0.187627 0.201904 0)
(-0.188149 0.190669 0)
(-0.188626 0.179457 0)
(-0.189084 0.168301 0)
(-0.189546 0.157224 0)
(-0.190024 0.146233 0)
(-0.190529 0.135331 0)
(-0.191066 0.124514 0)
(-0.191636 0.113772 0)
(-0.192238 0.103094 0)
(-0.19287 0.0924697 0)
(-0.193527 0.081886 0)
(-0.194206 0.0713318 0)
(-0.1949 0.0607968 0)
(-0.195605 0.0502719 0)
(-0.196317 0.0397494 0)
(-0.197031 0.029223 0)
(-0.197744 0.0186877 0)
(-0.198454 0.00813957 0)
(-0.199157 -0.00242415 0)
(-0.174072 0.246992 0)
(-0.175083 0.236115 0)
(-0.175904 0.225003 0)
(-0.176589 0.213759 0)
(-0.177181 0.202464 0)
(-0.177718 0.191178 0)
(-0.178231 0.179943 0)
(-0.178741 0.168788 0)
(-0.179266 0.157726 0)
(-0.179817 0.146762 0)
(-0.180398 0.135891 0)
(-0.181014 0.125107 0)
(-0.181662 0.114398 0)
(-0.182342 0.103751 0)
(-0.183048 0.0931522 0)
(-0.183776 0.0825899 0)
(-0.184521 0.0720521 0)
(-0.185278 0.0615286 0)
(-0.186042 0.0510106 0)
(-0.18681 0.0404907 0)
(-0.187576 0.0299632 0)
(-0.188339 0.0194236 0)
(-0.189094 0.00886861 0)
(-0.18984 -0.00170418 0)
(-0.163889 0.248068 0)
(-0.164817 0.236993 0)
(-0.165592 0.225736 0)
(-0.166261 0.214392 0)
(-0.166863 0.203036 0)
(-0.16743 0.19172 0)
(-0.16799 0.18048 0)
(-0.168558 0.169337 0)
(-0.16915 0.158298 0)
(-0.169771 0.147364 0)
(-0.170425 0.136527 0)
(-0.171114 0.125777 0)
(-0.171833 0.115098 0)
(-0.172581 0.104478 0)
(-0.173352 0.0939028 0)
(-0.174141 0.0833581 0)
(-0.174944 0.072833 0)
(-0.175755 0.0623173 0)
(-0.17657 0.0518026 0)
(-0.177385 0.0412823 0)
(-0.178196 0.0307509 0)
(-0.153753 0.249059 0)
(-0.154627 0.237821 0)
(-0.155378 0.226449 0)
(-0.156049 0.215032 0)
(-0.156675 0.203635 0)
(-0.157282 0.192305 0)
(-0.157893 0.181072 0)
(-0.158521 0.169948 0)
(-0.159177 0.158938 0)
(-0.159865 0.148037 0)
(-0.160585 0.137233 0)
(-0.161338 0.126514 0)
(-0.16212 0.115864 0)
(-0.162926 0.105268 0)
(-0.163751 0.0947115 0)
(-0.164592 0.0841808 0)
(-0.165442 0.0736647 0)
(-0.166297 0.0631536 0)
(-0.167154 0.0526395 0)
(-0.168008 0.0421163 0)
(-0.168857 0.0315792 0)
(-0.143684 0.249991 0)
(-0.144526 0.238622 0)
(-0.145271 0.227161 0)
(-0.145957 0.21569 0)
(-0.146614 0.20427 0)
(-0.147265 0.192938 0)
(-0.147928 0.181719 0)
(-0.148614 0.17062 0)
(-0.149328 0.159641 0)
(-0.150075 0.148772 0)
(-0.150853 0.138 0)
(-0.151661 0.12731 0)
(-0.152494 0.116685 0)
(-0.153348 0.106109 0)
(-0.154217 0.0955678 0)
(-0.155098 0.0850476 0)
(-0.155986 0.0745376 0)
(-0.156877 0.0640285 0)
(-0.157767 0.053513 0)
(-0.158653 0.0429854 0)
(-0.159533 0.0324416 0)
(-0.133696 0.250886 0)
(-0.134521 0.239411 0)
(-0.135272 0.227882 0)
(-0.135981 0.216376 0)
(-0.136673 0.204944 0)
(-0.137368 0.193619 0)
(-0.13808 0.182419 0)
(-0.138817 0.171348 0)
(-0.139584 0.160399 0)
(-0.140381 0.149561 0)
(-0.141207 0.138818 0)
(-0.142059 0.128154 0)
(-0.142933 0.11755 0)
(-0.143824 0.106991 0)
(-0.144727 0.0964615 0)
(-0.145639 0.0859489 0)
(-0.146556 0.0754424 0)
(-0.147473 0.0649334 0)
(-0.148388 0.0544152 0)
(-0.1493 0.0438827 0)
(-0.150205 0.0333319 0)
(-0.123796 0.251759 0)
(-0.124616 0.2402 0)
(-0.125379 0.228622 0)
(-0.126114 0.217092 0)
(-0.126841 0.205657 0)
(-0.127577 0.194345 0)
(-0.128333 0.183168 0)
(-0.129114 0.172123 0)
(-0.129924 0.161204 0)
(-0.130762 0.150394 0)
(-0.131626 0.139677 0)
(-0.132512 0.129035 0)
(-0.133416 0.118449 0)
(-0.134334 0.107903 0)
(-0.135262 0.0973829 0)
(-0.136196 0.0868754 0)
(-0.137133 0.0763707 0)
(-0.138069 0.0658608 0)
(-0.139003 0.0553393 0)
(-0.139933 0.0448018 0)
(-0.140858 0.0342449 0)
(-0.113986 0.252621 0)
(-0.114808 0.240997 0)
(-0.115587 0.229381 0)
(-0.116347 0.217838 0)
(-0.117107 0.206407 0)
(-0.117879 0.195111 0)
(-0.118672 0.183956 0)
(-0.11949 0.172938 0)
(-0.120333 0.162046 0)
(-0.121202 0.151261 0)
(-0.122093 0.140567 0)
(-0.123003 0.129943 0)
(-0.123928 0.119372 0)
(-0.124864 0.108837 0)
(-0.125808 0.0983231 0)
(-0.126756 0.0878191 0)
(-0.127705 0.0773151 0)
(-0.128654 0.0668037 0)
(-0.129601 0.0562792 0)
(-0.130545 0.0457375 0)
(-0.131484 0.0351755 0)
(-0.104266 0.253478 0)
(-0.105093 0.241803 0)
(-0.105888 0.230162 0)
(-0.106672 0.218612 0)
(-0.107459 0.207189 0)
(-0.108261 0.19591 0)
(-0.109083 0.184777 0)
(-0.109928 0.173784 0)
(-0.110796 0.162915 0)
(-0.111686 0.152153 0)
(-0.112595 0.141478 0)
(-0.11352 0.130869 0)
(-0.114456 0.12031 0)
(-0.115402 0.109783 0)