/*--------------------------------*- C++ -*----------------------------------*\
  =========                 |
  \\      /  F ield         | OpenFOAM: The Open Source CFD Toolbox
   \\    /   O peration     | Website:  https://openfoam.org
    \\  /    A nd           | Version:  9
     \\/     M anipulation  |
\*---------------------------------------------------------------------------*/
FoamFile
{
    format      ascii;
    class       surfaceScalarField;
    location    "1.75";
    object      phi;
}
// * * * * * * * * * * * * * * * * * * * * * * * * * * * * * * * * * * * * * //

dimensions      [0 3 -1 0 0 0 0];

internalField   nonuniform List<scalar> 
2422
(
-5.49206e-09
2.47857e-07
6.54163e-07
-4.58278e-09
2.5244e-07
-1.8415e-08
6.67995e-07
-4.116e-08
1.00487e-06
-7.199e-08
1.27546e-06
-1.09733e-07
1.49337e-06
-1.53078e-07
1.67225e-06
-2.00753e-07
1.82446e-06
-2.51632e-07
1.96018e-06
-3.04782e-07
2.08686e-06
-3.59445e-07
2.20926e-06
-4.15003e-07
2.32967e-06
-4.70921e-07
2.44848e-06
-5.26709e-07
2.56465e-06
-5.81885e-07
2.67628e-06
-6.3596e-07
2.78101e-06
-6.88441e-07
2.87631e-06
-7.38841e-07
2.95978e-06
-7.86698e-07
3.02923e-06
-8.31595e-07
3.08287e-06
-8.73187e-07
3.11937e-06
-9.11218e-07
3.13793e-06
-9.45539e-07
3.13829e-06
-9.76118e-07
3.12075e-06
-1.00304e-06
3.08615e-06
-1.02651e-06
3.03578e-06
-1.04681e-06
2.9713e-06
-1.06433e-06
2.89462e-06
-1.07949e-06
2.80779e-06
-1.09276e-06
2.71289e-06
-1.1046e-06
2.61191e-06
-1.11546e-06
2.50665e-06
-1.12573e-06
2.39865e-06
-1.13577e-06
2.28919e-06
2.17922e-06
-3.64099e-09
2.5608e-07
-1.52633e-08
6.79617e-07
-3.50238e-08
1.02463e-06
-6.24594e-08
1.30289e-06
-9.663e-08
1.52754e-06
-1.36345e-07
1.71196e-06
-1.80367e-07
1.86848e-06
-2.27559e-07
2.00737e-06
-2.76946e-07
2.13625e-06
-3.27734e-07
2.26004e-06
-3.79273e-07
2.38121e-06
-4.3102e-07
2.50023e-06
-4.8249e-07
2.61612e-06
-5.33223e-07
2.72702e-06
-5.8277e-07
2.83055e-06
-6.30686e-07
2.92423e-06
-6.7654e-07
3.00563e-06
-7.19928e-07
3.07262e-06
-7.605e-07
3.12344e-06
-7.97971e-07
3.15684e-06
-8.32144e-07
3.1721e-06
-8.62922e-07
3.16906e-06
-8.90316e-07
3.14814e-06
-9.14441e-07
3.11028e-06
-9.35512e-07
3.05685e-06
-9.53829e-07
2.98961e-06
-9.69755e-07
2.91054e-06
-9.83698e-07
2.82173e-06
-9.96087e-07
2.72528e-06
-1.00734e-06
2.62317e-06
-1.01786e-06
2.51716e-06
-1.02799e-06
2.40878e-06
-1.03803e-06
2.29923e-06
-1.04823e-06
2.18942e-06
-1.05875e-06
2.07994e-06
-1.06971e-06
1.97117e-06
-1.08117e-06
1.8632e-06
-1.09313e-06
1.756e-06
-1.10556e-06
1.6494e-06
-1.1184e-06
1.54314e-06
-1.13156e-06
1.43693e-06
-1.14495e-06
1.3305e-06
1.22357e-06
-2.68119e-09
2.58762e-07
-1.20186e-08
6.88955e-07
-2.86676e-08
1.04128e-06
-5.25391e-08
1.32676e-06
-8.29417e-08
1.55794e-06
-1.18821e-07
1.74784e-06
-1.5899e-07
1.90865e-06
-2.02305e-07
2.05068e-06
-2.4776e-07
2.1817e-06
-2.94523e-07
2.30681e-06
-3.41919e-07
2.42861e-06
-3.89394e-07
2.5477e-06
-4.3647e-07
2.6632e-06
-4.82715e-07
2.77326e-06
-5.27719e-07
2.87556e-06
-5.71086e-07
2.96759e-06
-6.12442e-07
3.04698e-06
-6.51447e-07
3.11162e-06
-6.87809e-07
3.1598e-06
-7.21304e-07
3.19034e-06
-7.51789e-07
3.20259e-06
-7.79214e-07
3.19649e-06
-8.03622e-07
3.17255e-06
-8.25153e-07
3.13181e-06
-8.44028e-07
3.07573e-06
-8.60542e-07
3.00613e-06
-8.75041e-07
2.92504e-06
-8.87902e-07
2.8346e-06
-8.99514e-07
2.73689e-06
-9.1025e-07
2.6339e-06
-9.20458e-07
2.52737e-06
-9.3044e-07
2.41877e-06
-9.40449e-07
2.30924e-06
-9.50681e-07
2.19965e-06
-9.61276e-07
2.09054e-06
-9.72311e-07
1.9822e-06
-9.83822e-07
1.87471e-06
-9.95801e-07
1.76798e-06
-1.00821e-06
1.66181e-06
-1.02098e-06
1.55591e-06
-1.03404e-06
1.44999e-06
-1.04728e-06
1.34375e-06
-1.06064e-06
1.23692e-06
-1.074e-06
1.12929e-06
-1.0873e-06
1.02068e-06
-1.10046e-06
9.10986e-07
-1.11341e-06
8.00145e-07
-1.12609e-06
6.88151e-07
5.75029e-07
-1.71362e-09
2.60475e-07
-8.71766e-09
6.95959e-07
-2.21551e-08
1.05471e-06
-4.23191e-08
1.34693e-06
-6.87812e-08
1.5844e-06
-1.0064e-07
1.7797e-06
-1.36773e-07
1.94479e-06
-1.76041e-07
2.08995e-06
-2.17414e-07
2.22308e-06
-2.60024e-07
2.34942e-06
-3.03172e-07
2.47176e-06
-3.46294e-07
2.59082e-06
-3.88923e-07
2.70583e-06
-4.30652e-07
2.81499e-06
-4.71112e-07
2.91602e-06
-5.0996e-07
3.00644e-06
-5.46877e-07
3.0839e-06
-5.81585e-07
3.14633e-06
-6.13852e-07
3.19207e-06
-6.43509e-07
3.22e-06
-6.70463e-07
3.22954e-06
-6.94703e-07
3.22073e-06
-7.16301e-07
3.19415e-06
-7.35411e-07
3.15092e-06
-7.52256e-07
3.09257e-06
-7.67116e-07
3.02099e-06
-7.80314e-07
2.93824e-06
-7.92191e-07
2.84647e-06
-8.03092e-07
2.74779e-06
-8.13344e-07
2.64416e-06
-8.23242e-07
2.53727e-06
-8.33044e-07
2.42857e-06
-8.42956e-07
2.31915e-06
-8.53134e-07
2.20983e-06
-8.63684e-07
2.10109e-06
-8.74664e-07
1.99318e-06
-8.86089e-07
1.88614e-06
-8.97942e-07
1.77984e-06
-9.10178e-07
1.67404e-06
-9.22735e-07
1.56846e-06
-9.35538e-07
1.46279e-06
-9.48509e-07
1.35672e-06
-9.61566e-07
1.24998e-06
-9.74636e-07
1.14236e-06
-9.87645e-07
1.03369e-06
-1.00053e-06
9.23872e-07
-1.01324e-06
8.12857e-07
-1.02574e-06
7.00645e-07
5.87272e-07
-7.51255e-10
2.61227e-07
-5.38998e-09
7.00598e-07
-1.5544e-08
1.06487e-06
-3.18856e-08
1.36327e-06
-5.42608e-08
1.60678e-06
-8.19372e-08
1.80737e-06
-1.13873e-07
1.97672e-06
-1.48944e-07
2.12502e-06
-1.86103e-07
2.26023e-06
-2.24452e-07
2.38777e-06
-2.63267e-07
2.51057e-06
-3.01976e-07
2.62953e-06
-3.40121e-07
2.74397e-06
-3.77322e-07
2.85219e-06
-4.13252e-07
2.95195e-06
-4.47618e-07
3.04081e-06
-4.8016e-07
3.11644e-06
-5.10657e-07
3.17683e-06
-5.38936e-07
3.22035e-06
-5.6488e-07
3.24594e-06
-5.88442e-07
3.2531e-06
-6.09644e-07
3.24193e-06
-6.28579e-07
3.21309e-06
-6.4541e-07
3.16775e-06
-6.60354e-07
3.10752e-06
-6.73673e-07
3.03431e-06
-6.8566e-07
2.95023e-06
-6.96616e-07
2.85743e-06
-7.06841e-07
2.75802e-06
-7.16612e-07
2.65393e-06
-7.26178e-07
2.54684e-06
-7.35747e-07
2.43814e-06
-7.45485e-07
2.32889e-06
-7.55513e-07
2.21986e-06
-7.65907e-07
2.11148e-06
-7.76705e-07
2.00398e-06
-7.8791e-07
1.89734e-06
-7.99497e-07
1.79142e-06
-8.11424e-07
1.68597e-06
-8.23632e-07
1.58067e-06
-8.36054e-07
1.47521e-06
-8.48623e-07
1.36929e-06
-8.61272e-07
1.26263e-06
-8.73937e-07
1.15502e-06
-8.86562e-07
1.04631e-06
-8.99097e-07
9.36408e-07
-9.11502e-07
8.25262e-07
-9.23744e-07
7.12887e-07
5.99324e-07
2.17055e-10
2.61009e-07
-2.0599e-09
7.02875e-07
-8.89095e-09
1.0717e-06
-2.13248e-08
1.3757e-06
-3.94926e-08
1.62495e-06
-6.28488e-08
1.83073e-06
-9.04462e-08
2.00432e-06
-1.2119e-07
2.15577e-06
-1.54022e-07
2.29307e-06
-1.88019e-07
2.42176e-06
-2.22434e-07
2.54499e-06
-2.56687e-07
2.66379e-06
-2.90328e-07
2.77761e-06
-3.23005e-07
2.88487e-06
-3.54428e-07
2.98337e-06
-3.84357e-07
3.07074e-06
-4.12588e-07
3.14468e-06
-4.38958e-07
3.20319e-06
-4.63347e-07
3.24474e-06
-4.8569e-07
3.26828e-06
-5.05978e-07
3.27339e-06
-5.24262e-07
3.26021e-06
-5.40653e-07
3.22948e-06
-5.55315e-07
3.18241e-06
-5.68455e-07
3.12066e-06
-5.80313e-07
3.04617e-06
-5.91145e-07
2.96106e-06
-6.01213e-07
2.8675e-06
-6.10768e-07
2.76757e-06
-6.20041e-07
2.6632e-06
-6.2923e-07
2.55603e-06
-6.38501e-07
2.44741e-06
-6.4798e-07
2.33837e-06
-6.57756e-07
2.22963e-06
-6.67881e-07
2.12161e-06
-6.78376e-07
2.01447e-06
-6.89235e-07
1.9082e-06
-7.00431e-07
1.80262e-06
-7.11923e-07
1.69746e-06
-7.2366e-07
1.59241e-06
-7.35587e-07
1.48714e-06
-7.47647e-07
1.38135e-06
-7.59788e-07
1.27477e-06
-7.7196e-07
1.16719e-06
-7.84121e-07
1.05848e-06
-7.96235e-07
9.48521e-07
-8.0827e-07
8.37298e-07
-8.20204e-07
7.24821e-07
6.11138e-07
1.14804e-09
2.59861e-07
1.23186e-09
7.02791e-07
-2.24931e-09
1.07518e-06
-1.07261e-08
1.38418e-06
-2.45894e-08
1.63881e-06
-4.35121e-08
1.84965e-06
-6.66518e-08
2.02746e-06
-9.29562e-08
2.18207e-06
-1.21365e-07
2.32148e-06
-1.50937e-07
2.45134e-06
-1.80903e-07
2.57496e-06
-2.10672e-07
2.69355e-06
-2.39803e-07
2.80674e-06
-2.67967e-07
2.91303e-06
-2.94916e-07
3.01032e-06
-3.20457e-07
3.09628e-06
-3.44442e-07
3.16866e-06
-3.66761e-07
3.22551e-06
-3.87348e-07
3.26533e-06
-4.06184e-07
3.28712e-06
-4.23296e-07
3.2905e-06
-4.38759e-07
3.27568e-06
-4.52696e-07
3.24341e-06
-4.6527e-07
3.19498e-06
-4.76672e-07
3.13206e-06
-4.87115e-07
3.05661e-06
-4.96821e-07
2.97076e-06
-5.06007e-07
2.87668e-06
-5.14877e-07
2.77644e-06
-5.23613e-07
2.67193e-06
-5.32368e-07
2.56478e-06
-5.41267e-07
2.45631e-06
-5.50398e-07
2.3475e-06
-5.59821e-07
2.23905e-06
-5.69569e-07
2.13135e-06
-5.79647e-07
2.02455e-06
-5.90044e-07
1.9186e-06
-6.00734e-07
1.81331e-06
-6.11678e-07
1.70841e-06
-6.22838e-07
1.60357e-06
-6.34167e-07
1.49847e-06
-6.45626e-07
1.39281e-06
-6.57174e-07
1.28632e-06
-6.68777e-07
1.1788e-06
-6.80405e-07
1.0701e-06
-6.92035e-07
9.60151e-07
-7.03646e-07
8.48909e-07
-7.15224e-07
7.36399e-07
6.22671e-07
2.05674e-09
2.57805e-07
4.45196e-09
7.00396e-07
4.31224e-09
1.07532e-06
-1.35148e-10
1.38863e-06
-9.66091e-09
1.64834e-06
-2.40657e-08
1.86406e-06
-4.26489e-08
2.04604e-06
-6.44198e-08
2.20384e-06
-8.83276e-08
2.34538e-06
-1.13415e-07
2.47642e-06
-1.38895e-07
2.60044e-06
-1.64167e-07
2.71883e-06
-1.88793e-07
2.83137e-06
-2.12469e-07
2.93671e-06
-2.34981e-07
3.03283e-06
-2.56185e-07
3.11748e-06
-2.75984e-07
3.18846e-06
-2.94322e-07
3.24385e-06
-3.11184e-07
3.28219e-06
-3.2659e-07
3.30253e-06
-3.40602e-07
3.30451e-06
-3.53316e-07
3.28839e-06
-3.64863e-07
3.25496e-06
-3.75399e-07
3.20552e-06
-3.851e-07
3.14176e-06
-3.9415e-07
3.06566e-06
-4.02731e-07
2.97935e-06
-4.11018e-07
2.88497e-06
-4.19168e-07
2.78459e-06
-4.27316e-07
2.68008e-06
-4.35571e-07
2.57304e-06
-4.44017e-07
2.46475e-06
-4.5271e-07
2.3562e-06
-4.61683e-07
2.24803e-06
-4.70951e-07
2.14062e-06
-4.80508e-07
2.03411e-06
-4.90339e-07
1.92843e-06
-5.00419e-07
1.82339e-06
-5.10718e-07
1.71871e-06
-5.21206e-07
1.61406e-06
-5.31852e-07
1.50911e-06
-5.42628e-07
1.40358e-06
-5.5351e-07
1.2972e-06
-5.64476e-07
1.18976e-06
-5.75512e-07
1.08114e-06
-5.86604e-07
9.71243e-07
-5.97743e-07
8.60048e-07
-6.08923e-07
7.47578e-07
6.33887e-07
2.92859e-09
2.54876e-07
7.58468e-09
6.95739e-07
1.07338e-08
1.07217e-06
1.02537e-08
1.38911e-06
5.15949e-09
1.65343e-06
-4.64925e-09
1.87387e-06
-1.85979e-08
2.05999e-06
-3.57588e-08
2.221e-06
-5.51018e-08
2.36473e-06
-7.56617e-08
2.49698e-06
-9.66327e-08
2.62141e-06
-1.17403e-07
2.7396e-06
-1.37541e-07
2.85151e-06
-1.56758e-07
2.95592e-06
-1.74876e-07
3.05095e-06
-1.91794e-07
3.1344e-06
-2.07465e-07
3.20413e-06
-2.21884e-07
3.25827e-06
-2.35081e-07
3.29538e-06
-2.47118e-07
3.31456e-06
-2.58085e-07
3.31548e-06
-2.68098e-07
3.2984e-06
-2.77293e-07
3.26416e-06
-2.85817e-07
3.21404e-06
-2.93828e-07
3.14977e-06
-3.01479e-07
3.07331e-06
-3.08915e-07
2.98678e-06
-3.16268e-07
2.89232e-06
-3.23647e-07
2.79197e-06
-3.31144e-07
2.68758e-06
-3.38825e-07
2.58072e-06
-3.46735e-07
2.47266e-06
-3.54901e-07
2.36436e-06
-3.63332e-07
2.25646e-06
-3.72024e-07
2.14931e-06
-3.80966e-07
2.04305e-06
-3.90138e-07
1.9376e-06
-3.9952e-07
1.83277e-06
-4.0909e-07
1.72827e-06
-4.18827e-07
1.62379e-06
-4.28715e-07
1.519e-06
-4.38739e-07
1.41361e-06
-4.48891e-07
1.30735e-06
-4.59164e-07
1.20004e-06
-4.69556e-07
1.09153e-06
-4.80064e-07
9.81751e-07
-4.90689e-07
8.70673e-07
-5.01431e-07
7.5832e-07
6.4475e-07
3.75691e-09
2.51119e-07
1.05991e-08
6.88897e-07
1.69807e-08
1.06579e-06
2.04701e-08
1.38562e-06
1.97783e-08
1.65412e-06
1.45982e-08
1.87905e-06
5.34402e-09
2.06924e-06
-7.14797e-09
2.23349e-06
-2.1878e-08
2.37946e-06
-3.78805e-08
2.51299e-06
-5.43291e-08
2.63786e-06
-7.06074e-08
2.75587e-06
-8.62801e-08
2.86718e-06
-1.01075e-07
2.97072e-06
-1.14845e-07
3.06472e-06
-1.27527e-07
3.14708e-06
-1.39123e-07
3.21573e-06
-1.49675e-07
3.26882e-06
-1.59257e-07
3.30497e-06
-1.67968e-07
3.32327e-06
-1.75926e-07
3.32344e-06
-1.83262e-07
3.30574e-06
-1.90117e-07
3.27101e-06
-1.9663e-07
3.22056e-06
-2.02937e-07
3.15608e-06
-2.09162e-07
3.07953e-06
-2.15413e-07
2.99303e-06
-2.21778e-07
2.89869e-06
-2.28324e-07
2.79852e-06
-2.35098e-07
2.69435e-06
-2.42125e-07
2.58775e-06
-2.49417e-07
2.47995e-06
-2.56969e-07
2.37191e-06
-2.64771e-07
2.26426e-06
-2.72803e-07
2.15735e-06
-2.81045e-07
2.05129e-06
-2.89479e-07
1.94604e-06
-2.98086e-07
1.84138e-06
-3.06854e-07
1.73704e-06
-3.15773e-07
1.63271e-06
-3.2484e-07
1.52807e-06
-3.34055e-07
1.42282e-06
-3.43424e-07
1.31672e-06
-3.52955e-07
1.20957e-06
-3.62659e-07
1.10123e-06
-3.72542e-07
9.91635e-07
-3.82615e-07
8.80746e-07
-3.92887e-07
7.68592e-07
6.55231e-07
4.53497e-09
2.46584e-07
1.34709e-08
6.79961e-07
2.29955e-08
1.05627e-06
3.03896e-08
1.37822e-06
3.40865e-08
1.65043e-06
3.35469e-08
1.87959e-06
2.90171e-08
2.07377e-06
2.1235e-08
2.24128e-06
1.1156e-08
2.38953e-06
-2.57554e-10
2.5244e-06
-1.21939e-08
2.64979e-06
-2.3998e-08
2.76768e-06
-3.52371e-08
2.87842e-06
-4.56521e-08
2.98113e-06
-5.512e-08
3.07419e-06
-6.36154e-08
3.15558e-06
-7.11853e-08
3.2233e-06
-7.79133e-08
3.27555e-06
-8.39161e-08
3.31097e-06
-8.93282e-08
3.32869e-06
-9.42931e-08
3.3284e-06
-9.89575e-08
3.31041e-06
-1.03463e-07
3.27552e-06
-1.07942e-07
3.22504e-06
-1.1251e-07
3.16065e-06
-1.17261e-07
3.08429e-06
-1.22267e-07
2.99804e-06
-1.27577e-07
2.904e-06
-1.33215e-07
2.80416e-06
-1.39186e-07
2.70032e-06
-1.45478e-07
2.59404e-06
-1.52067e-07
2.48654e-06
-1.58924e-07
2.37877e-06
-1.66016e-07
2.27135e-06
-1.7331e-07
2.16464e-06
-1.80781e-07
2.05876e-06
-1.88407e-07
1.95366e-06
-1.96175e-07
1.84915e-06
-2.04081e-07
1.74495e-06
-2.12127e-07
1.64076e-06
-2.20322e-07
1.53626e-06
-2.2868e-07
1.43118e-06
-2.37224e-07
1.32526e-06
-2.45974e-07
1.21832e-06
-2.54951e-07
-2.64174e-07
-2.73661e-07
-2.83429e-07
5.25665e-09
2.41328e-07
1.61768e-08
6.69041e-07
2.87296e-08
1.04371e-06
3.99394e-08
1.36701e-06
4.79748e-08
1.64239e-06
5.20629e-08
1.8755e-06
5.22705e-08
2.07357e-06
4.92193e-08
2.24433e-06
4.38052e-08
2.39495e-06
3.69702e-08
2.53124e-06
2.95571e-08
2.6572e-06
2.22083e-08
2.77503e-06
1.53669e-08
2.88526e-06
9.2867e-09
2.98722e-06
4.06948e-09
3.0794e-06
-2.94616e-10
3.15994e-06
-3.87767e-09
3.22688e-06
-6.81635e-09
3.27849e-06
-9.26481e-09
3.31342e-06
-1.13898e-08
3.33081e-06
-1.33597e-08
3.33037e-06
-1.5335e-08
3.31238e-06
-1.74609e-08
3.27764e-06
-1.98609e-08
3.22744e-06
-2.26319e-08
3.16342e-06
-2.58419e-08
3.0875e-06
-2.95287e-08
3.00173e-06
-3.3702e-08
2.90817e-06
-3.83468e-08
2.8088e-06
-4.34285e-08
2.70541e-06
-4.88992e-08
2.59951e-06
-5.47038e-08
2.49235e-06
-6.07858e-08
2.38485e-06
-6.70931e-08
2.27766e-06
-7.3581e-08
2.17113e-06
-8.02159e-08
2.0654e-06
-8.69763e-08
1.96042e-06
-9.38531e-08
1.85602e-06
-1.00849e-07
1.75194e-06
-1.07977e-07
1.64789e-06
-1.1526e-07
1.54355e-06
-1.22726e-07
1.43864e-06
-1.30408e-07
1.33294e-06
1.22625e-06
5.91698e-09
2.35411e-07
1.86967e-08
6.56261e-07
3.41395e-08
1.02827e-06
4.90475e-08
1.35211e-06
6.13417e-08
1.6301e-06
7.00166e-08
1.86682e-06
7.49501e-08
2.06863e-06
7.66345e-08
2.24264e-06
7.58942e-08
2.39569e-06
7.36465e-08
2.53348e-06
7.07293e-08
2.66012e-06
6.78026e-08
2.77795e-06
6.53169e-08
2.88775e-06
6.35237e-08
2.98901e-06
6.25108e-08
3.08042e-06
6.22446e-08
3.16021e-06
6.26047e-08
3.22652e-06
6.34276e-08
3.27767e-06
6.45208e-08
3.31232e-06
6.5685e-08
3.32965e-06
6.67278e-08
3.32933e-06
6.74743e-08
3.31163e-06
6.77757e-08
3.27734e-06
6.75155e-08
3.2277e-06
6.66134e-08
3.16432e-06
6.50265e-08
3.08908e-06
6.27483e-08
3.004e-06
5.98043e-08
2.91112e-06
5.62467e-08
2.81236e-06
5.21463e-08
2.70951e-06
4.75854e-08
2.60407e-06
4.2649e-08
2.49728e-06
3.74183e-08
2.39008e-06
3.19647e-08
2.28311e-06
2.63454e-08
2.17675e-06
2.0601e-08
2.07114e-06
1.47547e-08
1.96627e-06
8.81233e-09
1.86197e-06
2.76412e-09
1.75799e-06
-3.41245e-09
1.65406e-06
-9.75118e-09
1.54989e-06
-1.62935e-08
1.44519e-06
-2.30852e-08
1.33974e-06
1.23334e-06
6.51194e-09
2.28899e-07
2.10134e-08
6.4176e-07
3.91861e-08
1.0101e-06
5.76468e-08
1.33364e-06
7.40903e-08
1.61365e-06
8.72828e-08
1.85363e-06
9.69069e-08
2.05901e-06
1.03312e-07
2.23624e-06
1.07237e-07
2.39176e-06
1.09562e-07
2.53116e-06
1.11119e-07
2.65856e-06
1.12579e-07
2.7765e-06
1.14402e-07
2.88592e-06
1.16844e-07
2.98657e-06
1.19982e-07
3.07728e-06
1.23761e-07
3.15643e-06
1.28033e-07
3.22225e-06
1.32597e-07
3.2731e-06
1.37228e-07
3.30769e-06
1.41696e-07
3.32518e-06
1.45784e-07
3.32524e-06
1.49303e-07
3.30812e-06
1.521e-07
3.27454e-06
1.54061e-07
3.22574e-06
1.55121e-07
3.16326e-06
1.55258e-07
3.08895e-06
1.54493e-07
3.00477e-06
1.52884e-07
2.91272e-06
1.50518e-07
2.81473e-06
1.47499e-07
2.71253e-06
1.4394e-07
2.60763e-06
1.39956e-07
2.50127e-06
1.35653e-07
2.39439e-06
1.31118e-07
2.28765e-06
1.26424e-07
2.18144e-06
1.21618e-07
2.07595e-06
1.16727e-07
1.97116e-06
1.11753e-07
1.86694e-06
1.06682e-07
1.76306e-06
1.01483e-07
1.65926e-06
9.6112e-08
1.55526e-06
9.05163e-08
1.45078e-06
8.46393e-08
1.34561e-06
1.23956e-06
7.03843e-09
2.2186e-07
2.31121e-08
6.25686e-07
4.38341e-08
9.89375e-07
6.56756e-08
1.3118e-06
8.61291e-08
1.5932e-06
1.03741e-07
1.83602e-06
1.17995e-07
2.04476e-06
1.29086e-07
2.22515e-06
1.37654e-07
2.3832e-06
1.44528e-07
2.52428e-06
1.50528e-07
2.65256e-06
1.56333e-07
2.77069e-06
1.62415e-07
2.87984e-06
1.69038e-07
2.97994e-06
1.76275e-07
3.07004e-06
1.84054e-07
3.14865e-06
1.92205e-07
3.2141e-06
2.00495e-07
3.26481e-06
2.08667e-07
3.29952e-06
2.16463e-07
3.31738e-06
2.23642e-07
3.31806e-06
2.29999e-07
3.30176e-06
2.35372e-07
3.26917e-06
2.39651e-07
3.22146e-06
2.4278e-07
3.16013e-06
2.44756e-07
3.08697e-06
2.45624e-07
3.0039e-06
2.45469e-07
2.91288e-06
2.44408e-07
2.81579e-06
2.42577e-07
2.71436e-06
2.40119e-07
2.61008e-06
2.37176e-07
2.50421e-06
2.33874e-07
2.39769e-06
2.30324e-07
2.2912e-06
2.26608e-07
2.18516e-06
2.22784e-07
2.07977e-06
2.18881e-07
1.97506e-06
2.14903e-07
1.87092e-06
2.10832e-07
1.76713e-06
2.06629e-07
1.66347e-06
2.02241e-07
1.55964e-06
1.97608e-07
1.45542e-06
1.92662e-07
1.35056e-06
1.24489e-06
7.49423e-09
2.14366e-07
2.49808e-08
6.082e-07
4.80534e-08
9.66302e-07
7.3078e-08
1.28678e-06
9.73728e-08
1.5689e-06
1.19277e-07
1.81411e-06
1.38074e-07
2.02596e-06
1.53795e-07
2.20943e-06
1.66965e-07
2.37003e-06
1.78354e-07
2.51289e-06
1.88759e-07
2.64216e-06
1.98862e-07
2.76059e-06
2.09151e-07
2.86955e-06
2.19897e-07
2.9692e-06
2.31179e-07
3.05876e-06
2.42914e-07
3.13691e-06
2.54914e-07
3.2021e-06
2.66918e-07
3.25281e-06
2.78642e-07
3.2878e-06
2.89798e-07
3.30623e-06
3.00123e-07
3.30774e-06
3.09394e-07
3.29249e-06
3.17439e-07
3.26113e-06
3.24148e-07
3.21475e-06
3.29469e-07
3.15481e-06
3.33414e-07
3.08303e-06
3.36046e-07
3.00127e-06
3.37475e-07
2.91145e-06
3.37845e-07
2.81542e-06
3.37318e-07
2.71488e-06
3.36067e-07
2.61134e-06
3.34255e-07
2.50602e-06
3.32035e-07
2.39991e-06
3.29533e-07
2.2937e-06
3.26847e-07
2.18784e-06
3.24045e-07
2.08258e-06
3.21162e-07
1.97795e-06
3.18202e-07
1.87388e-06
3.15146e-07
1.77019e-06
3.11951e-07
1.66666e-06
3.08557e-07
1.56304e-06
3.04895e-07
1.45908e-06
3.00888e-07
1.35457e-06
1.24932e-06
7.87797e-09
2.06488e-07
2.66103e-08
5.89468e-07
5.18183e-08
9.41094e-07
7.98045e-08
1.25879e-06
1.07743e-07
1.54097e-06
1.33783e-07
1.78808e-06
1.57008e-07
2.00273e-06
1.77278e-07
2.18916e-06
1.94996e-07
2.35231e-06
2.10853e-07
2.49704e-06
2.25616e-07
2.6274e-06
2.39966e-07
2.74624e-06
2.54404e-07
2.85511e-06
2.69216e-07
2.95438e-06
2.84487e-07
3.04349e-06
3.00133e-07
3.12127e-06
3.15951e-07
3.18628e-06
3.31661e-07
3.2371e-06
3.4695e-07
3.27251e-06
3.61506e-07
3.29167e-06
3.75041e-07
3.2942e-06
3.87312e-07
3.28022e-06
3.98137e-07
3.2503e-06
4.07398e-07
3.20549e-06
4.15047e-07
3.14716e-06
4.21104e-07
3.07697e-06
4.25646e-07
2.99673e-06
4.28803e-07
2.90829e-06
4.3074e-07
2.81348e-06
4.31645e-07
2.71398e-06
4.31713e-07
2.61127e-06
4.31133e-07
2.5066e-06
4.30078e-07
2.40096e-06
4.28693e-07
2.29508e-06
4.27092e-07
2.18945e-06
4.25352e-07
2.08431e-06
4.23517e-07
1.97978e-06
4.21595e-07
1.8758e-06
4.19566e-07
1.77222e-06
4.17385e-07
1.66884e-06
4.14989e-07
1.56543e-06
4.12301e-07
1.46177e-06
4.09236e-07
1.35763e-06
1.25285e-06
8.18915e-09
1.98299e-07
2.7994e-08
5.69663e-07
5.51083e-08
9.1398e-07
8.58123e-08
1.22809e-06
1.17169e-07
1.50961e-06
1.47156e-07
1.75809e-06
1.74667e-07
1.97522e-06
1.99384e-07
2.16444e-06
2.21572e-07
2.33012e-06
2.41838e-07
2.47677e-06
2.60905e-07
2.60833e-06
2.79445e-07
2.7277e-06
2.97971e-07
2.83659e-06
3.16788e-07
2.93557e-06
3.35991e-07
3.02429e-06
3.55502e-07
3.10176e-06
3.75108e-07
3.16667e-06
3.94514e-07
3.21769e-06
4.13385e-07
3.25364e-06
4.31384e-07
3.27367e-06
4.48197e-07
3.27739e-06
4.63564e-07
3.26485e-06
4.77285e-07
3.23658e-06
4.89234e-07
3.19354e-06
4.99359e-07
3.13703e-06
5.07683e-07
3.06864e-06
5.14294e-07
2.99011e-06
5.19336e-07
2.90325e-06
5.2299e-07
2.80983e-06
5.25465e-07
2.7115e-06
5.26978e-07
2.60976e-06
5.27739e-07
2.50584e-06
5.27941e-07
2.40076e-06
5.27747e-07
2.29528e-06
5.27288e-07
2.1899e-06
5.26654e-07
2.08495e-06
5.25897e-07
1.98054e-06
5.25032e-07
1.87666e-06
5.24041e-07
1.77321e-06
5.2288e-07
1.67e-06
5.21482e-07
1.56683e-06
5.19766e-07
1.46348e-06
5.17641e-07
1.35976e-06
1.25548e-06
8.42806e-09
1.89871e-07
2.91284e-08
5.48962e-07
5.79079e-08
8.85201e-07
9.10658e-08
1.19493e-06
1.25588e-07
1.47509e-06
1.59305e-07
1.72437e-06
1.90928e-07
1.9436e-06
2.19961e-07
2.1354e-06
2.46526e-07
2.30356e-06
2.71125e-07
2.45217e-06
2.9443e-07
2.58502e-06
3.17099e-07
2.70503e-06
3.3965e-07
2.81404e-06
3.62406e-07
2.91281e-06
3.85482e-07
3.00121e-06
4.08809e-07
3.07843e-06
4.32171e-07
3.14331e-06
4.55264e-07
3.1946e-06
4.77734e-07
3.23117e-06
4.99219e-07
3.25219e-06
5.19385e-07
3.25722e-06
5.37947e-07
3.24629e-06
5.54688e-07
3.21984e-06
5.69468e-07
3.17876e-06
5.82227e-07
3.12427e-06
5.92987e-07
3.05788e-06
6.0184e-07
2.98126e-06
6.08935e-07
2.89616e-06
6.1447e-07
2.80429e-06
6.18668e-07
2.70731e-06
6.21763e-07
2.60666e-06
6.23986e-07
2.50362e-06
6.25548e-07
2.3992e-06
6.26631e-07
2.29419e-06
6.2738e-07
2.18916e-06
6.27901e-07
2.08443e-06
6.28257e-07
1.98018e-06
6.28471e-07
1.87645e-06
6.2853e-07
1.77315e-06
6.28392e-07
1.67014e-06
6.27991e-07
1.56723e-06
6.27243e-07
1.46423e-06
6.26052e-07
1.36095e-06
1.25721e-06
8.59573e-09
1.81275e-07
3.00121e-08
5.27546e-07
6.02068e-08
8.55006e-07
9.55366e-08
1.1596e-06
1.32947e-07
1.43768e-06
1.70145e-07
1.68717e-06
2.05676e-07
1.90807e-06
2.38869e-07
2.10221e-06
2.69689e-07
2.27273e-06
2.98531e-07
2.42333e-06
3.25999e-07
2.55756e-06
3.52725e-07
2.6783e-06
3.79233e-07
2.78753e-06
4.05863e-07
2.88618e-06
4.3275e-07
2.97432e-06
4.5984e-07
3.05134e-06
4.86925e-07
3.11623e-06
5.13693e-07
3.16783e-06
5.39775e-07
3.20508e-06
5.64792e-07
3.22717e-06
5.88384e-07
3.23363e-06
6.10245e-07
3.22443e-06
6.30134e-07
3.19995e-06
6.47895e-07
3.161e-06
6.63457e-07
3.10871e-06
6.76831e-07
3.04451e-06
6.88109e-07
2.96999e-06
6.97442e-07
2.88682e-06
7.05035e-07
2.7967e-06
7.11123e-07
2.70122e-06
7.15954e-07
2.60183e-06
7.19775e-07
2.4998e-06
7.22813e-07
2.39616e-06
7.2527e-07
2.29174e-06
7.27306e-07
2.18712e-06
7.29042e-07
2.08269e-06
7.30553e-07
1.97867e-06
7.31873e-07
1.87513e-06
7.32998e-07
1.77203e-06
7.33891e-07
1.66925e-06
7.34487e-07
1.56664e-06
7.34701e-07
1.46402e-06
7.34438e-07
1.36121e-06
1.25806e-06
8.69387e-09
1.72581e-07
3.06465e-08
5.05593e-07
6.19994e-08
8.23653e-07
9.92038e-08
1.1224e-06
1.392e-07
1.39768e-06
1.79603e-07
1.64677e-06
2.18806e-07
1.86887e-06
2.5597e-07
2.06505e-06
2.90903e-07
2.2378e-06
3.23876e-07
2.39036e-06
3.55418e-07
2.52601e-06
3.86123e-07
2.6476e-06
4.16514e-07
2.75714e-06
4.46947e-07
2.85575e-06
4.77581e-07
2.94369e-06
5.08381e-07
3.02054e-06
5.39149e-07
3.08546e-06
5.69576e-07
3.1374e-06
5.99283e-07
3.17538e-06
6.27872e-07
3.19858e-06
6.54963e-07
3.20654e-06
6.80225e-07
3.19917e-06
7.03394e-07
3.17678e-06
7.24292e-07
3.1401e-06
7.4283e-07
3.09017e-06
7.59007e-07
3.02833e-06
7.72904e-07
2.95609e-06
7.84673e-07
2.87505e-06
7.94517e-07
2.78686e-06
8.02678e-07
2.69306e-06
8.09415e-07
2.59509e-06
8.14986e-07
2.49423e-06
8.19635e-07
2.39151e-06
8.23578e-07
2.2878e-06
8.26994e-07
2.1837e-06
8.30017e-07
2.07967e-06
8.32738e-07
1.97595e-06
8.35203e-07
1.87266e-06
8.37418e-07
1.76981e-06
8.39354e-07
1.66731e-06
8.4095e-07
1.56504e-06
8.42126e-07
1.46284e-06
8.42783e-07
1.36055e-06
1.25803e-06
8.72478e-09
1.63856e-07
3.10354e-08
4.83283e-07
6.3285e-08
7.91404e-07
1.02054e-07
1.08363e-06
1.44312e-07
1.35542e-06
1.87613e-07
1.60347e-06
2.30222e-07
1.82626e-06
2.71138e-07
2.02413e-06
3.10012e-07
2.19893e-06
3.46984e-07
2.35339e-06
3.82493e-07
2.4905e-06
4.1709e-07
2.613e-06
4.51284e-07
2.72294e-06
4.85446e-07
2.82159e-06
5.19759e-07
2.90938e-06
5.54209e-07
2.98609e-06
5.8862e-07
3.05105e-06
6.22684e-07
3.10334e-06
6.56022e-07
3.14204e-06
6.8822e-07
3.16638e-06
7.18879e-07
3.17588e-06
7.47643e-07
3.1704e-06
7.74222e-07
3.1502e-06
7.98414e-07
3.11591e-06
8.20108e-07
3.06848e-06
8.39282e-07
3.00916e-06
8.56005e-07
2.93937e-06
8.70418e-07
2.86064e-06
8.8272e-07
2.77455e-06
8.93155e-07
2.68262e-06
9.01984e-07
2.58626e-06
9.09478e-07
2.48673e-06
9.15891e-07
2.3851e-06
9.21453e-07
2.28223e-06
9.26359e-07
2.1788e-06
9.30759e-07
2.07527e-06
9.3476e-07
1.97195e-06
9.38422e-07
1.869e-06
9.41763e-07
1.76647e-06
9.44763e-07
1.66431e-06
9.47371e-07
1.56243e-06
9.49511e-07
1.4607e-06
9.51087e-07
1.35898e-06
1.25712e-06
8.69126e-09
1.55165e-07
3.11842e-08
4.6079e-07
6.40675e-08
7.5852e-07
1.0408e-07
1.04361e-06
1.48258e-07
1.31124e-06
1.94123e-07
1.5576e-06
2.39838e-07
1.78054e-06
2.84254e-07
1.97972e-06
3.26867e-07
2.15632e-06
3.6768e-07
2.31257e-06
4.07034e-07
2.45115e-06
4.45421e-07
2.57461e-06
4.83332e-07
2.68503e-06
5.21144e-07
2.78377e-06
5.59062e-07
2.87146e-06
5.97102e-07
2.94805e-06
6.35107e-07
3.01304e-06
6.72783e-07
3.06566e-06
7.09751e-07
3.10507e-06
7.45589e-07
3.13055e-06
7.79878e-07
3.14159e-06
8.12239e-07
3.13804e-06
8.42356e-07
3.12008e-06
8.69999e-07
3.08826e-06
8.95029e-07
3.04345e-06
9.17401e-07
2.98679e-06
9.37163e-07
2.9196e-06
9.5444e-07
2.84336e-06
9.69423e-07
2.75957e-06
9.82346e-07
2.6697e-06
9.93476e-07
2.57513e-06
1.00308e-06
2.47712e-06
1.01143e-06
2.37675e-06
1.01877e-06
2.2749e-06
1.0253e-06
2.17227e-06
1.03118e-06
2.06938e-06
1.03655e-06
1.96658e-06
1.04148e-06
1.86407e-06
1.046e-06
1.76195e-06
1.0501e-06
1.66021e-06
1.05375e-06
1.55879e-06
1.05686e-06
1.45759e-06
1.05936e-06
1.35648e-06
1.25534e-06
8.59651e-09
1.46569e-07
3.11005e-08
4.38286e-07
6.43545e-08
7.25266e-07
1.05284e-07
1.00268e-06
1.51021e-07
1.26551e-06
1.99091e-07
1.50953e-06
2.47581e-07
1.73205e-06
2.95211e-07
1.93209e-06
3.41328e-07
2.1102e-06
3.85798e-07
2.2681e-06
4.28852e-07
2.4081e-06
4.70913e-07
2.53255e-06
5.12442e-07
2.6435e-06
5.53819e-07
2.7424e-06
5.95267e-07
2.83001e-06
6.36831e-07
2.90649e-06
6.78378e-07
2.9715e-06
7.19633e-07
3.02441e-06
7.60223e-07
3.06448e-06
7.99722e-07
3.09105e-06
8.37696e-07
3.10362e-06
8.73742e-07
3.10199e-06
9.0752e-07
3.08631e-06
9.38766e-07
3.05702e-06
9.67311e-07
3.01491e-06
9.93084e-07
2.96101e-06
1.0161e-06
2.89658e-06
1.03648e-06
2.82299e-06
1.05437e-06
2.74167e-06
1.07002e-06
2.65405e-06
1.08367e-06
2.56148e-06
1.0956e-06
2.46519e-06
1.10609e-06
2.36627e-06
1.11537e-06
2.26561e-06
1.12368e-06
2.16396e-06
1.13119e-06
2.06187e-06
1.13804e-06
1.95973e-06
1.14433e-06
1.85779e-06
1.15009e-06
1.75618e-06
1.15535e-06
1.65496e-06
1.16006e-06
1.55407e-06
1.16418e-06
1.45347e-06
1.16762e-06
1.35304e-06
1.25268e-06
8.444e-09
1.38125e-07
3.0793e-08
4.15937e-07
6.41571e-08
6.91902e-07
1.0567e-07
9.61172e-07
1.52592e-07
1.21859e-06
2.02486e-07
1.45964e-06
2.53387e-07
1.68115e-06
3.03911e-07
1.88156e-06
3.53265e-07
2.06085e-06
4.01176e-07
2.22019e-06
4.4776e-07
2.36151e-06
4.93362e-07
2.48695e-06
5.38401e-07
2.59847e-06
5.83249e-07
2.69755e-06
6.28146e-07
2.78511e-06
6.73162e-07
2.86147e-06
7.18194e-07
2.92646e-06
7.62989e-07
2.97961e-06
8.07186e-07
3.02029e-06
8.50357e-07
3.04788e-06
8.9206e-07
3.06191e-06
9.31872e-07
3.06218e-06
9.69421e-07
3.04876e-06
1.00442e-06
3.02202e-06
1.03665e-06
2.98267e-06
1.06603e-06
2.93164e-06
1.09253e-06
2.87008e-06
1.11623e-06
2.79929e-06
1.13728e-06
2.72062e-06
1.15589e-06
2.63544e-06
1.17231e-06
2.54506e-06
1.1868e-06
2.4507e-06
1.19964e-06
2.35343e-06
1.21108e-06
2.25418e-06
1.22135e-06
2.1537e-06
1.23064e-06
2.05258e-06
1.23911e-06
1.95126e-06
1.24687e-06
1.85003e-06
1.25398e-06
1.74907e-06
1.26046e-06
1.64847e-06
1.26631e-06
1.54823e-06
1.27147e-06
1.44831e-06
1.27587e-06
1.34863e-06
1.24912e-06
8.23729e-09
1.29887e-07
3.02714e-08
3.93903e-07
6.3489e-08
6.58685e-07
1.05252e-07
9.19409e-07
1.52973e-07
1.17086e-06
2.04285e-07
1.40833e-06
2.57207e-07
1.62823e-06
3.10269e-07
1.8285e-06
3.62555e-07
2.00856e-06
4.13659e-07
2.16909e-06
4.63576e-07
2.31159e-06
5.12563e-07
2.43796e-06
5.60989e-07
2.55004e-06
6.09206e-07
2.64933e-06
6.57465e-07
2.73685e-06
7.05858e-07
2.81308e-06
7.54314e-07
2.87801e-06
8.02603e-07
2.93132e-06
8.50382e-07
2.97251e-06
8.97229e-07
3.00103e-06
9.42694e-07
3.01645e-06
9.86336e-07
3.01854e-06
1.02776e-06
3.00733e-06
1.06664e-06
2.98314e-06
1.10274e-06
2.94657e-06
1.13591e-06
2.89847e-06
1.1661e-06
2.83989e-06
1.19337e-06
2.77202e-06
1.21783e-06
2.69616e-06
1.23967e-06
2.6136e-06
1.25911e-06
2.52562e-06
1.27642e-06
2.43339e-06
1.29185e-06
2.338e-06
1.30566e-06
2.24036e-06
1.3181e-06
2.14126e-06
1.32936e-06
2.04131e-06
1.33962e-06
1.941e-06
1.34899e-06
1.84065e-06
1.35757e-06
1.7405e-06
1.36538e-06
1.64066e-06
1.37244e-06
1.54117e-06
1.37871e-06
1.44204e-06
1.38413e-06
1.34321e-06
1.24462e-06
7.97999e-09
1.21907e-07
2.95458e-08
3.72337e-07
6.23653e-08
6.25865e-07
1.04042e-07
8.77732e-07
1.52169e-07
1.12274e-06
2.04477e-07
1.35602e-06
2.59e-07
1.57371e-06
3.14211e-07
1.77329e-06
3.69089e-07
1.95368e-06
4.23101e-07
2.11508e-06
4.76124e-07
2.25857e-06
5.28317e-07
2.38577e-06
5.79987e-07
2.49837e-06
6.3146e-07
2.59786e-06
6.82985e-07
2.68533e-06
7.34676e-07
2.76138e-06
7.86486e-07
2.8262e-06
8.38218e-07
2.87959e-06
8.89547e-07
2.92118e-06
9.40062e-07
2.95051e-06
9.8931e-07
2.9672e-06
1.03684e-06
2.97101e-06
1.08222e-06
2.96195e-06
1.12511e-06
2.94026e-06
1.16522e-06
2.90646e-06
1.20238e-06
2.86131e-06
1.23649e-06
1.26757e-06
1.29569e-06
1.32102e-06
1.34375e-06
1.36413e-06
1.38242e-06
1.39886e-06
1.4137e-06
1.42715e-06
1.43938e-06
1.45055e-06
1.46074e-06
1.47001e-06
1.47839e-06
1.48585e-06
1.49236e-06
7.67582e-09
2.86266e-08
6.08023e-08
1.02059e-07
1.5019e-07
2.03054e-07
2.58732e-07
3.1567e-07
3.72763e-07
4.29364e-07
4.85233e-07
5.40429e-07
5.95185e-07
6.49787e-07
7.04477e-07
7.59381e-07
8.14477e-07
8.69596e-07
9.24435e-07
9.786e-07
1.03164e-06
1.08309e-06
1.13251e-06
1.17951e-06
1.22377e-06
)
;

boundaryField
{