/*--------------------------------*- C++ -*----------------------------------*\
  =========                 |
  \\      /  F ield         | OpenFOAM: The Open Source CFD Toolbox
   \\    /   O peration     | Website:  https://openfoam.org
    \\  /    A nd           | Version:  9
     \\/     M anipulation  |
\*---------------------------------------------------------------------------*/
FoamFile
{
    format      ascii;
    class       volVectorField;
    location    "1.75";
    object      U;
}
// * * * * * * * * * * * * * * * * * * * * * * * * * * * * * * * * * * * * * //

dimensions      [0 1 -1 0 0 0 0];

internalField   nonuniform List<vector> 
1250
(
(-0.000136753 0.02453 0)
(-0.0010702 0.0646667 0)
(-0.000106648 0.0250348 0)
(-0.000899113 0.0661578 0)
(-0.00274306 0.0994182 0)
(-0.00545816 0.126082 0)
(-0.0089205 0.147532 0)
(-0.0130086 0.165141 0)
(-0.0175905 0.180146 0)
(-0.022544 0.193559 0)
(-0.0277661 0.206116 0)
(-0.0331735 0.218283 0)
(-0.0386988 0.230283 0)
(-0.0442859 0.24215 0)
(-0.0498846 0.253778 0)
(-0.0554468 0.264975 0)
(-0.0609242 0.275505 0)
(-0.0662673 0.285116 0)
(-0.0714267 0.293567 0)
(-0.076354 0.300638 0)
(-0.0810046 0.306147 0)
(-0.0853394 0.309958 0)
(-0.0893279 0.311986 0)
(-0.0929492 0.3122 0)
(-0.0961942 0.310625 0)
(-0.0990655 0.307339 0)
(-0.101578 0.302465 0)
(-0.103756 0.296165 0)
(-0.105635 0.288626 0)
(-0.107255 0.280052 0)
(-0.108663 0.270648 0)
(-0.109904 0.260614 0)
(-0.111027 0.25013 0)
(-0.112072 0.239355 0)
(-0.113079 0.228416 0)
(-0.114077 0.217413 0)
(-7.57709e-05 0.0254467 0)
(-0.000721602 0.0674334 0)
(-0.00229447 0.101547 0)
(-0.0046815 0.129 0)
(-0.00779129 0.151133 0)
(-0.0115176 0.169299 0)
(-0.0157353 0.184736 0)
(-0.0203225 0.198467 0)
(-0.0251732 0.211247 0)
(-0.0301996 0.223558 0)
(-0.0353308 0.235641 0)
(-0.0405085 0.247535 0)
(-0.0456823 0.259141 0)
(-0.0508058 0.27027 0)
(-0.0558337 0.280685 0)
(-0.060721 0.290134 0)
(-0.0654233 0.298377 0)
(-0.0698983 0.305197 0)
(-0.0741075 0.310416 0)
(-0.0780184 0.313907 0)
(-0.0816064 0.315591 0)
(-0.0848564 0.315449 0)
(-0.0877639 0.313518 0)
(-0.0903352 0.309885 0)
(-0.0925874 0.304686 0)
(-0.0945466 0.298091 0)
(-0.0962467 0.290294 0)
(-0.0977273 0.281504 0)
(-0.0990307 0.271928 0)
(-0.1002 0.261767 0)
(-0.101278 0.251198 0)
(-0.1023 0.240375 0)
(-0.103301 0.229421 0)
(-0.104307 0.21843 0)
(-0.105338 0.207465 0)
(-0.10641 0.196564 0)
(-0.107531 0.185744 0)
(-0.108702 0.174999 0)
(-0.109923 0.164316 0)
(-0.111189 0.15367 0)
(-0.112492 0.143035 0)
(-0.113822 0.132381 0)
(-0.11517 0.121682 0)
(-4.47424e-05 0.0257632 0)
(-0.00054006 0.0684829 0)
(-0.00183155 0.103371 0)
(-0.00387523 0.13157 0)
(-0.00661376 0.154367 0)
(-0.00995786 0.173085 0)
(-0.0137907 0.188952 0)
(-0.017992 0.202998 0)
(-0.0224532 0.215995 0)
(-0.0270826 0.228442 0)
(-0.031806 0.240593 0)
(-0.0365629 0.252501 0)
(-0.0413032 0.264073 0)
(-0.0459818 0.275123 0)
(-0.050557 0.285416 0)
(-0.0549883 0.294701 0)
(-0.0592369 0.302739 0)
(-0.0632663 0.309317 0)
(-0.0670442 0.314263 0)
(-0.0705443 0.317454 0)
(-0.0737478 0.318822 0)
(-0.0766445 0.318356 0)
(-0.0792342 0.316104 0)
(-0.081526 0.312164 0)
(-0.0835384 0.30668 0)
(-0.0852979 0.299828 0)
(-0.0868372 0.291812 0)
(-0.0881931 0.282841 0)
(-0.0894046 0.273126 0)
(-0.0905108 0.262865 0)
(-0.0915479 0.252233 0)
(-0.0925488 0.24138 0)
(-0.0935416 0.230424 0)
(-0.0945487 0.219452 0)
(-0.095587 0.208523 0)
(-0.0966669 0.197667 0)
(-0.0977939 0.186895 0)
(-0.0989693 0.1762 0)
(-0.10019 0.165562 0)
(-0.101451 0.154954 0)
(-0.102745 0.144349 0)
(-0.104063 0.133716 0)
(-0.105396 0.123029 0)
(-0.106734 0.112265 0)
(-0.108069 0.101407 0)
(-0.109394 0.0904444 0)
(-0.110701 0.0793699 0)
(-0.111984 0.0681826 0)
(-0.113238 0.0568843 0)
(-1.3877e-05 0.0259832 0)
(-0.000356578 0.069301 0)
(-0.00135928 0.104878 0)
(-0.0030471 0.133775 0)
(-0.00539816 0.157214 0)
(-0.00834179 0.176476 0)
(-0.0117711 0.192772 0)
(-0.0155687 0.207131 0)
(-0.0196243 0.220339 0)
(-0.0238427 0.232913 0)
(-0.0281465 0.245122 0)
(-0.0324735 0.257032 0)
(-0.0367733 0.268559 0)
(-0.0410029 0.279522 0)
(-0.045124 0.289689 0)
(-0.0491008 0.298811 0)
(-0.0529 0.306651 0)
(-0.056491 0.313001 0)
(-0.0598478 0.317692 0)
(-0.0629499 0.320608 0)
(-0.0657836 0.32169 0)
(-0.0683436 0.320936 0)
(-0.0706328 0.318401 0)
(-0.0726628 0.314193 0)
(-0.0744527 0.308462 0)
(-0.0760284 0.301394 0)
(-0.0774206 0.293194 0)
(-0.0786633 0.284076 0)
(-0.0797913 0.27425 0)
(-0.080839 0.263914 0)
(-0.0818377 0.253239 0)
(-0.0828154 0.242371 0)
(-0.0837954 0.231422 0)
(-0.084796 0.220475 0)
(-0.0858301 0.209583 0)
(-0.0869056 0.198771 0)
(-0.088026 0.188045 0)
(-0.0891909 0.177394 0)
(-0.0903971 0.166797 0)
(-0.0916389 0.156224 0)
(-0.0929092 0.145645 0)
(-0.0942002 0.13503 0)
(-0.0955038 0.124352 0)
(-0.0968123 0.113589 0)
(-0.098118 0.102725 0)
(-0.0994142 0.0917487 0)
(-0.100695 0.0806548 0)
(-0.101957 0.0694433 0)
(-0.103194 0.058117 0)
(1.64575e-05 0.0261065 0)
(-0.000172934 0.0698839 0)
(-0.000881973 0.106059 0)
(-0.00220434 0.135603 0)
(-0.00415448 0.15966 0)
(-0.00668183 0.179457 0)
(-0.00969111 0.196179 0)
(-0.0130692 0.210852 0)
(-0.016705 0.224269 0)
(-0.0205004 0.236964 0)
(-0.0243749 0.249222 0)
(-0.0282646 0.261125 0)
(-0.0321191 0.272599 0)
(-0.0358973 0.283469 0)
(-0.0395644 0.293508 0)
(-0.0430892 0.302471 0)
(-0.046444 0.310123 0)
(-0.0496042 0.316259 0)
(-0.0525497 0.320716 0)
(-0.0552654 0.323385 0)
(-0.0577428 0.324213 0)
(-0.0599804 0.323205 0)
(-0.061984 0.320425 0)
(-0.0637668 0.315987 0)
(-0.0653479 0.310049 0)
(-0.0667521 0.302801 0)
(-0.0680076 0.294451 0)
(-0.0691447 0.285217 0)
(-0.0701942 0.275306 0)
(-0.0711852 0.264915 0)
(-0.0721446 0.254213 0)
(-0.0730952 0.243341 0)
(-0.074056 0.232407 0)
(-0.0750412 0.221488 0)
(-0.0760606 0.210633 0)
(-0.0771196 0.199863 0)
(-0.0782202 0.18918 0)
(-0.079361 0.17857 0)
(-0.0805384 0.168008 0)
(-0.0817471 0.157466 0)
(-0.0829807 0.146909 0)
(-0.0842323 0.13631 0)
(-0.085495 0.12564 0)
(-0.0867624 0.114878 0)
(-0.0880283 0.104009 0)
(-0.0892875 0.0930217 0)
(-0.0905352 0.0819124 0)
(-0.0917684 0.0706815 0)
(-0.0929837 0.0593331 0)
(4.56279e-05 0.026133 0)
(8.87724e-06 0.0702297 0)
(-0.000403813 0.106909 0)
(-0.00135416 0.137044 0)
(-0.00289271 0.16169 0)
(-0.00499044 0.182012 0)
(-0.00756542 0.199159 0)
(-0.0105102 0.214146 0)
(-0.0137138 0.227771 0)
(-0.0170759 0.240583 0)
(-0.0205133 0.252886 0)
(-0.0239602 0.264774 0)
(-0.0273663 0.276189 0)
(-0.0306922 0.286963 0)
(-0.0339065 0.296875 0)
(-0.0369828 0.305684 0)
(-0.0398987 0.31316 0)
(-0.0426356 0.3191 0)
(-0.0451788 0.323348 0)
(-0.0475187 0.325797 0)
(-0.0496514 0.326403 0)
(-0.0515787 0.325177 0)
(-0.053309 0.322189 0)
(-0.0548561 0.317559 0)
(-0.056239 0.311451 0)
(-0.0574806 0.304058 0)
(-0.0586062 0.295591 0)
(-0.0596424 0.286267 0)
(-0.0606152 0.276296 0)
(-0.0615491 0.265868 0)
(-0.0624659 0.255152 0)
(-0.0633839 0.244285 0)
(-0.0643178 0.23337 0)
(-0.0652783 0.222481 0)
(-0.0662722 0.211662 0)
(-0.067303 0.20093 0)
(-0.0683713 0.190286 0)
(-0.0694753 0.179712 0)
(-0.0706112 0.169182 0)
(-0.0717744 0.158666 0)
(-0.0729593 0.14813 0)
(-0.0741604 0.137544 0)
(-0.075372 0.126882 0)
(-0.0765889 0.116122 0)
(-0.0778067 0.10525 0)
(-0.0790213 0.094256 0)
(-0.0802292 0.0831361 0)
(-0.0814282 0.0718919 0)
(-0.082616 0.0605277 0)
(7.4195e-05 0.0260645 0)
(0.000188104 0.0703391 0)
(7.08931e-05 0.107425 0)
(-0.000504126 0.138091 0)
(-0.0016231 0.163294 0)
(-0.00328021 0.184129 0)
(-0.00540888 0.201699 0)
(-0.00790841 0.217001 0)
(-0.0106693 0.230836 0)
(-0.0135897 0.243764 0)
(-0.0165837 0.256106 0)
(-0.019584 0.267977 0)
(-0.0225399 0.279328 0)
(-0.0254139 0.290005 0)
(-0.0281778 0.299793 0)
(-0.0308096 0.308457 0)
(-0.0332924 0.31577 0)
(-0.0356129 0.321533 0)
(-0.0377622 0.325595 0)
(-0.0397356 0.327855 0)
(-0.0415332 0.328271 0)
(-0.0431602 0.326862 0)
(-0.0446265 0.323703 0)
(-0.0459467 0.31892 0)
(-0.0471388 0.312677 0)
(-0.0482236 0.305173 0)
(-0.0492232 0.296618 0)
(-0.0501601 0.28723 0)
(-0.0510558 0.277218 0)
(-0.0519298 0.26677 0)
(-0.0527993 0.256051 0)
(-0.0536781 0.245195 0)
(-0.0545768 0.234303 0)
(-0.0555029 0.223443 0)
(-0.0564607 0.212658 0)
(-0.0574521 0.201962 0)
(-0.0584766 0.191352 0)
(-0.0595321 0.180809 0)
(-0.0606151 0.170307 0)
(-0.0617218 0.159813 0)
(-0.0628477 0.149295 0)
(-0.0639884 0.138722 0)
(-0.0651399 0.128069 0)
(-0.0662984 0.117313 0)
(-0.0674608 0.106442 0)
(-0.0686242 0.0954448 0)
(-0.0697864 0.08432 0)
(-0.0709462 0.0730688 0)
(-0.072102 0.0616963 0)
(0.000101365 0.0259036 0)
(0.000362689 0.0702143 0)
(0.000538573 0.107606 0)
(0.000338641 0.138738 0)
(-0.000356193 0.164465 0)
(-0.00156375 0.185797 0)
(-0.00323643 0.203788 0)
(-0.00528087 0.219408 0)
(-0.00759025 0.233454 0)
(-0.0100619 0.246498 0)
(-0.0126078 0.25888 0)
(-0.0151589 0.270729 0)
(-0.0176644 0.282016 0)
(-0.020088 0.292597 0)
(-0.0224044 0.302266 0)
(-0.0245963 0.310794 0)
(-0.0266515 0.317958 0)
(-0.0285624 0.323565 0)
(-0.0303251 0.327466 0)
(-0.0319397 0.329565 0)
(-0.0334101 0.329826 0)
(-0.0347442 0.32827 0)
(-0.0359535 0.324977 0)
(-0.0370525 0.320074 0)
(-0.0380583 0.313732 0)
(-0.0389892 0.306147 0)
(-0.0398639 0.297533 0)
(-0.0407009 0.288105 0)
(-0.0415169 0.27807 0)
(-0.0423268 0.267615 0)
(-0.0431429 0.256903 0)
(-0.043975 0.246064 0)
(-0.0448299 0.235196 0)
(-0.0457122 0.224366 0)
(-0.0466239 0.213611 0)
(-0.0475654 0.202946 0)
(-0.0485356 0.192366 0)
(-0.0495322 0.18185 0)
(-0.0505523 0.171372 0)
(-0.0515929 0.160898 0)
(-0.0526507 0.150396 0)
(-0.0537227 0.139836 0)
(-0.0548064 0.129192 0)
(-0.0558994 0.118443 0)
(-0.0569999 0.107576 0)
(-0.0581066 0.0965824 0)
(-0.0592182 0.0854588 0)
(-0.0603342 0.0742079 0)
(-0.0614539 0.0628349 0)
(0.000126896 0.0256537 0)
(0.000530408 0.0698604 0)
(0.000993653 0.107454 0)
(0.00116871 0.138985 0)
(0.000899867 0.165197 0)
(0.000145319 0.18701 0)
(-0.00106344 0.205416 0)
(-0.00264451 0.221356 0)
(-0.00449513 0.235618 0)
(-0.00651252 0.248782 0)
(-0.00860697 0.261203 0)
(-0.0107078 0.273032 0)
(-0.0127634 0.284254 0)
(-0.0147389 0.294741 0)
(-0.0166117 0.304297 0)
(-0.0183683 0.312699 0)
(-0.0200015 0.31973 0)
(-0.0215087 0.325202 0)
(-0.0228911 0.328968 0)
(-0.024153 0.330937 0)
(-0.0253021 0.331074 0)
(-0.0263485 0.329406 0)
(-0.0273051 0.326013 0)
(-0.0281863 0.321027 0)
(-0.0290076 0.314618 0)
(-0.0297849 0.306983 0)
(-0.0305336 0.298335 0)
(-0.0312677 0.288888 0)
(-0.0319997 0.278848 0)
(-0.0327396 0.268399 0)
(-0.0334956 0.257702 0)
(-0.034273 0.246884 0)
(-0.0350756 0.236041 0)
(-0.0359049 0.225238 0)
(-0.0367611 0.214511 0)
(-0.0376432 0.203873 0)
(-0.0385497 0.193318 0)
(-0.0394783 0.182825 0)
(-0.0404267 0.172367 0)
(-0.0413929 0.161911 0)
(-0.0423749 0.151424 0)
(-0.0433711 0.140878 0)
(-0.0443803 0.130245 0)
(-0.0454018 0.119507 0)
(-0.0464352 0.108649 0)
(-0.0474802 0.0976637 0)
(-0.0485366 0.0865482 0)
(-0.0496048 0.0753051 0)
(-0.0506851 0.0639399 0)
(0.000150638 0.0253185 0)
(0.000690214 0.0692838 0)
(0.00143307 0.106976 0)
(0.00197775 0.138833 0)
(0.00213405 0.165486 0)
(0.00183556 0.18776 0)
(0.00109563 0.206578 0)
(-1.6111e-05 0.222841 0)
(-0.00140235 0.237323 0)
(-0.00296144 0.250611 0)
(-0.00460226 0.263075 0)
(-0.00625243 0.274884 0)
(-0.00785995 0.286044 0)
(-0.00939044 0.296441 0)
(-0.0108237 0.30589 0)
(-0.0121499 0.314178 0)
(-0.0133663 0.321093 0)
(-0.0144752 0.32645 0)
(-0.0154824 0.330106 0)
(-0.0163964 0.331973 0)
(-0.0172281 0.33202 0)
(-0.01799 0.330273 0)
(-0.0186959 0.326816 0)
(-0.0193599 0.32178 0)
(-0.0199961 0.315335 0)
(-0.0206179 0.307678 0)
(-0.021237 0.29902 0)
(-0.0218636 0.289575 0)
(-0.0225057 0.279546 0)
(-0.0231689 0.269115 0)
(-0.023857 0.25844 0)
(-0.0245717 0.247646 0)
(-0.0253133 0.236829 0)
(-0.026081 0.226052 0)
(-0.0268729 0.21535 0)
(-0.0276873 0.204735 0)
(-0.0285218 0.1942 0)
(-0.0293745 0.183727 0)
(-0.0302439 0.173286 0)
(-0.0311288 0.162845 0)
(-0.0320284 0.152374 0)
(-0.0329427 0.141841 0)
(-0.033872 0.131223 0)
(-0.0348169 0.120498 0)
(-0.0357785 0.109655 0)
(-0.0367576 0.0986844 0)
(-0.037755 0.0875842 0)
(-0.0387719 0.0763569 0)
(-0.0398092 0.0650082 0)
(0.000172394 0.0249029 0)
(0.00084086 0.0684927 0)
(0.00185325 0.106179 0)
(0.00275926 0.138288 0)
(0.0033367 0.165336 0)
(0.00349448 0.188047 0)
(0.00322616 0.207268 0)
(0.00258784 0.223856 0)
(0.00166999 0.238565 0)
(0.000571705 0.251983 0)
(-0.000614398 0.264494 0)
(-0.00181447 0.276288 0)
(-0.00297638 0.287389 0)
(-0.00406564 0.297701 0)
(-0.00506395 0.307051 0)
(-0.00596463 0.315236 0)
(-0.0067692 0.32205 0)
(-0.0074844 0.327313 0)
(-0.00812037 0.330885 0)
(-0.00868966 0.332679 0)
(-0.00920623 0.332666 0)
(-0.00968466 0.330874 0)
(-0.0101396 0.327385 0)
(-0.0105848 0.32233 0)
(-0.011033 0.31588 0)
(-0.011495 0.308228 0)
(-0.0119793 0.299585 0)
(-0.0124921 0.290161 0)
(-0.0130371 0.280157 0)
(-0.0136158 0.269754 0)
(-0.0142279 0.259108 0)
(-0.0148715 0.248342 0)
(-0.0155439 0.237552 0)
(-0.0162417 0.226798 0)
(-0.0169615 0.216118 0)
(-0.0177004 0.205522 0)
(-0.0184559 0.195005 0)
(-0.0192262 0.184547 0)
(-0.0200103 0.174121 0)
(-0.0208081 0.163695 0)
(-0.0216201 0.153238 0)
(-0.0224476 0.142721 0)
(-0.0232924 0.132119 0)
(-0.0241567 0.121414 0)
(-0.0250426 0.11059 0)
(-0.0259521 0.0996409 0)
(-0.026887 0.0885634 0)
(-0.0278492 0.0773601 0)
(-0.0288403 0.0660366 0)
(0.000191999 0.0244121 0)
(0.000981164 0.0674974 0)
(0.00225086 0.105072 0)
(0.0035073 0.137355 0)
(0.00449883 0.164748 0)
(0.00510998 0.187869 0)
(0.00531351 0.207485 0)
(0.00515063 0.224398 0)
(0.00470344 0.23934 0)
(0.00406819 0.252896 0)
(0.00333687 0.265462 0)
(0.00258465 0.277246 0)
(0.00186535 0.288293 0)
(0.00121316 0.298525 0)
(0.000644946 0.307785 0)
(0.000164979 0.315878 0)
(-0.000232324 0.322607 0)
(-0.000557937 0.327796 0)
(-0.000825706 0.331308 0)
(-0.00105211 0.333057 0)
(-0.00125407 0.333014 0)
(-0.00144814 0.331207 0)
(-0.00164977 0.327718 0)
(-0.00187258 0.322676 0)
(-0.00212779 0.316248 0)
(-0.00242383 0.308628 0)
(-0.00276613 0.300022 0)
(-0.0031572 0.290637 0)
(-0.0035968 0.280673 0)
(-0.00408245 0.270309 0)
(-0.00460994 0.259698 0)
(-0.00517401 0.248964 0)
(-0.00576895 0.238201 0)
(-0.00638919 0.22747 0)
(-0.00702975 0.216809 0)
(-0.00768662 0.206229 0)
(-0.00835696 0.195726 0)
(-0.0090392 0.185281 0)
(-0.00973297 0.174867 0)
(-0.0104391 0.164455 0)
(-0.0111593 0.154013 0)
(-0.0118962 0.143513 0)
(-0.0126529 0.132932 0)
(-0.0134331 0.122249 0)
(0.00020934 0.0238522 0)
(0.00111013 0.0663095 0)
(0.00262288 0.103669 0)
(0.00421622 0.136046 0)
(0.00561177 0.163729 0)
(0.00667042 0.18723 0)
(0.0073435 0.207228 0)
(0.00765608 0.224467 0)
(0.00768042 0.239648 0)
(0.00750847 0.25335 0)
(0.0072311 0.265978 0)
(0.00692449 0.277759 0)
(0.00664409 0.288758 0)
(0.00642435 0.298917 0)
(0.00628127 0.308095 0)
(0.00621673 0.316109 0)
(0.00622227 0.322768 0)
(0.00628318 0.327901 0)
(0.00638148 0.331375 0)
(0.00649731 0.333105 0)
(0.00661094 0.333061 0)
(0.00670384 0.331269 0)
(0.00675966 0.32781 0)
(0.00676495 0.322811 0)
(0.00670968 0.316434 0)
(0.00658756 0.30887 0)
(0.006396 0.300322 0)
(0.00613589 0.290996 0)
(0.00581115 0.281086 0)
(0.00542801 0.270771 0)
(0.00499425 0.260202 0)
(0.00451838 0.249504 0)
(0.00400887 0.238768 0)
(0.00347349 0.22806 0)
(0.00291881 0.217416 0)
(0.00234982 0.206849 0)
(0.00176975 0.196357 0)
(0.00118009 0.185923 0)
(0.000580676 0.17552 0)
(-3.0177e-05 0.165121 0)
(-0.000655324 0.154695 0)
(-0.00129849 0.144215 0)
(-0.00196422 0.133656 0)
(-0.00265728 0.123001 0)
(0.000224342 0.0232293 0)
(0.00122694 0.0649422 0)
(0.00296668 0.101984 0)
(0.00488079 0.134374 0)
(0.00666735 0.16229 0)
(0.00816464 0.186135 0)
(0.00930232 0.206499 0)
(0.0100882 0.224062 0)
(0.0105832 0.239489 0)
(0.0108737 0.253346 0)
(0.0110485 0.266046 0)
(0.0111846 0.277832 0)
(0.0113389 0.288791 0)
(0.0115466 0.298884 0)
(0.0118233 0.307988 0)
(0.0121693 0.315933 0)
(0.0125736 0.322536 0)
(0.0130181 0.327632 0)
(0.0134812 0.33109 0)
(0.0139398 0.332824 0)
(0.0143713 0.332805 0)
(0.0147553 0.331058 0)
(0.0150745 0.327658 0)
(0.0153153 0.322728 0)
(0.0154686 0.316429 0)
(0.0155301 0.308946 0)
(0.0154996 0.300478 0)
(0.015381 0.291226 0)
(0.0151817 0.281385 0)
(0.0149113 0.271129 0)
(0.014581 0.26061 0)
(0.0142022 0.249952 0)
(0.0137861 0.239247 0)
(0.0133427 0.228561 0)
(0.01288 0.217933 0)
(0.0124041 0.207378 0)
(0.0119187 0.196895 0)
(0.0114253 0.186469 0)
(0.0109234 0.176077 0)
(0.0104105 0.165691 0)
(0.00988294 0.155281 0)
(0.00933577 0.144822 0)
(0.0087634 0.134291 0)
(0.00815993 0.123667 0)
(0.000236967 0.0225503 0)
(0.00133093 0.0634099 0)
(0.00327997 0.100035 0)
(0.0054963 0.132355 0)
(0.0076579 0.160441 0)
(0.00958198 0.184592 0)
(0.0111766 0.205304 0)
(0.0124313 0.223186 0)
(0.0133945 0.238864 0)
(0.0141451 0.252886 0)
(0.0147696 0.265668 0)
(0.0153449 0.277468 0)
(0.0159291 0.288394 0)
(0.0165589 0.29843 0)
(0.01725 0.307468 0)
(0.0180016 0.315354 0)
(0.0188006 0.321914 0)
(0.0196263 0.326989 0)
(0.0204535 0.33045 0)
(0.0212563 0.332212 0)
(0.0220092 0.332244 0)
(0.0226898 0.330566 0)
(0.0232797 0.327252 0)
(0.023765 0.322419 0)
(0.0241373 0.316223 0)
(0.0243935 0.308843 0)
(0.0245358 0.300476 0)
(0.0245708 0.291318 0)
(0.0245086 0.28156 0)
(0.0243621 0.271375 0)
(0.0241455 0.260914 0)
(0.0238731 0.2503 0)
(0.0235586 0.239629 0)
(0.0232141 0.228967 0)
(0.0228493 0.218355 0)
(0.0224712 0.207811 0)
(0.0220844 0.197336 0)
(0.0216903 0.186918 0)
(0.0212883 0.176535 0)
(0.0208754 0.166161 0)
(0.020447 0.15577 0)
(0.0199974 0.145334 0)
(0.01952 0.134832 0)
(0.0190078 0.124245 0)
(0.000247206 0.0218222 0)
(0.00142161 0.0617281 0)
(0.00356082 0.0978406 0)
(0.00605856 0.130007 0)
(0.00857643 0.1582 0)
(0.0109124 0.182613 0)
(0.0129533 0.203649 0)
(0.0146701 0.221844 0)
(0.0160969 0.237776 0)
(0.0173044 0.251972 0)
(0.018375 0.264847 0)
(0.0193852 0.276672 0)
(0.0203944 0.287575 0)
(0.0214406 0.29756 0)
(0.0225404 0.306541 0)
(0.0236925 0.314377 0)
(0.0248825 0.320906 0)
(0.0260871 0.325975 0)
(0.0272784 0.329456 0)
(0.0284274 0.331266 0)
(0.0295061 0.33137 0)
(0.0304901 0.329787 0)
(0.0313593 0.326583 0)
(0.0320995 0.321873 0)
(0.0327024 0.315804 0)
(0.0331662 0.308551 0)
(0.0334945 0.300304 0)
(0.0336962 0.291258 0)
(0.033784 0.281597 0)
(0.0337735 0.271496 0)
(0.0336817 0.261102 0)
(0.0335257 0.250541 0)
(0.0333214 0.239907 0)
(0.033083 0.229271 0)
(0.0328218 0.218676 0)
(0.0325462 0.208143 0)
(0.0322614 0.197676 0)
(0.0319692 0.187265 0)
(0.031669 0.176892 0)
(0.0313574 0.166532 0)
(0.0310293 0.156159 0)
(0.0306782 0.145749 0)
(0.0302966 0.13528 0)
(0.0298764 0.124733 0)
(0.000255078 0.021052 0)
(0.00149865 0.0599132 0)
(0.00380773 0.0954213 0)
(0.00656397 0.127351 0)
(0.0094166 0.155583 0)
(0.0121465 0.180212 0)
(0.0146203 0.201545 0)
(0.0167897 0.220043 0)
(0.0186737 0.236231 0)
(0.0203332 0.250609 0)
(0.0218454 0.263587 0)
(0.0232857 0.275448 0)
(0.0247145 0.286337 0)
(0.0261712 0.296281 0)
(0.0276738 0.305213 0)
(0.0292213 0.313007 0)
(0.0307984 0.319515 0)
(0.0323798 0.324589 0)
(0.0339354 0.328106 0)
(0.0354333 0.329981 0)
(0.036843 0.330179 0)
(0.0381377 0.328712 0)
(0.0392961 0.325643 0)
(0.0403028 0.321078 0)
(0.0411496 0.315159 0)
(0.0418349 0.308055 0)
(0.0423638 0.29995 0)
(0.0427467 0.291032 0)
(0.0429986 0.281486 0)
(0.0431374 0.27148 0)
(0.0431826 0.261164 0)
(0.0431535 0.250663 0)
(0.0430686 0.240074 0)
(0.0429439 0.229468 0)
(0.0427925 0.218892 0)
(0.042624 0.208371 0)
(0.0424446 0.197913 0)
(0.0422567 0.18751 0)
(0.0420598 0.177146 0)
(0.0418505 0.166801 0)
(0.0416232 0.156449 0)
(0.0413708 0.146067 0)
(0.0410852 0.135634 0)
(0.0407574 0.125131 0)
(0.000260634 0.020247 0)
(0.0015619 0.0579822 0)
(0.00401953 0.0927995 0)
(0.00700956 0.12441 0)
(0.0101728 0.152612 0)
(0.0132758 0.177406 0)
(0.0161659 0.199004 0)
(0.0187758 0.217791 0)
(0.0211085 0.234234 0)
(0.0232134 0.248801 0)
(0.0251618 0.261895 0)
(0.0270267 0.273802 0)
(0.0288691 0.284688 0)
(0.0307302 0.294598 0)
(0.0326295 0.303488 0)
(0.0345671 0.311249 0)
(0.0365272 0.317743 0)
(0.0384835 0.322833 0)
(0.0404036 0.326398 0)
(0.0422533 0.328355 0)
(0.0439996 0.328664 0)
(0.0456135 0.327333 0)
(0.0470716 0.324419 0)
(0.0483575 0.320021 0)
(0.0494623 0.314274 0)
(0.0503845 0.30734 0)
(0.0511298 0.299396 0)
(0.0517099 0.290626 0)
(0.0521414 0.28121 0)
(0.052444 0.271315 0)
(0.0526393 0.261089 0)
(0.052749 0.250657 0)
(0.0527935 0.240119 0)
(0.0527909 0.229549 0)
(0.0527558 0.218997 0)
(0.0526996 0.208491 0)
(0.0526292 0.198043 0)
(0.052548 0.18765 0)
(0.0524558 0.177298 0)
(0.0523494 0.166968 0)
(0.0522231 0.156639 0)
(0.0520694 0.146287 0)
(0.0518795 0.135894 0)
(0.051644 0.125439 0)
(0.000263946 0.0194146 0)
(0.00161132 0.0559527 0)
(0.00419549 0.0899989 0)
(0.00739295 0.12121 0)
(0.0108403 0.149312 0)
(0.0142924 0.174215 0)
(0.0175793 0.196043 0)
(0.0206146 0.2151 0)
(0.023385 0.231794 0)
(0.0259272 0.246556 0)
(0.028305 0.259774 0)
(0.0305883 0.27174 0)
(0.032838 0.282633 0)
(0.035097 0.292518 0)
(0.0373868 0.301373 0)
(0.0397088 0.309106 0)
(0.0420478 0.315594 0)
(0.0443767 0.320708 0)
(0.0466617 0.324332 0)
(0.0488663 0.326382 0)
(0.0509551 0.326817 0)
(0.0528968 0.325639 0)
(0.054666 0.322899 0)
(0.0562445 0.318689 0)
(0.0576226 0.313134 0)
(0.0587981 0.30639 0)
(0.059777 0.298628 0)
(0.0605714 0.290024 0)
(0.0611992 0.280755 0)
(0.0616815 0.270986 0)
(0.0620416 0.260862 0)
(0.062303 0.250511 0)
(0.0624882 0.240033 0)
(0.0626169 0.229507 0)
(0.0627059 0.218984 0)
(0.0627675 0.208498 0)
(0.0628103 0.198065 0)
(0.0628386 0.187683 0)
(0.0628528 0.177345 0)
(0.06285 0.167033 0)
(0.0628248 0.156729 0)
(0.0627694 0.146411 0)
(0.0626748 0.136059 0)
(0.062531 0.125658 0)
(0.000265108 0.0185618 0)
(0.00164706 0.0538425 0)
(0.00433522 0.087044 0)
(0.00771241 0.117779 0)
(0.0114151 0.145708 0)
(0.0151896 0.170663 0)
(0.0188504 0.19268 0)
(0.0222933 0.211985 0)
(0.0254877 0.228921 0)
(0.028457 0.243882 0)
(0.0312561 0.257234 0)
(0.0339507 0.269269 0)
(0.0366009 0.280178 0)
(0.0392509 0.290048 0)
(0.0419246 0.298873 0)
(0.0446253 0.306584 0)
(0.0473387 0.313071 0)
(0.0500378 0.318215 0)
(0.0526877 0.321905 0)
(0.0552501 0.324059 0)
(0.0576873 0.324631 0)
(0.0599657 0.323621 0)
(0.0620576 0.321071 0)
(0.0639429 0.317066 0)
(0.0656102 0.311723 0)
(0.0670565 0.305188 0)
(0.0682872 0.297626 0)
(0.0693146 0.289208 0)
(0.0701568 0.280104 0)
(0.0708361 0.270476 0)
(0.0713771 0.26047 0)
(0.0718048 0.250213 0)
(0.0721433 0.239807 0)
(0.0724142 0.229332 0)
(0.0726358 0.218847 0)
(0.0728222 0.208387 0)
(0.0729832 0.197973 0)
(0.0731244 0.187607 0)
(0.0732472 0.177286 0)
(0.0733492 0.166996 0)
(0.0734253 0.156719 0)
(0.073468 0.146437 0)
(0.073468 0.136132 0)
(0.073415 0.125787 0)
(0.000264234 0.0176957 0)
(0.00166938 0.0516697 0)
(0.00443871 0.0839603 0)
(0.00796683 0.114145 0)
(0.0118941 0.14183 0)
(0.0159614 0.166776 0)
(0.0199704 0.188938 0)
(0.0237997 0.208462 0)
(0.0274017 0.22563 0)
(0.0307856 0.240788 0)
(0.0339963 0.254281 0)
(0.037094 0.266396 0)
(0.0401371 0.277332 0)
(0.0431711 0.287193 0)
(0.0462218 0.295995 0)
(0.049295 0.303688 0)
(0.0523781 0.310178 0)
(0.0554446 0.315355 0)
(0.0584591 0.319116 0)
(0.0613818 0.321379 0)
(0.0641732 0.322099 0)
(0.0667971 0.321268 0)
(0.0692234 0.318922 0)
(0.0714299 0.315137 0)
(0.0734031 0.310022 0)
(0.0751385 0.303716 0)
(0.0766403 0.296373 0)
(0.0779203 0.288158 0)
(0.0789966 0.279237 0)
(0.0798919 0.269768 0)
(0.0806315 0.259896 0)
(0.0812417 0.249747 0)
(0.0817478 0.239426 0)
(0.0821732 0.229016 0)
(0.0825377 0.218577 0)
(0.0828571 0.208152 0)
(0.0831428 0.197763 0)
(0.0834015 0.187419 0)
(0.0836358 0.17712 0)
(0.0838444 0.166855 0)
(0.0840226 0.15661 0)
(0.0841633 0.146368 0)
(0.0842575 0.136112 0)
(0.0842947 0.125827 0)
(0.000261452 0.0168232 0)
(0.00167866 0.0494523 0)
(0.0045063 0.0807737 0)
(0.00815573 0.110338 0)
(0.012275 0.137709 0)
(0.0166031 0.162582 0)
(0.0209311 0.18484 0)
(0.0251224 0.204552 0)
(0.0291127 0.221935 0)
(0.0328963 0.237288 0)
(0.036507 0.250926 0)
(0.0399983 0.263128 0)
(0.0434261 0.274101 0)
(0.0468363 0.283961 0)
(0.0502569 0.292747 0)
(0.0536962 0.300424 0)
(0.0571438 0.306918 0)
(0.0605744 0.31213 0)
(0.0639525 0.315964 0)
(0.0672377 0.318341 0)
(0.0703885 0.319213 0)
(0.0733664 0.318569 0)
(0.0761388 0.316438 0)
(0.078681 0.312886 0)
(0.080977 0.308016 0)
(0.0830203 0.301954 0)
(0.0848134 0.294847 0)
(0.086367 0.286855 0)
(0.0876984 0.278136 0)
(0.0888301 0.268844 0)
(0.0897878 0.259123 0)
(0.0905985 0.249099 0)
(0.0912886 0.238877 0)
(0.0918827 0.228544 0)
(0.0924023 0.218164 0)
(0.0928648 0.207783 0)
(0.093283 0.197429 0)
(0.0936653 0.187115 0)
(0.0940155 0.176843 0)
(0.0943334 0.166609 0)
(0.0946153 0.1564 0)
(0.0948547 0.146202 0)
(0.095043 0.136001 0)
(0.0951699 0.12578 0)
(0.000256901 0.0159509 0)
(0.00167539 0.0472078 0)
(0.00453861 0.0775106 0)
(0.00827921 0.106391 0)
(0.0125565 0.133379 0)
(0.0171107 0.158116 0)
(0.0217257 0.180416 0)
(0.0262513 0.200279 0)
(0.0306073 0.217855 0)
(0.0347729 0.233394 0)
(0.0387698 0.24718 0)
(0.0426437 0.259477 0)
(0.046447 0.270493 0)
(0.0502252 0.280361 0)
(0.0540081 0.289133 0)
(0.0578066 0.296798 0)
(0.0616131 0.303296 0)
(0.0654039 0.308542 0)
(0.0691444 0.312449 0)
(0.0727934 0.31494 0)
(0.0763081 0.315967 0)
(0.079648 0.315516 0)
(0.0827778 0.313606 0)
(0.0856699 0.310299 0)
(0.0883058 0.305684 0)
(0.0906761 0.299881 0)
(0.0927814 0.293029 0)
(0.0946303 0.285276 0)
(0.096239 0.276777 0)
(0.0976292 0.267682 0)
(0.0988262 0.258131 0)
(0.0998573 0.248249 0)
(0.10075 0.238144 0)
(0.101529 0.227904 0)
(0.102218 0.217596 0)
(0.102836 0.207272 0)
(0.103397 0.196963 0)
(0.10391 0.186687 0)
(0.104382 0.176452 0)
(0.104814 0.166255 0)
(0.105202 0.156088 0)
(0.105542 0.14594 0)
(0.105825 0.135797 0)
(0.106042 0.125646 0)
(0.000250728 0.0150851 0)
(0.00166012 0.0449538 0)
(0.00453657 0.0741972 0)
(0.00833788 0.102336 0)
(0.012738 0.128874 0)
(0.0174817 0.153409 0)
(0.0223486 0.175697 0)
(0.0271773 0.195669 0)
(0.031873 0.213413 0)
(0.0363998 0.229125 0)
(0.0407666 0.243055 0)
(0.0450105 0.255451 0)
(0.0491788 0.266519 0)
(0.0533159 0.276399 0)
(0.057453 0.285163 0)
(0.0616037 0.292816 0)
(0.065763 0.299317 0)
(0.0699097 0.304595 0)
(0.0740103 0.308571 0)
(0.0780237 0.311174 0)
(0.0819062 0.312356 0)
(0.0856151 0.312097 0)
(0.0891128 0.310415 0)
(0.0923687 0.307358 0)
(0.0953611 0.30301 0)
(0.0980778 0.29748 0)
(0.100516 0.290896 0)
(0.102683 0.2834 0)
(0.104592 0.27514 0)
(0.106264 0.26626 0)
(0.107724 0.256898 0)
(0.108997 0.247178 0)
(0.110113 0.237208 0)
(0.111096 0.227078 0)
(0.111971 0.216859 0)
(0.112758 0.206606 0)
(0.113474 0.196355 0)
(0.114129 0.186129 0)
(0.114731 0.17594 0)
(0.115283 0.165789 0)
(0.115782 0.155672 0)
(0.116226 0.14558 0)
(0.116606 0.135501 0)
(0.116913 0.125425 0)
(0.00024308 0.0142317 0)
(0.00163349 0.0427071 0)
(0.00450127 0.0708599 0)
(0.00833283 0.0982052 0)
(0.0128196 0.124232 0)
(0.0177142 0.148501 0)
(0.0227951 0.170718 0)
(0.0278925 0.190753 0)
(0.0328983 0.208632 0)
(0.0377622 0.2245 0)
(0.0424801 0.238569 0)
(0.0470789 0.251065 0)
(0.0516004 0.262187 0)
(0.0560864 0.272086 0)
(0.060569 0.280844 0)
(0.0650642 0.288486 0)
(0.0695699 0.294987 0)
(0.0740675 0.300291 0)
(0.0785253 0.304331 0)
(0.0829029 0.307041 0)
(0.0871559 0.308373 0)
(0.0912401 0.308307 0)
(0.0951152 0.306852 0)
(0.0987479 0.30405 0)
(0.102113 0.299976 0)
(0.105195 0.294728 0)
(0.107988 0.288425 0)
(0.110496 0.281203 0)
(0.11273 0.273199 0)
(0.114708 0.264554 0)
(0.116454 0.255401 0)
(0.117994 0.245863 0)
(0.119355 0.236048 0)
(0.120563 0.226047 0)
(0.121644 0.215936 0)
(0.122618 0.20577 0)
(0.123503 0.195593 0)
(0.124313 0.185431 0)
(0.125056 0.175299 0)
(0.125735 0.165204 0)
(0.126353 0.155146 0)
(0.126904 0.145117 0)
(0.127385 0.13511 0)
(0.127785 0.125115 0)
(0.000234103 0.0133963 0)
(0.00159614 0.040484 0)
(0.004434 0.0675244 0)
(0.00826552 0.094033 0)
(0.0128021 0.11949 0)
(0.0178073 0.143431 0)
(0.0230618 0.165517 0)
(0.02839 0.185564 0)
(0.0336728 0.203542 0)
(0.0388462 0.219543 0)
(0.0438931 0.233739 0)
(0.0488296 0.246331 0)
(0.0536905 0.257511 0)
(0.0585144 0.26743 0)
(0.0633332 0.276184 0)
(0.0681647 0.283813 0)
(0.0730098 0.290311 0)
(0.0778529 0.295636 0)
(0.0826644 0.299732 0)
(0.0874049 0.30254 0)
(0.0920301 0.304016 0)
(0.0964944 0.304136 0)
(0.100755 0.302906 0)
(0.104777 0.30036 0)
(0.10853 0.296564 0)
(0.111995 0.291606 0)
(0.115164 0.285596 0)
(0.118035 0.278661 0)
(0.120619 0.27093 0)
(0.122929 0.262539 0)
(0.124988 0.253615 0)
(0.12682 0.24428 0)
(0.128451 0.234641 0)
(0.129908 0.224791 0)
(0.131215 0.214807 0)
(0.132396 0.204748 0)
(0.133469 0.194661 0)
(0.134448 0.184578 0)
(0.135345 0.174519 0)
(0.136164 0.164493 0)
(0.136908 0.154503 0)
(0.137575 0.144548 0)
(0.138162 0.13462 0)
(0.13866 0.124713 0)
(0.000223938 0.0125842 0)
(0.00154873 0.0383003 0)
(0.00433611 0.0642163 0)
(0.00813762 0.0898527 0)
(0.0126869 0.114687 0)
(0.0177611 0.138239 0)
(0.0231462 0.160134 0)
(0.0286644 0.18014 0)
(0.0341873 0.198175 0)
(0.039639 0.21428 0)
(0.0449893 0.228585 0)
(0.0502435 0.241267 0)
(0.055428 0.252502 0)
(0.0605773 0.262442 0)
(0.0657219 0.271192 0)
(0.070881 0.278807 0)
(0.0760582 0.285296 0)
(0.0812406 0.290633 0)
(0.0864014 0.294775 0)
(0.0915028 0.297671 0)
(0.0965007 0.29928 0)
(0.101349 0.299578 0)
(0.106003 0.298567 0)
(0.110423 0.296275 0)
(0.114578 0.292757 0)
(0.118445 0.288094 0)
(0.122009 0.282387 0)
(0.125268 0.27575 0)
(0.128225 0.268308 0)
(0.130894 0.260188 0)
(0.133292 0.251514 0)
(0.135442 0.242403 0)
(0.13737 0.232963 0)
(0.139101 0.223285 0)
(0.14066 0.213449 0)
(0.14207 0.203518 0)
(0.143351 0.193542 0)
(0.144519 0.183556 0)
(0.145585 0.173585 0)
(0.146557 0.163642 0)
(0.14744 0.153735 0)
(0.148233 0.143864 0)
(0.148933 0.134026 0)
(0.149534 0.124216 0)
(0.000212731 0.0118003 0)
(0.00149194 0.0361708 0)
(0.00420899 0.0609605 0)
(0.00795096 0.0856976 0)
(0.0124755 0.109864 0)
(0.0175757 0.132969 0)
(0.0230466 0.154612 0)
(0.0287106 0.174522 0)
(0.0344334 0.192567 0)
(0.0401284 0.208741 0)
(0.0457534 0.223134 0)
(0.0513021 0.235893 0)
(0.0567925 0.247177 0)
(0.0622531 0.257136 0)
(0.0677125 0.26588 0)
(0.07319 0.273476 0)
(0.0786915 0.27995 0)
(0.0842069 0.285291 0)
(0.0897122 0.289467 0)
(0.0951715 0.292438 0)
(0.100542 0.294167 0)
(0.105776 0.294631 0)
(0.110828 0.293829 0)
(0.115656 0.291784 0)
(0.120226 0.288542 0)
(0.124508 0.284175 0)
)
;

boundaryField
{
    movingWall
    {