/*--------------------------------*- C++ -*----------------------------------*\
  =========                 |
  \\      /  F ield         | OpenFOAM: The Open Source CFD Toolbox
   \\    /   O peration     | Website:  https://openfoam.org
    \\  /    A nd           | Version:  9
     \\/     M anipulation  |
\*---------------------------------------------------------------------------*/
FoamFile
{
    format      ascii;
    class       volScalarField;
    location    "0.75";
    object      p;
}
// * * * * * * * * * * * * * * * * * * * * * * * * * * * * * * * * * * * * * //

dimensions      [0 2 -2 0 0 0 0];

internalField   nonuniform List<scalar> 
1250
(
0.000196049
0.000228598
0.000263238
0.000300014
0.000338959
0.000380091
0.000423415
0.000468918
0.000516571
0.000566323
0.000618103
0.000671817
0.000727344
0.000784542
0.000843241
0.000903246
0.000964336
0.00102626
0.00108876
0.00115153
0.00121424
0.00127658
0.00133818
0.00139868
0.00145769
0.00151485
0.00156977
0.00162208
0.0016714
0.0017174
0.00175973
0.0017981
0.00183222
0.000216582
0.000248658
0.000282753
0.000318908
0.000357149
0.000397488
0.000439924
0.000484441
0.000531005
0.000579565
0.000630047
0.000682356
0.000736376
0.000791966
0.000848959
0.000907169
0.000966379
0.00102635
0.00108683
0.00114752
0.00120813
0.00126834
0.00132779
0.00138615
0.00144306
0.00149815
0.00155107
0.00160145
0.00164895
0.00169324
0.00173401
0.00177096
0.00180383
0.000231015
0.000262655
0.00029626
0.000331871
0.000369515
0.000409199
0.00045092
0.00049466
0.000540386
0.000588044
0.000637561
0.000688846
0.000741781
0.000796231
0.000852033
0.000909004
0.000966934
0.00102559
0.00108473
0.00114406
0.00120329
0.00126212
0.0013202
0.00137721
0.00143278
0.00148658
0.00153825
0.00158744
0.00163381
0.00167705
0.00171685
0.00175292
0.001785
0.000242288
0.000273468
0.000306567
0.000341634
0.000378692
0.000417749
0.000458802
0.000501834
0.000546809
0.000593677
0.000642367
0.000692787
0.000744827
0.000798352
0.000853205
0.000909207
0.000966154
0.00102382
0.00108195
0.00114028
0.00119852
0.00125636
0.00131348
0.00136955
0.00142421
0.00147714
0.00152797
0.00157636
0.00162199
0.00166453
0.00170369
0.00173918
0.00177074
0.000251233
0.000281911
0.000314469
0.00034896
0.000385412
0.000423833
0.000464219
0.000506556
0.000550811
0.000596935
0.00064486
0.000694498
0.000745741
0.00079846
0.000852501
0.00090769
0.000963826
0.00102069
0.00107803
0.00113559
0.00119308
0.00125019
0.00130661
0.001362
0.00141604
0.00146836
0.00151862
0.00156649
0.00161163
0.00165373
0.00169248
0.00172759
0.00175879
0.000257305
0.000287447
0.000319433
0.000353327
0.00038916
0.000426942
0.000466672
0.000508339
0.000551912
0.000597347
0.000644579
0.000693524
0.00074408
0.000796119
0.000849495
0.000904034
0.000959544
0.0010158
0.00107257
0.00112959
0.00118657
0.00124322
0.00129921
0.00135421
0.00140788
0.00145989
0.00150987
0.00155748
0.0016024
0.00164429
0.00168286
0.00171781
0.00174886
0.00026007
0.000289644
0.000321034
0.000354313
0.000389518
0.000426663
0.000465751
0.000506775
0.000549708
0.000594511
0.000641124
0.000689468
0.000739444
0.00079093
0.000843784
0.000897837
0.000952899
0.00100875
0.00106517
0.00112187
0.00117859
0.00123501
0.00129083
0.0013457
0.00139929
0.00145125
0.00150122
0.00154885
0.00159379
0.00163573
0.00167436
0.00170937
0.00174047
0.000259169
0.000288146
0.000318917
0.000351566
0.000386138
0.00042265
0.000461112
0.000501521
0.000543856
0.000588083
0.000634147
0.000681976
0.000731475
0.000782528
0.000834996
0.000888715
0.000943499
0.000999133
0.00105538
0.00111198
0.00116866
0.0012251
0.00128099
0.00133599
0.00138975
0.00144192
0.00149213
0.00154003
0.00158526
0.0016275
0.00166642
0.0017017
0.00173304
0.000254225
0.000282582
0.000312716
0.000344725
0.000378661
0.000414548
0.000452402
0.000492225
0.000534003
0.000577709
0.000623294
0.000670692
0.000719814
0.000770548
0.00082276
0.00087629
0.000930954
0.00098654
0.00104281
0.00109951
0.00115636
0.00121304
0.00126923
0.00132459
0.00137877
0.0014314
0.0014821
0.00153052
0.00157629
0.00161907
0.00165851
0.000244856
0.000272574
0.000302058
0.000333421
0.000366724
0.000401997
0.000439263
0.000478532
0.000519798
0.000563038
0.000608214
0.000655263
0.000704103
0.000754629
0.000806709
0.000860187
0.000914882
0.000970584
0.00102706
0.00108405
0.00114126
0.00119839
0.0012551
0.00131105
0.00136588
0.0014192
0.00147064
0.00151981
0.00156637
0.000230685
0.000257749
0.000286574
0.00031729
0.000349966
0.000384641
0.000421344
0.000460093
0.00050089
0.000543723
0.000588557
0.000635339
0.000683991
0.000734412
0.000786477
0.000840033
0.000894898
0.000950873
0.00100772
0.00106517
0.00112294
0.00118071
0.00123815
0.00129491
0.0013506
0.00140485
0.00145725
0.00150743
0.001555
0.000211338
0.000237738
0.000265901
0.000295973
0.000328033
0.000362127
0.000398293
0.000436558
0.000476935
0.000519416
0.000563976
0.000610566
0.000659117
0.000709533
0.000761692
0.000815447
0.000870623
0.000927007
0.00098437
0.00104245
0.00110095
0.00115955
0.00121792
0.00127568
0.00133246
0.00138785
0.00144143
0.00149283
0.00154167
0.000186446
0.000212177
0.000239678
0.000269111
0.000300567
0.0003341
0.000369758
0.000407577
0.000447578
0.000489761
0.000534108
0.000580579
0.000629109
0.00067961
0.000731963
0.000786026
0.000841623
0.000898551
0.000956574
0.00101543
0.00107482
0.00113442
0.00119389
0.00125285
0.00131091
0.00136764
0.00142263
0.00147548
0.00152582
0.000155642
0.000180699
0.000207539
0.000236341
0.000267207
0.000300199
0.000335377
0.000372784
0.00041245
0.000454383
0.000498573
0.000544987
0.000593568
0.00064423
0.000696863
0.000751326
0.000807448
0.000865025
0.000923825
0.000983583
0.001044
0.00110476
0.00116549
0.00122582
0.00128533
0.00134361
0.0014002
0.00145472
0.00150682
0.000118555
0.000142934
0.000169113
0.000197291
0.000227578
0.000260048
0.000294769
0.000331792
0.000371157
0.000412879
0.000456956
0.000503362
0.000552046
0.00060293
0.000655907
0.000710841
0.000767561
0.00082587
0.000885536
0.000946296
0.00100785
0.00106988
0.001132
0.00119385
0.00125499
0.00131499
0.00137337
0.00142979
0.00148388
7.48049e-05
9.84987e-05
0.000124015
0.00015157
0.000181286
0.000213245
0.000247522
0.00028418
0.000323264
0.000364799
0.00040879
0.000455217
0.000504035
0.000555172
0.000608527
0.000663969
0.000721331
0.000780412
0.000840994
0.000902816
0.000965581
0.00102896
0.00109258
0.00115605
0.00121895
0.00128082
0.00134117
0.00139968
0.00145603
2.3998e-05
4.69928e-05
7.18375e-05
9.87643e-05
0.000127905
0.000159351
0.000193186
0.00022948
0.000268285
0.000309635
0.00035354
0.000399985
0.000448932
0.000500314
0.00055404
0.00060998
0.000667964
0.000727815
0.000789311
0.0008522
0.000916186
0.000980939
0.0010461
0.00111126
0.00117601
0.00123985
0.0013023
0.0013631
0.00142194
-3.4279e-05
-1.20101e-05
1.21406e-05
3.84197e-05
6.69672e-05
9.7881e-05
0.000131253
0.00016716
0.000205661
0.000246794
0.000290575
0.000336994
0.000386018
0.000437584
0.000491607
0.000547957
0.000606461
0.000667021
0.000729363
0.000793245
0.000858386
0.00092446
0.000991113
0.00105795
0.00112455
0.00119042
0.00125506
0.00131827
0.00137983
-0.000100468
-7.89725e-05
-5.55563e-05
-2.99635e-05
-2.0503e-06
2.82872e-05
6.11465e-05
9.66103e-05
0.000134741
0.000175581
0.000219149
0.00026544
0.000314422
0.000366037
0.000420196
0.000476793
0.000535713
0.000596718
0.00065971
0.0007244
0.000790505
0.000857721
0.000925706
0.000994085
0.00106244
0.00113027
0.00119707
0.00126278
0.00132722
-0.000175074
-0.000154413
-0.000131788
-0.000106943
-7.97333e-05
-5.00509e-05
-1.77941e-05
1.71222e-05
5.47626e-05
9.51701e-05
0.000138365
0.000184343
0.000233074
0.000284502
0.000338544
0.000395093
0.000454023
0.000515158
0.000578495
0.000643636
0.000710337
0.000778328
0.000847297
0.000916895
0.00098672
0.00105627
0.00112507
0.00119321
0.00126059
-0.000276635
-0.000258623
-0.000238892
-0.000217147
-0.000193141
-0.000166744
-0.000137843
-0.000106334
-7.21331e-05
-3.51765e-05
4.57597e-06
4.71412e-05
9.25123e-05
0.000140659
0.000191526
0.000245038
0.000301092
0.000359534
0.000420045
0.000483314
0.000548297
0.000614955
0.000683082
0.000752407
0.00082262
0.000893356
0.00096413
0.00103449
0.00110477
0.00117497
-0.000368628
-0.000351693
-0.000333016
-0.000312269
-0.00028925
-0.000263834
-0.000235905
-0.000205362
-0.000172127
-0.000136144
-9.73807e-05
-5.58306e-05
-1.15085e-05
3.55495e-05
8.5289e-05
0.00013764
0.000192522
0.000249878
0.000309771
0.000371204
0.000434889
0.000500464
0.000567689
0.00063633
0.000706135
0.000776797
0.000847867
0.000918965
0.000990748
0.0010633
-0.000470616
-0.0004549
-0.000437425
-0.000417871
-0.000396056
-0.00037186
-0.000345175
-0.00031591
-0.000284
-0.000249406
-0.000212114
-0.000172136
-0.000129502
-8.42634e-05
-3.64841e-05
1.37606e-05
6.6391e-05
0.000121329
0.000178487
0.00023758
0.000298674
0.000361666
0.000426405
0.000492722
0.000560476
0.000629455
0.000699272
0.000769679
0.000841754
0.000915692
-0.000583234
-0.00056892
-0.000552871
-0.000534769
-0.000514448
-0.000491801
-0.000466733
-0.000439177
-0.000409091
-0.000376466
-0.000341318
-0.00030369
-0.000263643
-0.000221255
-0.000176613
-0.000129811
-8.09355e-05
-3.00735e-05
2.26924e-05
7.72663e-05
0.000133623
0.000191721
0.000251557
0.000313083
0.000376278
0.000441072
0.000507185
0.000574588
0.000644917
0.00071848
-0.000707177
-0.000694519
-0.000680191
-0.000663878
-0.000645432
-0.000624768
-0.000601819
-0.000576553
-0.000548968
-0.0005191
-0.000487014
-0.000452802
-0.000416576
-0.000378462
-0.00033859
-0.000297085
-0.000254061
-0.00020961
-0.0001638
-0.000116661
-6.81572e-05
-1.82518e-05
3.30669e-05
8.61922e-05
0.000141133
0.000198018
0.000256721
0.000317576
0.00038295
0.000453266
-0.000843194
-0.000832528
-0.000820301
-0.00080621
-0.000790133
-0.000772021
-0.000751852
-0.000729645
-0.00070546
-0.000679401
-0.000651605
-0.000622243
-0.000591505
-0.000559595
-0.000526713
-0.000493047
-0.000458755
-0.000423956
-0.000388714
-0.000353024
-0.000316797
-0.000279819
-0.000241739
-0.000202351
-0.000161083
-0.000117482
-7.15128e-05
-2.2355e-05
3.32907e-05
9.59976e-05
-0.000992093
-0.000983845
-0.000974201
-0.000962883
-0.000949808
-0.000934982
-0.000918448
-0.0009003
-0.00088069
-0.000859818
-0.000837932
-0.000815316
-0.000792283
-0.000769151
-0.000746236
-0.000723825
-0.000702161
-0.000681418
-0.000661672
-0.00064289
-0.000624901
-0.00060735
-0.00058962
-0.000570937
-0.000550502
-0.000527863
-0.000501983
-0.00047167
-0.000432467
-0.000383593
-0.00115474
-0.00114944
-0.00114298
-0.00113513
-0.00112585
-0.00111524
-0.00110343
-0.00109063
-0.0010771
-0.0010632
-0.00104932
-0.00103593
-0.0010235
-0.00101252
-0.0010035
-0.000996865
-0.000992996
-0.000992158
-0.000994468
-0.000999859
-0.00100806
-0.00101854
-0.00103042
-0.00104228
-0.00105252
-0.00106009
-0.0010643
-0.00106251
-0.00104877
-0.0010222
-0.00133206
-0.00133036
-0.00132782
-0.00132428
-0.0013198
-0.00131457
-0.00130886
-0.00130301
-0.00129749
-0.00129283
-0.00128965
-0.00128865
-0.00129055
-0.00129611
-0.00130606
-0.00132106
-0.0013417
-0.00136836
-0.00140124
-0.00144022
-0.00148493
-0.00153467
-0.00158812
-0.00164271
-0.00169568
-0.00174625
-0.00179308
-0.00183196
-0.0018558
-0.00186306
-0.00152503
-0.00152769
-0.00152998
-0.0015318
-0.00153333
-0.00153492
-0.001537
-0.00154013
-0.00154501
-0.00155244
-0.00156335
-0.00157875
-0.00159973
-0.00162736
-0.00166274
-0.00170684
-0.00176049
-0.00182428
-0.00189847
-0.00198288
-0.00207698
-0.00217992
-0.00228956
-0.00240073
-0.0025114
-0.00173464
-0.00174261
-0.0017508
-0.00175923
-0.00176826
-0.00177841
-0.00179036
-0.00180494
-0.00182318
-0.00184624
-0.00187544
-0.00191224
-0.00195818
-0.0020148
-0.00208365
-0.00216611
-0.00226332
-0.00237611
-0.00250476
-0.00264898
-0.00280797
-0.00298042
-0.00316318
-0.003349
-0.00353535
-0.00196193
-0.0019763
-0.00199166
-0.00200821
-0.0020265
-0.00204732
-0.00207164
-0.00210069
-0.00213587
-0.00217886
-0.00223149
-0.00229579
-0.00237389
-0.00246795
-0.00258005
-0.00271209
-0.00286559
-0.00304157
-0.00324034
-0.00346135
-0.00370333
-0.00396425
-0.00423967
-0.00452051
-0.00480326
-0.00220795
-0.00222999
-0.00225402
-0.00228044
-0.00231008
-0.00234405
-0.00238374
-0.00243082
-0.00248726
-0.00255532
-0.00263754
-0.00273665
-0.00285553
-0.00299708
-0.00316407
-0.00335893
-0.00358361
-0.00383927
-0.0041261
-0.00444316
-0.00478843
-0.0051588
-0.00554828
-0.00594601
-0.00634707
-0.00247371
-0.00250489
-0.00253931
-0.00257764
-0.00262105
-0.00267109
-0.00272964
-0.00279896
-0.00288172
-0.00298093
-0.00309998
-0.00324248
-0.00341223
-0.00361298
-0.00384825
-0.00412109
-0.00443379
-0.00478756
-0.00518226
-0.00561624
-0.00608645
-0.00658827
-0.00711377
-0.00765023
-0.00819105
-0.00276021
-0.00280219
-0.00284896
-0.00290152
-0.0029615
-0.00303095
-0.00311239
-0.00320883
-0.00332374
-0.00346112
-0.00362533
-0.00382107
-0.00405317
-0.00432634
-0.00464492
-0.00501251
-0.00543163
-0.0059033
-0.00642672
-0.00699919
-0.00761624
-0.00827118
-0.00895349
-0.00964901
-0.010349
-0.00306835
-0.00312299
-0.0031843
-0.00325373
-0.00333342
-0.00342608
-0.00353499
-0.00366405
-0.00381775
-0.0040012
-0.00421997
-0.00447995
-0.00478714
-0.00514725
-0.0055654
-0.00604561
-0.0065904
-0.00720029
-0.00787337
-0.00860534
-0.00938988
-0.0102177
-0.0110745
-0.0119469
-0.00339894
-0.00346828
-0.00354658
-0.00363579
-0.00373869
-0.00385878
-0.00400025
-0.00416806
-0.00436791
-0.00460617
-0.00488979
-0.00522598
-0.00562194
-0.0060844
-0.00661908
-0.00723019
-0.00791992
-0.00868788
-0.00953049
-0.0104409
-0.0114106
-0.0124274
-0.0134742
-0.0145354
-0.00375263
-0.0038389
-0.00393683
-0.00404899
-0.00417893
-0.00433106
-0.00451066
-0.0047239
-0.00497784
-0.00528034
-0.00563979
-0.00606482
-0.0065638
-0.00714433
-0.00781253
-0.00857241
-0.00942537
-0.0103697
-0.0113994
-0.0125039
-0.0136721
-0.00412987
-0.00423545
-0.00435585
-0.00449436
-0.00465544
-0.00484455
-0.0050682
-0.00533397
-0.00565044
-0.00602703
-0.00647368
-0.00700041
-0.00761669
-0.00833071
-0.00914861
-0.0100737
-0.011106
-0.0122417
-0.0134721
-0.0147827
-0.0161586
-0.00453089
-0.00465827
-0.00480411
-0.00497256
-0.00516906
-0.00540032
-0.00567422
-0.00599987
-0.00638751
-0.0068482
-0.00739344
-0.00803453
-0.0087818
-0.0096437
-0.0106259
-0.0117305
-0.0129553
-0.0142936
-0.0157335
-0.0172566
-0.0188436
-0.00495564
-0.00510738
-0.00528173
-0.00548376
-0.00572009
-0.00599876
-0.00632921
-0.00672217
-0.00718959
-0.00774421
-0.00839901
-0.00916637
-0.0100572
-0.0110796
-0.0122384
-0.0135337
-0.0149604
-0.0165084
-0.0181616
-0.019898
-0.0216935
-0.00540372
-0.00558239
-0.00578832
-0.0060276
-0.00630813
-0.00663946
-0.00703268
-0.00750021
-0.0080557
-0.00871353
-0.00948798
-0.0103923
-0.0114373
-0.0126308
-0.0139755
-0.015469
-0.0171028
-0.0188626
-0.020728
-0.0226729
-0.0246684
-0.00587446
-0.00608257
-0.00632306
-0.00660315
-0.00693205
-0.00732107
-0.00778302
-0.00833195
-0.00898316
-0.00975254
-0.0106555
-0.0117056
-0.0129135
-0.0142854
-0.015822
-0.0175174
-0.0193591
-0.0213282
-0.0233995
-0.025543
-0.0277256
-0.00636722
-0.00660723
-0.00688516
-0.00720945
-0.0075905
-0.0080418
-0.00857762
-0.00921399
-0.00996757
-0.0108555
-0.0118941
-0.0130968
-0.0144734
-0.0160281
-0.0177589
-0.0196559
-0.021702
-0.0238733
-0.0261402
-0.0284687
-0.0308217
-0.00941368
-0.010142
-0.0110031
-0.0120149
-0.0131941
-0.0145537
-0.0161019
-0.0178404
-0.0197643
-0.0218588
-0.0241019
-0.026465
-0.0289138
-0.0314108
-0.0339158
-0.0240988
-0.0265285
-0.0290699
-0.0316849
-0.0343328
-0.0369709
)
;

boundaryField
{
    movingWall
    {
        type            zeroGradient;
    }
    fixedWalls
    {
        type            zeroGradient;
    }
    frontAndBack
    {
        type            empty;
    }
    procBoundary1to0
    {
        type            processor;
        value           nonuniform List<scalar> 
45
(
0.000165544
0.000186484
0.000201303
0.000212991
0.000222395
0.000228967
0.000232266
0.000231931
0.000227583
0.000218833
0.000205299
0.000186605
0.000162377
0.000132246
9.58397e-05
5.27805e-05
2.68013e-06
-5.48655e-05
-0.000120285
-0.000194028
-0.000194028
-0.000292986
-0.000383958
-0.000484774
-0.000596047
-0.000718409
-0.000852543
-0.000999179
-0.0011591
-0.00133312
-0.0015221
-0.00172692
-0.00194847
-0.00218765
-0.00244532
-0.0027223
-0.00301935
-0.00333711
-0.00367608
-0.0040366
-0.00441879
-0.00482254
-0.00524743
-0.00569284
-0.00615811
)
;
    }
    procBoundary1to3
    {
        type            processor;
        value           nonuniform List<scalar> 
23
(
-0.00688093
-0.00715536
-0.00747369
-0.00784574
-0.00828285
-0.00879953
-0.00879953
-0.0102877
-0.0111121
-0.0120845
-0.0132237
-0.0145462
-0.0160643
-0.017784
-0.0197036
-0.0218143
-0.0218143
-0.0263493
-0.028952
-0.0316563
-0.0344204
-0.0372013
-0.0399545
)
;
    }
    procBoundary1to6
    {
        type            processor;
        value           nonuniform List<scalar> 
26
(
-0.00262144
-0.00272673
-0.00282159
-0.00289827
-0.0029532
-0.00262144
-0.00372284
-0.00508807
-0.00675
-0.00873222
-0.0110461
-0.0128225
-0.0128225
-0.0148896
-0.0161363
-0.0155962
-0.0173926
-0.0148896
-0.017583
-0.0204744
-0.0235236
-0.0266859
-0.0299143
-0.0331629
-0.0363899
-0.0395586
)
;
    }
    procBoundary1to7
    {
        type            processor;
        value           nonuniform List<scalar> 
33
(
0.00186189
0.00183242
0.0018129
0.00179817
0.00178591
0.00177584
0.00176748
0.00169427
0.00176025
0.00172604
0.00160994
0.00169427
0.00165011
0.00160994
0.00159957
0.00158749
0.00157313
0.00155589
0.00153497
0.0015094
0.00147786
0.00143856
0.00138897
0.0013255
0.001243
0.00113413
0.000988526
0.00079181
0.000524562
0.00016136
-0.000329819
-0.000987707
-0.00185759
)
;
    }
}


// ************************************************************************* //
