/*--------------------------------*- C++ -*----------------------------------*\
  =========                 |
  \\      /  F ield         | OpenFOAM: The Open Source CFD Toolbox
   \\    /   O peration     | Website:  https://openfoam.org
    \\  /    A nd           | Version:  9
     \\/     M anipulation  |
\*---------------------------------------------------------------------------*/
FoamFile
{
    format      ascii;
    class       surfaceScalarField;
    location    "0.75";
    object      phi;
}
// * * * * * * * * * * * * * * * * * * * * * * * * * * * * * * * * * * * * * //

dimensions      [0 3 -1 0 0 0 0];

internalField   nonuniform List<scalar> 
2420
(
-2.34473e-08
9.0643e-10
-2.43368e-08
8.89456e-10
-2.52063e-08
8.69494e-10
-2.60523e-08
8.46061e-10
-2.68711e-08
8.18748e-10
-2.76583e-08
7.87237e-10
-2.84096e-08
7.51255e-10
-2.91201e-08
7.10563e-10
-2.97851e-08
6.64963e-10
-3.03994e-08
6.14305e-10
-3.09579e-08
5.58486e-10
-3.14554e-08
4.97462e-10
-3.18866e-08
4.31247e-10
-3.22465e-08
3.59924e-10
-3.25302e-08
2.83647e-10
-3.27328e-08
2.02647e-10
-3.28501e-08
1.17239e-10
-3.28779e-08
2.78334e-11
-3.28127e-08
-6.51972e-11
-3.26515e-08
-1.61196e-10
-3.23919e-08
-2.59571e-10
-3.20323e-08
-3.5962e-10
-3.15717e-08
-4.60571e-10
-3.10102e-08
-5.61594e-10
-3.03484e-08
-6.61802e-10
-2.95881e-08
-7.60272e-10
-2.8732e-08
-8.56049e-10
-2.77839e-08
-9.48164e-10
-2.67482e-08
-1.03565e-09
-2.56307e-08
-1.11755e-09
-2.44377e-08
-1.19293e-09
-2.3177e-08
-1.26073e-09
-1.32011e-09
-6.71519e-08
3.43015e-09
-6.96206e-08
3.35806e-09
-7.20254e-08
3.27439e-09
-7.4357e-08
3.17765e-09
-7.66048e-08
3.06654e-09
-7.87575e-08
2.93997e-09
-8.08033e-08
2.797e-09
-8.27296e-08
2.63685e-09
-8.45235e-08
2.45888e-09
-8.61718e-08
2.26262e-09
-8.76611e-08
2.04781e-09
-8.89781e-08
1.81438e-09
-9.01093e-08
1.56249e-09
-9.10419e-08
1.29255e-09
-9.17635e-08
1.00522e-09
-9.22623e-08
7.01419e-10
-9.25274e-08
3.82379e-10
-9.25492e-08
4.9663e-11
-9.23192e-08
-2.95221e-10
-9.18304e-08
-6.50012e-10
-9.10775e-08
-1.01243e-09
-9.00572e-08
-1.37996e-09
-8.8768e-08
-1.74981e-09
-8.72106e-08
-2.11901e-09
-8.53879e-08
-2.48443e-09
-8.33054e-08
-2.84278e-09
-8.09707e-08
-3.19073e-09
-7.8394e-08
-3.52489e-09
-7.55878e-08
-3.84187e-09
-7.2567e-08
-4.13835e-09
-6.93489e-08
-4.41107e-09
-6.59528e-08
-4.65676e-09
-4.87266e-09
-1.07833e-07
7.39718e-09
-1.11704e-07
7.22894e-09
-1.15465e-07
7.03539e-09
-1.19101e-07
6.8137e-09
-1.22596e-07
6.56136e-09
-1.25932e-07
6.27626e-09
-1.29092e-07
5.95655e-09
-1.32056e-07
5.60072e-09
-1.34805e-07
5.20759e-09
-1.37318e-07
4.77635e-09
-1.39577e-07
4.3066e-09
-1.41561e-07
3.79839e-09
-1.43251e-07
3.25223e-09
-1.44627e-07
2.66915e-09
-1.45673e-07
2.0507e-09
-1.46371e-07
1.399e-09
-1.46705e-07
7.16673e-10
-1.46663e-07
7.46788e-12
-1.46232e-07
-7.26085e-10
-1.45403e-07
-1.47842e-09
-1.44171e-07
-2.24512e-09
-1.4253e-07
-3.02084e-09
-1.4048e-07
-3.79981e-09
-1.38023e-07
-4.57587e-09
-1.35165e-07
-5.34256e-09
-1.31914e-07
-6.09321e-09
-1.28284e-07
-6.82099e-09
-1.2429e-07
-7.51901e-09
-1.19951e-07
-8.18046e-09
-1.15291e-07
-8.79863e-09
-1.10335e-07
-9.36699e-09
-1.05113e-07
-9.87921e-09
-1.033e-08
-1.45649e-07
1.26516e-08
-1.50765e-07
1.23443e-08
-1.55722e-07
1.19932e-08
-1.60503e-07
1.1594e-08
-1.65084e-07
1.11428e-08
-1.69444e-07
1.06363e-08
-1.73559e-07
1.00716e-08
-1.77405e-07
9.44652e-09
-1.80957e-07
8.75922e-09
-1.84189e-07
8.00866e-09
-1.87077e-07
7.19446e-09
-1.89596e-07
6.31696e-09
-1.91721e-07
5.37731e-09
-1.93429e-07
4.3775e-09
-1.94699e-07
3.3204e-09
-1.9551e-07
2.20978e-09
-1.95843e-07
1.05031e-09
-1.95684e-07
-1.52166e-10
-1.95018e-07
-1.3919e-09
-1.93835e-07
-2.66084e-09
-1.92129e-07
-3.95108e-09
-1.89896e-07
-5.25373e-09
-1.87137e-07
-6.55925e-09
-1.83855e-07
-7.85749e-09
-1.8006e-07
-9.1379e-09
-1.75764e-07
-1.03896e-08
-1.70983e-07
-1.16014e-08
-1.6574e-07
-1.27622e-08
-1.6006e-07
-1.3861e-08
-1.53971e-07
-1.48871e-08
-1.47508e-07
-1.583e-08
-1.40708e-07
-1.66797e-08
-1.7428e-08
-1.80756e-07
1.90536e-08
-1.86975e-07
1.85634e-08
-1.92989e-07
1.80066e-08
-1.98772e-07
1.73771e-08
-2.04299e-07
1.66698e-08
-2.09543e-07
1.58801e-08
-2.14475e-07
1.50041e-08
-2.19067e-07
1.40388e-08
-2.2329e-07
1.2982e-08
-2.27114e-07
1.18326e-08
-2.3051e-07
1.05903e-08
-2.33449e-07
9.25609e-09
-2.35904e-07
7.83203e-09
-2.37848e-07
6.32145e-09
-2.39256e-07
4.72896e-09
-2.40107e-07
3.06046e-09
-2.4038e-07
1.32315e-09
-2.40058e-07
-4.74429e-10
-2.39127e-07
-2.3228e-09
-2.37577e-07
-4.21078e-09
-2.35401e-07
-6.12639e-09
-2.32599e-07
-8.05658e-09
-2.2917e-07
-9.9874e-09
-2.25124e-07
-1.19041e-08
-2.2047e-07
-1.37915e-08
-2.15226e-07
-1.56337e-08
-2.09413e-07
-1.74149e-08
-2.03056e-07
-1.91191e-08
-1.96186e-07
-2.07305e-08
-1.88839e-07
-2.2234e-08
-1.81055e-07
-2.36147e-08
-1.72876e-07
-2.48586e-08
-2.59542e-08
-2.13315e-07
2.64788e-08
-2.20513e-07
2.57614e-08
-2.27457e-07
2.49506e-08
-2.34118e-07
2.40387e-08
-2.40468e-07
2.30191e-08
-2.46474e-07
2.18859e-08
-2.52104e-07
2.06345e-08
-2.57326e-07
1.92611e-08
-2.62108e-07
1.77634e-08
-2.66415e-07
1.61402e-08
-2.70217e-07
1.43917e-08
-2.7348e-07
1.25198e-08
-2.76176e-07
1.05279e-08
-2.78276e-07
8.42102e-09
-2.79753e-07
6.20589e-09
-2.80583e-07
3.891e-09
-2.80747e-07
1.48654e-09
-2.80225e-07
-9.95632e-10
-2.79006e-07
-3.5421e-09
-2.77079e-07
-6.13777e-09
-2.74439e-07
-8.76621e-09
-2.71086e-07
-1.14097e-08
-2.67024e-07
-1.40494e-08
-2.62263e-07
-1.66656e-08
-2.56816e-07
-1.92378e-08
-2.50705e-07
-2.17449e-08
-2.43954e-07
-2.41659e-08
-2.36594e-07
-2.64795e-08
-2.28659e-07
-2.86651e-08
-2.20191e-07
-3.07025e-08
-2.11233e-07
-3.25723e-08
-2.01836e-07
-3.42561e-08
-3.57389e-08
-2.43489e-07
3.48172e-08
-2.51556e-07
3.38287e-08
-2.59322e-07
3.27164e-08
-2.66754e-07
3.1471e-08
-2.73819e-07
3.00843e-08
-2.80483e-07
2.85496e-08
-2.8671e-07
2.68612e-08
-2.92464e-07
2.50152e-08
-2.97709e-07
2.30089e-08
-3.02411e-07
2.08415e-08
-3.06533e-07
1.85142e-08
-3.10043e-07
1.60299e-08
-3.12909e-07
1.33935e-08
-3.151e-07
1.06124e-08
-3.1659e-07
7.69584e-09
-3.17354e-07
4.65522e-09
-3.17372e-07
1.50419e-09
-3.16626e-07
-1.74161e-09
-3.15104e-07
-5.06455e-09
-3.12796e-07
-8.44507e-09
-3.09701e-07
-1.18619e-08
-3.05818e-07
-1.52924e-08
-3.01155e-07
-1.87124e-08
-2.95724e-07
-2.20968e-08
-2.89542e-07
-2.54195e-08
-2.82633e-07
-2.86542e-08
-2.75025e-07
-3.17739e-08
-2.66752e-07
-3.47522e-08
-2.57854e-07
-3.7563e-08
-2.48376e-07
-4.01812e-08
-2.38365e-07
-4.25825e-08
-2.27877e-07
-4.47444e-08
-4.66475e-08
-2.71445e-07
4.39726e-08
-2.80287e-07
4.26703e-08
-2.88781e-07
4.12104e-08
-2.96892e-07
3.95819e-08
-3.04583e-07
3.77756e-08
-3.11817e-07
3.57836e-08
-3.18555e-07
3.35999e-08
-3.2476e-07
3.122e-08
-3.30393e-07
2.86416e-08
-3.35416e-07
2.58645e-08
-3.39792e-07
2.28908e-08
-3.43487e-07
1.9725e-08
-3.46468e-07
1.63743e-08
-3.48704e-07
1.28482e-08
-3.50167e-07
9.15898e-09
-3.50833e-07
5.32153e-09
-3.50682e-07
1.35321e-09
-3.49698e-07
-2.72619e-09
-3.47868e-07
-6.89447e-09
-3.45186e-07
-1.11273e-08
-3.41649e-07
-1.53984e-08
-3.37262e-07
-1.96796e-08
-3.32033e-07
-2.39414e-08
-3.25977e-07
-2.81531e-08
-3.19113e-07
-3.22829e-08
-3.11469e-07
-3.62986e-08
-3.03075e-07
-4.01676e-08
-2.9397e-07
-4.38578e-08
-2.84195e-07
-4.73376e-08
-2.73799e-07
-5.05774e-08
-2.62833e-07
-5.3548e-08
-2.51356e-07
-2.97354e-07
5.38627e-08
-3.06889e-07
5.22053e-08
-3.16032e-07
5.03534e-08
-3.24745e-07
4.82946e-08
-3.32988e-07
4.60186e-08
-3.40721e-07
4.35167e-08
-3.47903e-07
4.07824e-08
-3.54495e-07
3.78114e-08
-3.60455e-07
3.46016e-08
-3.65744e-07
3.11539e-08
-3.70325e-07
2.74717e-08
-3.74162e-07
2.35614e-08
-3.7722e-07
1.94324e-08
-3.79469e-07
1.50973e-08
-3.80882e-07
1.05716e-08
-3.81434e-07
5.87375e-09
-3.81106e-07
1.02533e-09
-3.79883e-07
-3.94949e-09
-3.77753e-07
-9.02368e-09
-3.74713e-07
-1.41679e-08
-3.70761e-07
-1.93506e-08
-3.65902e-07
-2.45381e-08
-3.60148e-07
-2.96955e-08
-3.53515e-07
-3.4786e-08
-3.46026e-07
-3.97723e-08
-3.37708e-07
-4.46162e-08
-3.28596e-07
-4.92794e-08
-3.1873e-07
-5.37236e-08
-3.08155e-07
-5.79126e-08
-2.96921e-07
-3.21388e-07
6.44183e-08
-3.31549e-07
6.23665e-08
-3.41276e-07
6.00807e-08
-3.50529e-07
5.75471e-08
-3.59265e-07
5.47544e-08
-3.67441e-07
5.16933e-08
-3.75016e-07
4.83572e-08
-3.81946e-07
4.47418e-08
-3.88191e-07
4.08461e-08
-3.93709e-07
3.66719e-08
-3.98462e-07
3.22244e-08
-4.02413e-07
2.75124e-08
-4.05528e-07
2.25478e-08
-4.07777e-07
1.73463e-08
-4.09132e-07
1.1927e-08
-4.09571e-07
6.31257e-09
-4.09075e-07
5.28764e-10
-4.07628e-07
-5.39572e-09
-4.05223e-07
-1.14288e-08
-4.01855e-07
-1.75359e-08
-3.97526e-07
-2.36803e-08
-3.92241e-07
-2.98229e-08
-3.86013e-07
-3.59229e-08
-3.78861e-07
-4.1938e-08
-3.70809e-07
-4.78251e-08
-3.61885e-07
-5.35401e-08
-3.52126e-07
-5.90387e-08
-3.41572e-07
-6.42771e-08
-6.92144e-08
-3.43718e-07
7.55829e-08
-3.54452e-07
7.31002e-08
-3.64713e-07
7.03416e-08
-3.74458e-07
6.72918e-08
-3.83642e-07
6.3939e-08
-3.92222e-07
6.02733e-08
-4.00154e-07
5.62883e-08
-4.07392e-07
5.19802e-08
-4.13895e-07
4.73488e-08
-4.1962e-07
4.23978e-08
-4.2453e-07
3.71342e-08
-4.28587e-07
3.15693e-08
-4.31758e-07
2.57182e-08
-4.34011e-07
1.95999e-08
-4.35322e-07
1.32374e-08
-4.35666e-07
6.6575e-09
-4.35028e-07
-1.09255e-10
-4.33394e-07
-7.03018e-09
-4.30755e-07
-1.40675e-08
-4.27109e-07
-2.11819e-08
-4.22458e-07
-2.83312e-08
-4.1681e-07
-3.54712e-08
-4.10178e-07
-4.25554e-08
-4.02579e-07
-4.95362e-08
-3.9404e-07
-5.63646e-08
-3.84589e-07
-6.29909e-08
-3.74263e-07
-6.93652e-08
-3.63102e-07
-7.54379e-08
-8.11631e-08
-3.64518e-07
8.73128e-08
-3.75783e-07
8.43659e-08
-3.86541e-07
8.10989e-08
-3.96744e-07
7.74955e-08
-4.06348e-07
7.35431e-08
-4.15307e-07
6.9232e-08
-4.23574e-07
6.45557e-08
-4.31106e-07
5.95115e-08
-4.37858e-07
5.41006e-08
-4.43788e-07
4.83283e-08
-4.48858e-07
4.22042e-08
-4.53031e-07
3.57424e-08
-4.56274e-07
2.89612e-08
-4.58558e-07
2.18834e-08
-4.59856e-07
1.4536e-08
-4.60149e-07
6.95004e-09
-4.59419e-07
-8.39555e-10
-4.57654e-07
-8.79487e-09
-4.54847e-07
-1.68739e-08
-4.50997e-07
-2.50323e-08
-4.46105e-07
-3.32228e-08
-4.4018e-07
-4.13962e-08
-4.33235e-07
-4.95011e-08
-4.25286e-07
-5.74845e-08
-4.16359e-07
-6.52921e-08
-4.06481e-07
-7.2869e-08
-3.95686e-07
-8.01596e-08
-3.84016e-07
-8.71087e-08
-9.3665e-08
-3.83955e-07
9.95765e-08
-3.95724e-07
9.61358e-08
-4.06954e-07
9.23288e-08
-4.17597e-07
8.81386e-08
-4.27606e-07
8.3552e-08
-4.36934e-07
7.85595e-08
-4.45534e-07
7.31553e-08
-4.5336e-07
6.73378e-08
-4.60369e-07
6.11098e-08
-4.6652e-07
5.44789e-08
-4.71773e-07
4.74573e-08
-4.76093e-07
4.00624e-08
-4.79448e-07
3.2316e-08
-4.81809e-07
2.4245e-08
-4.83153e-07
1.58802e-08
-4.8346e-07
7.25718e-09
-4.82715e-07
-1.58495e-09
-4.80906e-07
-1.06036e-08
-4.78028e-07
-1.97524e-08
-4.74077e-07
-2.89827e-08
-4.69057e-07
-3.82428e-08
-4.62975e-07
-4.7479e-08
-4.5584e-07
-5.66353e-08
-4.4767e-07
-6.56545e-08
-4.38485e-07
-7.44773e-08
-4.2831e-07
-8.30439e-08
-4.17176e-07
-9.12936e-08
-4.05119e-07
-9.91658e-08
-1.06603e-07
-4.02194e-07
1.12354e-07
-4.14453e-07
1.08394e-07
-4.26145e-07
1.04021e-07
-4.37222e-07
9.92155e-08
-4.47635e-07
9.39655e-08
-4.57337e-07
8.82617e-08
-4.66281e-07
8.20993e-08
-4.74422e-07
7.54781e-08
-4.81715e-07
6.84031e-08
-4.88121e-07
6.08844e-08
-4.93601e-07
5.29375e-08
-4.98121e-07
4.4583e-08
-5.01652e-07
3.58469e-08
-5.04167e-07
2.67596e-08
-5.05643e-07
1.73566e-08
-5.06063e-07
7.6772e-09
-5.05413e-07
-2.23524e-09
-5.03682e-07
-1.23342e-08
-5.00865e-07
-2.25697e-08
-4.96959e-07
-3.28891e-08
-4.91964e-07
-4.32375e-08
-4.85885e-07
-5.35577e-08
-4.7873e-07
-6.37903e-08
-4.70511e-07
-7.38742e-08
-4.61241e-07
-8.37467e-08
-4.50942e-07
-9.33434e-08
-4.39636e-07
-1.02599e-07
-4.27354e-07
-1.11448e-07
-1.19826e-07
-4.19397e-07
1.25638e-07
-4.32141e-07
1.21139e-07
-4.44297e-07
1.16177e-07
-4.55816e-07
1.10734e-07
-4.66649e-07
1.04798e-07
-4.76747e-07
9.83599e-08
-4.86064e-07
9.14165e-08
-4.94556e-07
8.39697e-08
-5.0218e-07
7.6027e-08
-5.08897e-07
6.76017e-08
-5.14672e-07
5.87126e-08
-5.19473e-07
4.93842e-08
-5.23273e-07
3.96465e-08
-5.26047e-07
2.95341e-08
-5.27777e-07
1.90863e-08
-5.28446e-07
8.34633e-09
-5.28042e-07
-2.63907e-09
-5.26556e-07
-1.38204e-08
-5.23981e-07
-2.51447e-08
-5.20313e-07
-3.65572e-08
-5.1555e-07
-4.80008e-08
-5.09691e-07
-5.94162e-08
-5.02739e-07
-7.07422e-08
-4.94698e-07
-8.19155e-08
-4.85574e-07
-9.28707e-08
-4.75377e-07
-1.0354e-07
-4.64121e-07
-1.13855e-07
-4.51824e-07
-1.23745e-07
-1.33138e-07
-4.35716e-07
1.39432e-07
-4.48955e-07
1.34378e-07
-4.6159e-07
1.28812e-07
-4.73573e-07
1.22717e-07
-4.84853e-07
1.16079e-07
-4.95385e-07
1.08892e-07
-5.05122e-07
1.01154e-07
-5.14022e-07
9.28697e-08
-5.22045e-07
8.40501e-08
-5.29156e-07
7.47118e-08
-5.35321e-07
6.48777e-08
-5.40513e-07
5.45764e-08
-5.44708e-07
4.38419e-08
-5.47887e-07
3.2713e-08
-5.50034e-07
2.12326e-08
-5.51134e-07
9.44704e-09
-5.51179e-07
-2.59443e-09
-5.50158e-07
-1.48409e-08
-5.48065e-07
-2.7238e-08
-5.44892e-07
-3.97304e-08
-5.40632e-07
-5.22609e-08
-5.35277e-07
-6.47705e-08
-5.28821e-07
-7.71981e-08
-5.21257e-07
-8.948e-08
-5.12577e-07
-1.0155e-07
-5.02778e-07
-1.13339e-07
-4.91859e-07
-1.24775e-07
-4.7982e-07
-1.35783e-07
-1.46285e-07
-4.51298e-07
1.53748e-07
-4.65052e-07
1.48132e-07
-4.78195e-07
1.41955e-07
-4.90676e-07
1.35198e-07
-5.0245e-07
1.27852e-07
-5.1347e-07
1.19911e-07
-5.23693e-07
1.11377e-07
-5.3308e-07
1.02257e-07
-5.41595e-07
9.25654e-08
-5.49207e-07
8.23238e-08
-5.55889e-07
7.15595e-08
-5.61618e-07
6.03056e-08
-5.66377e-07
4.86005e-08
-5.7015e-07
3.64864e-08
-5.72927e-07
2.40093e-08
-5.74697e-07
1.12176e-08
-5.75454e-07
-1.83764e-09
-5.75187e-07
-1.51084e-08
-5.73886e-07
-2.85389e-08
-5.7154e-07
-4.20767e-08
-5.68133e-07
-5.56674e-08
-5.63649e-07
-6.9255e-08
-5.58065e-07
-8.27813e-08
-5.5136e-07
-9.61853e-08
-5.43508e-07
-1.09402e-07
-5.34485e-07
-1.22363e-07
-5.24266e-07
-1.34994e-07
-5.12833e-07
-1.47216e-07
-1.58945e-07
-4.6628e-07
1.68613e-07
-4.80582e-07
1.62434e-07
-4.94273e-07
1.55645e-07
-5.07304e-07
1.4823e-07
-5.19631e-07
1.40179e-07
-5.31212e-07
1.31492e-07
-5.42009e-07
1.22173e-07
-5.51986e-07
1.12234e-07
-5.61114e-07
1.01694e-07
-5.69369e-07
9.05786e-08
-5.76731e-07
7.89215e-08
-5.83185e-07
6.67603e-08
-5.88722e-07
5.41373e-08
-5.93334e-07
4.10981e-08
-5.97015e-07
2.76903e-08
-5.99759e-07
1.3962e-08
-6.01566e-07
-3.12478e-11
-6.02417e-07
-1.42575e-08
-6.02303e-07
-2.86525e-08
-6.01205e-07
-4.31751e-08
-5.99095e-07
-5.77769e-08
-5.95941e-07
-7.24085e-08
-5.91704e-07
-8.70187e-08
-5.86337e-07
-1.01552e-07
-5.79791e-07
-1.15948e-07
-5.72013e-07
-1.30141e-07
-5.62951e-07
-1.44056e-07
-5.52555e-07
-1.57612e-07
-1.70716e-07
-4.80791e-07
1.84063e-07
-4.95686e-07
1.77328e-07
-5.09978e-07
1.69937e-07
-5.23624e-07
1.61876e-07
-5.36583e-07
1.53139e-07
-5.48819e-07
1.43728e-07
-5.60299e-07
1.33653e-07
-5.70996e-07
1.22931e-07
-5.8089e-07
1.11587e-07
-5.89965e-07
9.96543e-08
-5.98214e-07
8.71701e-08
-6.05631e-07
7.41778e-08
-6.12217e-07
6.07235e-08
-6.17974e-07
4.6855e-08
-6.22904e-07
3.26202e-08
-6.27008e-07
1.80657e-08
-6.30276e-07
3.23684e-09
-6.32705e-07
-1.18281e-08
-6.3427e-07
-2.70876e-08
-6.34941e-07
-4.25044e-08
-6.34676e-07
-5.80424e-08
-6.3342e-07
-7.36644e-08
-6.31108e-07
-8.93303e-08
-6.27665e-07
-1.04995e-07
-6.23008e-07
-1.20606e-07
-6.17047e-07
-1.36102e-07
-6.09691e-07
-1.51411e-07
-6.00853e-07
-1.6645e-07
-1.81117e-07
-4.94952e-07
2.00143e-07
-5.10494e-07
1.92871e-07
-5.25456e-07
1.84899e-07
-5.39798e-07
1.76218e-07
-5.53486e-07
1.66827e-07
-5.66491e-07
1.56733e-07
-5.78791e-07
1.45953e-07
-5.90369e-07
1.34509e-07
-6.01218e-07
1.22436e-07
-6.11334e-07
1.09771e-07
-6.20725e-07
9.65605e-08
-6.29399e-07
8.28517e-08
-6.37369e-07
6.8694e-08
-6.4465e-07
5.41357e-08
-6.51252e-07
3.92222e-08
-6.57181e-07
2.39945e-08
-6.62432e-07
8.48818e-09
-6.66994e-07
-7.26658e-09
-6.70832e-07
-2.32492e-08
-6.73902e-07
-3.94348e-08
-6.76138e-07
-5.5806e-08
-6.77459e-07
-7.23437e-08
-6.77764e-07
-8.90249e-08
-6.7694e-07
-1.05819e-07
-6.74859e-07
-1.22686e-07
-6.71388e-07
-1.39573e-07
-6.66386e-07
-1.56412e-07
-6.59718e-07
-1.73119e-07
-1.89579e-07
-4.92108e-07
2.23972e-07
-5.08874e-07
2.16909e-07
-5.25131e-07
2.09128e-07
-5.40842e-07
2.00611e-07
-5.55978e-07
1.91353e-07
-5.70512e-07
1.81361e-07
-5.84426e-07
1.70648e-07
-5.97712e-07
1.59238e-07
-6.10367e-07
1.47164e-07
-6.224e-07
1.34468e-07
-6.33826e-07
1.21198e-07
-6.44669e-07
1.07404e-07
-6.54956e-07
9.31392e-08
-6.64718e-07
7.84553e-08
-6.7398e-07
6.33982e-08
-6.82765e-07
4.80072e-08
-6.91083e-07
3.23125e-08
-6.98929e-07
1.63343e-08
-7.06288e-07
9.18373e-11
-7.13103e-07
-1.64341e-08
-7.19312e-07
-3.32258e-08
-7.24819e-07
-5.02984e-08
-7.29506e-07
-6.76574e-08
-7.33227e-07
-8.53033e-08
-7.35821e-07
-1.03226e-07
-7.37105e-07
-1.21402e-07
-7.36889e-07
-1.39789e-07
-7.34976e-07
-1.58326e-07
-7.31169e-07
-1.76926e-07
-1.95463e-07
-5.05136e-07
2.4192e-07
-5.22653e-07
2.34425e-07
-5.39703e-07
2.26179e-07
-5.56262e-07
2.17169e-07
-5.72307e-07
2.07399e-07
-5.87827e-07
1.9688e-07
-6.02817e-07
1.85638e-07
-6.17286e-07
1.73707e-07
-6.31252e-07
1.6113e-07
-6.44745e-07
1.47961e-07
-6.57802e-07
1.34254e-07
-6.70469e-07
1.20071e-07
-6.82796e-07
1.05466e-07
-6.94831e-07
9.04906e-08
-7.06618e-07
7.5185e-08
-7.18188e-07
5.95773e-08
-7.29556e-07
4.36809e-08
-7.40716e-07
2.74942e-08
-7.51626e-07
1.1002e-08
-7.62232e-07
-5.82862e-09
-7.72426e-07
-2.30314e-08
-7.82077e-07
-4.06479e-08
-7.91017e-07
-5.87178e-08
-7.99047e-07
-7.72727e-08
-8.05945e-07
-9.63287e-08
-8.11464e-07
-1.15883e-07
-8.15345e-07
-1.35907e-07
-8.17323e-07
-1.56348e-07
-8.17131e-07
-1.77118e-07
-1.98072e-07
-5.18029e-07
2.60644e-07
-5.36372e-07
2.52768e-07
-5.54311e-07
2.44117e-07
-5.7183e-07
2.34687e-07
-5.88921e-07
2.2449e-07
-6.0559e-07
2.13549e-07
-6.21852e-07
2.01901e-07
-6.37738e-07
1.89593e-07
-6.53291e-07
1.76683e-07
-6.68567e-07
1.63237e-07
-6.83632e-07
1.4932e-07
-6.98559e-07
1.34998e-07
-7.13424e-07
1.2033e-07
-7.28295e-07
1.05362e-07
-7.43234e-07
9.01235e-08
-7.58281e-07
7.4624e-08
-7.73452e-07
5.88519e-08
-7.88731e-07
4.27732e-08
-8.04062e-07
2.63338e-08
-8.19354e-07
9.46309e-09
-8.34465e-07
-7.92054e-09
-8.49211e-07
-2.5902e-08
-8.63365e-07
-4.45632e-08
-8.76664e-07
-6.39742e-08
-8.8881e-07
-8.41823e-08
-8.99484e-07
-1.05209e-07
-9.08348e-07
-1.27043e-07
-9.15057e-07
-1.49639e-07
-9.1927e-07
-1.72905e-07
-1.96677e-07
-5.30851e-07
2.80215e-07
-5.50109e-07
2.72026e-07
-5.69042e-07
2.63051e-07
-5.8765e-07
2.53296e-07
-6.05945e-07
2.42785e-07
-6.23951e-07
2.31556e-07
-6.41712e-07
2.19661e-07
-6.59285e-07
2.07166e-07
-6.76744e-07
1.94143e-07
-6.94179e-07
1.80672e-07
-7.11689e-07
1.66829e-07
-7.29378e-07
1.52687e-07
-7.47349e-07
1.38301e-07
-7.65695e-07
1.23709e-07
-7.84492e-07
1.08921e-07
-8.03788e-07
9.39202e-08
-8.23595e-07
7.86588e-08
-8.43881e-07
6.30589e-08
-8.64564e-07
4.70166e-08
-8.85508e-07
3.04071e-08
-9.06522e-07
1.3094e-08
-9.27362e-07
-5.06273e-09
-9.4773e-07
-2.41951e-08
-9.67279e-07
-4.44245e-08
-9.85634e-07
-6.58273e-08
-1.00239e-06
-8.84541e-08
-1.01712e-06
-1.12312e-07
-1.0294e-06
-1.37362e-07
-1.0388e-06
-1.63505e-07
-1.90555e-07
-5.43654e-07
3.00713e-07
-5.63925e-07
2.92297e-07
-5.83973e-07
2.83099e-07
-6.03818e-07
2.7314e-07
-6.23493e-07
2.6246e-07
-6.43053e-07
2.51115e-07
-6.6257e-07
2.39178e-07
-6.82138e-07
2.26733e-07
-7.01868e-07
2.13873e-07
-7.21888e-07
2.00692e-07
-7.42335e-07
1.87276e-07
-7.63347e-07
1.737e-07
-7.85059e-07
1.60013e-07
-8.07585e-07
1.46235e-07
-8.31015e-07
1.3235e-07
-8.55396e-07
1.18302e-07
-8.8073e-07
1.03993e-07
-9.06958e-07
8.92875e-08
-9.33961e-07
7.40188e-08
-9.61549e-07
5.7995e-08
-9.89466e-07
4.10114e-08
-1.01739e-06
2.28609e-08
-1.04496e-06
3.37107e-09
-1.07171e-06
-1.76732e-08
-1.09719e-06
-4.03455e-08
-1.1209e-06
-6.47414e-08
-1.14233e-06
-9.08829e-08
-1.16096e-06
-1.18735e-07
-1.17627e-06
-1.48191e-07
-1.79033e-07
-5.56479e-07
3.22226e-07
-5.77872e-07
3.13689e-07
-5.99168e-07
3.04396e-07
-6.20413e-07
2.94385e-07
-6.41668e-07
2.83715e-07
-6.63022e-07
2.72469e-07
-6.84585e-07
2.60742e-07
-7.06493e-07
2.48641e-07
-7.289e-07
2.3628e-07
-7.51977e-07
2.23769e-07
-7.75904e-07
2.11202e-07
-8.00855e-07
1.98651e-07
-8.26994e-07
1.86152e-07
-8.54456e-07
1.73697e-07
-8.83335e-07
1.61229e-07
-9.13673e-07
1.4864e-07
-9.45448e-07
1.35767e-07
-9.78563e-07
1.22403e-07
-1.01285e-06
1.08301e-07
-1.04804e-06
9.31901e-08
-1.08382e-06
7.67857e-08
-1.11976e-06
5.88094e-08
-1.1554e-06
3.90042e-08
-1.19021e-06
1.71434e-08
-1.22363e-06
-6.92767e-09
-1.25506e-06
-3.33079e-08
-1.2839e-06
-6.20444e-08
-1.30954e-06
-9.3095e-08
-1.33139e-06
-1.26341e-07
-1.61532e-07
-5.69354e-07
3.44847e-07
-5.91985e-07
3.36321e-07
-6.14676e-07
3.27087e-07
-6.37499e-07
3.17207e-07
-6.60553e-07
3.0677e-07
-6.83966e-07
2.95882e-07
-7.07894e-07
2.8467e-07
-7.32519e-07
2.73266e-07
-7.58046e-07
2.61807e-07
-7.84693e-07
2.50416e-07
-8.12681e-07
2.39191e-07
-8.42224e-07
2.28194e-07
-8.7351e-07
2.17437e-07
-9.06686e-07
2.06873e-07
-9.41845e-07
1.96388e-07
-9.79008e-07
1.85803e-07
-1.01812e-06
1.74875e-07
-1.05902e-06
1.63307e-07
-1.10148e-06
1.50758e-07
-1.14515e-06
1.36864e-07
-1.18962e-06
1.21253e-07
-1.23437e-06
1.03565e-07
-1.27884e-06
8.34697e-08
-1.32239e-06
6.0692e-08
-1.36435e-06
3.50352e-08
-1.40408e-06
6.42456e-09
-1.44085e-06
-2.52768e-08
-1.47399e-06
-5.99548e-08
-1.50283e-06
-9.7499e-08
-1.37621e-07
-5.82289e-07
3.68678e-07
-6.06285e-07
3.60317e-07
-6.30526e-07
3.51328e-07
-6.55121e-07
3.41802e-07
-6.80211e-07
3.3186e-07
-7.0597e-07
3.21641e-07
-7.32605e-07
3.11305e-07
-7.60352e-07
3.01013e-07
-7.89468e-07
2.90923e-07
-8.20221e-07
2.81169e-07
-8.52876e-07
2.71846e-07
-8.87678e-07
2.62996e-07
-9.24834e-07
2.54593e-07
-9.64494e-07
2.46533e-07
-1.00673e-06
2.38628e-07
-1.05154e-06
2.30609e-07
-1.0988e-06
2.22133e-07
-1.14829e-06
2.12796e-07
-1.19968e-06
2.02151e-07
-1.25254e-06
1.89728e-07
-1.30635e-06
1.7506e-07
-1.36049e-06
1.57706e-07
-1.41428e-06
1.37262e-07
-1.467e-06
1.13402e-07
-1.51787e-06
8.59108e-08
-1.56615e-06
5.4706e-08
-1.61113e-06
1.97022e-08
-1.65202e-06
-1.90704e-08
-1.68808e-06
-6.14323e-08
-1.0706e-07
-5.9528e-07
3.93823e-07
-6.20773e-07
3.8581e-07
-6.4673e-07
3.77285e-07
-6.73302e-07
3.68374e-07
-7.00677e-07
3.59235e-07
-7.29084e-07
3.50048e-07
-7.58785e-07
3.41006e-07
-7.90073e-07
3.32302e-07
-8.23261e-07
3.24111e-07
-8.58666e-07
3.16573e-07
-8.96591e-07
3.09771e-07
-9.37306e-07
3.03711e-07
-9.81025e-07
2.98313e-07
-1.02789e-06
2.93394e-07
-1.07793e-06
2.88673e-07
-1.13109e-06
2.8377e-07
-1.18718e-06
2.78222e-07
-1.24589e-06
2.71502e-07
-1.30678e-06
2.63043e-07
-1.36931e-06
2.52263e-07
-1.43285e-06
2.38598e-07
-1.49667e-06
2.21525e-07
-1.55998e-06
2.00575e-07
-1.62194e-06
1.75361e-07
-1.68177e-06
1.45741e-07
-1.73867e-06
-1.79178e-06
-1.84033e-06
-1.88356e-06
-6.08305e-07
4.2039e-07
-6.35432e-07
4.12936e-07
-6.63276e-07
4.05129e-07
-6.92035e-07
3.97134e-07
-7.21953e-07
3.89153e-07
-7.53316e-07
3.8141e-07
-7.86447e-07
3.74136e-07
-8.21698e-07
3.67553e-07
-8.59435e-07
3.61848e-07
-9.0002e-07
3.57159e-07
-9.43788e-07
3.53538e-07
-9.9102e-07
3.50943e-07
-1.04192e-06
3.49215e-07
-1.0966e-06
3.48073e-07
-1.15504e-06
3.47116e-07
-1.21711e-06
3.45834e-07
-1.28251e-06
3.43625e-07
-1.35083e-06
3.39824e-07
-1.42153e-06
3.33735e-07
-1.49392e-06
3.24661e-07
-1.56727e-06
3.11943e-07
-1.64073e-06
2.94983e-07
-1.71342e-06
2.73267e-07
-1.78447e-06
2.46408e-07
2.14276e-07
-6.21323e-07
4.48485e-07
-6.50219e-07
4.41833e-07
-6.80121e-07
4.3503e-07
-7.1128e-07
4.28292e-07
-7.43998e-07
4.21871e-07
-7.78622e-07
4.16034e-07
-8.15537e-07
4.11052e-07
-8.55155e-07
4.0717e-07
-8.97891e-07
4.04584e-07
-9.44141e-07
4.03409e-07
-9.94259e-07
4.03656e-07
-1.04852e-06
4.05207e-07
-1.10711e-06
4.07802e-07
-1.17007e-06
4.11037e-07
-1.23732e-06
4.14367e-07
-1.30862e-06
4.17128e-07
-1.38356e-06
4.18566e-07
-1.4616e-06
4.17869e-07
-1.54208e-06
4.14205e-07
-1.62418e-06
4.06768e-07
-1.70705e-06
3.94812e-07
-1.78975e-06
3.77683e-07
-1.87133e-06
3.54843e-07
-1.95083e-06
3.2591e-07
2.90771e-07
-6.34268e-07
4.78212e-07
-6.65068e-07
4.72632e-07
-6.97194e-07
4.67157e-07
-7.30956e-07
4.62055e-07
-7.66719e-07
4.57633e-07
-8.04893e-07
4.54208e-07
-8.45923e-07
4.52083e-07
-8.90274e-07
4.51521e-07
-9.38402e-07
4.52712e-07
-9.90727e-07
4.55735e-07
-1.0476e-06
4.60532e-07
-1.10928e-06
4.66887e-07
-1.17589e-06
4.74412e-07
-1.24741e-06
4.8255e-07
-1.32363e-06
4.90592e-07
-1.4042e-06
4.97702e-07
-1.4886e-06
5.02959e-07
-1.57613e-06
5.05397e-07
-1.66598e-06
5.04055e-07
-1.75723e-06
4.98026e-07
-1.84891e-06
4.86492e-07
-1.93999e-06
4.68763e-07
-2.02945e-06
4.44302e-07
-2.11629e-06
4.1275e-07
3.74022e-07
-6.47056e-07
5.09666e-07
-6.7988e-07
5.05457e-07
-7.14385e-07
5.01661e-07
-7.50939e-07
4.98609e-07
-7.89969e-07
4.96664e-07
-8.31948e-07
4.96187e-07
-8.77378e-07
4.97512e-07
-9.26767e-07
5.0091e-07
-9.80599e-07
5.06544e-07
-1.0393e-06
5.14436e-07
-1.1032e-06
5.24435e-07
-1.17251e-06
5.36195e-07
-1.24727e-06
5.49172e-07
-1.32735e-06
5.62633e-07
-1.41244e-06
5.75679e-07
-1.50203e-06
5.87288e-07
-1.59543e-06
5.96364e-07
-1.69182e-06
6.01789e-07
-1.79025e-06
6.02482e-07
-1.88967e-06
5.97448e-07
-1.98901e-06
5.85824e-07
-2.08715e-06
5.66908e-07
-2.18304e-06
5.4019e-07
-2.27565e-06
5.05363e-07
4.62398e-07
-6.59574e-07
5.42931e-07
-6.9453e-07
5.40413e-07
-7.31546e-07
5.38677e-07
-7.71052e-07
5.38115e-07
-8.13536e-07
5.39147e-07
-8.59527e-07
5.42178e-07
-9.09575e-07
5.47561e-07
-9.64221e-07
5.55556e-07
-1.02396e-06
5.66281e-07
-1.0892e-06
5.79675e-07
-1.16022e-06
5.95462e-07
-1.23717e-06
6.13138e-07
-1.31997e-06
6.31972e-07
-1.40836e-06
6.51029e-07
-1.50189e-06
6.69203e-07
-1.59988e-06
6.85276e-07
-1.70149e-06
6.97976e-07
-1.80574e-06
7.06039e-07
-1.91153e-06
7.08279e-07
-2.01773e-06
7.0364e-07
-2.12314e-06
6.91241e-07
-2.22664e-06
6.70399e-07
-2.32711e-06
6.40665e-07
-2.42357e-06
6.01824e-07
5.53937e-07
-6.71684e-07
5.78069e-07
-7.08857e-07
5.77585e-07
-7.48488e-07
5.78308e-07
-7.91067e-07
5.80695e-07
-8.3714e-07
5.8522e-07
-8.87284e-07
5.92322e-07
-9.42085e-07
6.02361e-07
-1.0021e-06
6.15568e-07
-1.06781e-06
6.3199e-07
-1.13958e-06
6.51448e-07
-1.21763e-06
6.73513e-07
-1.30198e-06
6.9749e-07
-1.39244e-06
7.22435e-07
-1.4886e-06
7.47187e-07
-1.58982e-06
7.70422e-07
-1.69526e-06
7.90718e-07
-1.80392e-06
8.06634e-07
-1.91466e-06
8.16779e-07
-2.02626e-06
8.1988e-07
-2.13747e-06
8.14852e-07
-2.24707e-06
8.00833e-07
-2.35387e-06
7.77202e-07
-2.45679e-06
7.43583e-07
-2.55494e-06
6.99976e-07
-6.83223e-07
6.15122e-07
-7.22665e-07
6.17028e-07
-7.64976e-07
6.20619e-07
-8.10701e-07
6.2642e-07
-8.60432e-07
6.34952e-07
-9.14788e-07
6.46677e-07
-9.74371e-07
6.61945e-07
-1.03973e-06
6.80929e-07
-1.11132e-06
7.03578e-07
-1.18944e-06
7.29565e-07
-1.2742e-06
7.58272e-07
-1.36549e-06
7.88784e-07
-1.46297e-06
8.19916e-07
-1.56605e-06
8.50267e-07
-1.67391e-06
8.78284e-07
-1.78555e-06
9.02351e-07
-1.89978e-06
9.20867e-07
-2.01533e-06
9.32334e-07
-2.13088e-06
9.35428e-07
-2.24509e-06
9.29063e-07
-2.35671e-06
9.12449e-07
-2.46459e-06
8.85081e-07
-2.56773e-06
8.46722e-07
7.97496e-07
-6.93998e-07
6.54101e-07
-7.35726e-07
6.58755e-07
-7.80734e-07
6.65627e-07
-8.29615e-07
6.753e-07
-8.83e-07
6.88337e-07
-9.41529e-07
7.05206e-07
-1.00581e-06
7.26222e-07
-1.07635e-06
7.51477e-07
-1.15356e-06
7.80786e-07
-1.23764e-06
8.13642e-07
-1.32857e-06
8.49204e-07
-1.4261e-06
8.86308e-07
-1.52969e-06
9.23512e-07
-1.63858e-06
9.5916e-07
-1.75177e-06
9.91473e-07
-1.86807e-06
1.01865e-06
-1.98615e-06
1.03895e-06
-2.10462e-06
1.05081e-06
-2.22207e-06
1.05288e-06
-2.33711e-06
1.0441e-06
-2.44853e-06
1.02386e-06
-2.55522e-06
-2.65626e-06
-7.03797e-07
6.94982e-07
-7.47783e-07
7.02741e-07
-7.95449e-07
7.13293e-07
-8.47425e-07
7.27277e-07
-9.0437e-07
7.45281e-07
-9.66927e-07
7.67763e-07
-1.03568e-06
7.94976e-07
-1.1111e-06
8.269e-07
-1.1935e-06
8.63182e-07
-1.28296e-06
9.031e-07
-1.37932e-06
9.45562e-07
-1.48214e-06
9.89133e-07
-1.59072e-06
1.03209e-06
-1.7041e-06
1.07253e-06
-1.82108e-06
1.10846e-06
-1.94033e-06
1.13789e-06
-2.06037e-06
1.159e-06
-2.17973e-06
1.17017e-06
-2.29695e-06
1.17009e-06
-2.41067e-06
1.15782e-06
1.13291e-06
-7.12383e-07
7.377e-07
-7.58547e-07
7.48905e-07
-8.0877e-07
7.63516e-07
-8.63706e-07
7.82213e-07
-9.24022e-07
8.05597e-07
-9.9035e-07
8.34091e-07
-1.06323e-06
8.67858e-07
-1.14307e-06
9.06734e-07
-1.23005e-06
9.50164e-07
-1.32413e-06
9.97181e-07
-1.42498e-06
1.04641e-06
-1.53199e-06
1.09614e-06
-1.64425e-06
1.14435e-06
-1.76062e-06
1.1889e-06
-1.87974e-06
1.22758e-06
-2.00013e-06
1.25828e-06
-2.12022e-06
1.27909e-06
-2.23848e-06
1.28842e-06
-2.35344e-06
1.28504e-06
-2.46378e-06
1.26816e-06
1.23748e-06
-7.19502e-07
7.82149e-07
-7.67714e-07
7.97117e-07
-8.20325e-07
8.16126e-07
-8.78002e-07
8.3989e-07
-9.41404e-07
8.69e-07
-1.01113e-06
9.03818e-07
-1.08766e-06
9.44392e-07
-1.17131e-06
9.90375e-07
-1.26212e-06
1.04098e-06
-1.35991e-06
1.09497e-06
-1.46418e-06
1.15068e-06
-1.5741e-06
1.20607e-06
-1.68862e-06
1.25887e-06
-1.8064e-06
1.30668e-06
-1.92595e-06
1.34713e-06
-2.04568e-06
1.378e-06
-2.16395e-06
1.39737e-06
-2.27921e-06
1.40368e-06
-2.39001e-06
1.39584e-06
-2.4951e-06
1.37325e-06
1.33581e-06
-7.24891e-07
8.28175e-07
-7.7496e-07
8.47187e-07
-8.29722e-07
8.70888e-07
-8.8984e-07
9.00008e-07
-9.55948e-07
9.35108e-07
-1.0286e-06
9.76466e-07
-1.10818e-06
1.02398e-06
-1.1949e-06
1.07709e-06
-1.28868e-06
1.13476e-06
-1.38914e-06
1.19544e-06
-1.49562e-06
1.25715e-06
-1.60712e-06
1.31757e-06
-1.72241e-06
1.37416e-06
-1.84001e-06
1.42428e-06
-1.95831e-06
1.46544e-06
-2.07565e-06
1.49534e-06
-2.19036e-06
1.51208e-06
-2.3009e-06
1.51422e-06
-2.40589e-06
1.50084e-06
-2.50419e-06
1.47155e-06
1.42651e-06
-7.28276e-07
8.75579e-07
-7.79959e-07
8.98869e-07
-8.36568e-07
9.27497e-07
-8.98748e-07
9.62189e-07
-9.67092e-07
1.00345e-06
-1.04208e-06
1.05146e-06
-1.12403e-06
1.10592e-06
-1.21299e-06
1.16605e-06
-1.30874e-06
1.23051e-06
-1.41076e-06
1.29746e-06
-1.5182e-06
1.36459e-06
-1.62991e-06
1.42928e-06
-1.74449e-06
1.48874e-06
-1.86036e-06
1.54016e-06
-1.97584e-06
1.58092e-06
-2.08922e-06
1.60871e-06
-2.19885e-06
1.62171e-06
-2.30324e-06
1.61861e-06
-2.40114e-06
1.59874e-06
-2.49155e-06
1.56196e-06
1.5087e-06
-7.29382e-07
9.24115e-07
-7.82376e-07
9.51863e-07
-8.40465e-07
9.85586e-07
-9.0426e-07
1.02598e-06
-9.74291e-07
1.07348e-06
-1.05097e-06
1.12813e-06
-1.13449e-06
1.18945e-06
-1.22479e-06
1.25635e-06
-1.32149e-06
1.32721e-06
-1.4239e-06
1.39987e-06
-1.53103e-06