/*--------------------------------*- C++ -*----------------------------------*\
  =========                 |
  \\      /  F ield         | OpenFOAM: The Open Source CFD Toolbox
   \\    /   O peration     | Website:  https://openfoam.org
    \\  /    A nd           | Version:  9
     \\/     M anipulation  |
\*---------------------------------------------------------------------------*/
FoamFile
{
    format      ascii;
    class       volScalarField;
    location    "1.25";
    object      p;
}
// * * * * * * * * * * * * * * * * * * * * * * * * * * * * * * * * * * * * * //

dimensions      [0 2 -2 0 0 0 0];

internalField   nonuniform List<scalar> 
1260
(
-0.0853176
-0.0871024
-0.0887729
-0.0903227
-0.0917453
-0.0930336
-0.09418
-0.095178
-0.0960214
-0.0967049
-0.0972241
-0.0975756
-0.0977571
-0.0977678
-0.0976078
-0.0972785
-0.0967826
-0.0961238
-0.0953068
-0.0943376
-0.0932228
-0.0919705
-0.0905891
-0.0890884
-0.0874789
-0.0857723
-0.0857607
-0.0875591
-0.0892428
-0.0908055
-0.0922401
-0.0935394
-0.0946961
-0.0957033
-0.0965548
-0.0972451
-0.0977697
-0.0981252
-0.0983093
-0.0983211
-0.0981607
-0.0978295
-0.0973301
-0.0966663
-0.0958429
-0.0948657
-0.0937416
-0.0924783
-0.0910847
-0.0895703
-0.0879459
-0.086223
-0.0860515
-0.0878613
-0.089556
-0.091129
-0.0925734
-0.0938817
-0.0950465
-0.0960611
-0.0969189
-0.0976145
-0.0981433
-0.0985019
-0.0986879
-0.0987003
-0.0985392
-0.0982061
-0.0977036
-0.0970353
-0.0962061
-0.0952219
-0.0940894
-0.0928165
-0.0914119
-0.0898855
-0.0882478
-0.0865106
-0.0861881
-0.0880071
-0.0897104
-0.0912915
-0.0927434
-0.0940585
-0.0952296
-0.0962496
-0.0971121
-0.0978116
-0.0983435
-0.0987041
-0.0988913
-0.0989039
-0.098742
-0.098407
-0.0979015
-0.0972292
-0.0963948
-0.0954042
-0.0942643
-0.0929829
-0.0915687
-0.0900315
-0.0883821
-0.0866322
-0.0861691
-0.0879951
-0.0897049
-0.091292
-0.0927493
-0.0940693
-0.0952447
-0.0962684
-0.0971341
-0.0978362
-0.0983699
-0.0987319
-0.0989196
-0.0989319
-0.0987689
-0.098432
-0.0979237
-0.0972476
-0.0964086
-0.0954124
-0.0942658
-0.0929768
-0.091554
-0.0900072
-0.0883473
-0.0865861
-0.0859942
-0.0878252
-0.0895396
-0.0911307
-0.0925915
-0.0939145
-0.0950925
-0.0961184
-0.0969859
-0.0976892
-0.0982239
-0.0985862
-0.0987738
-0.0987854
-0.0986212
-0.0982823
-0.0977713
-0.0970918
-0.0962484
-0.095247
-0.0940945
-0.0927985
-0.091368
-0.0898126
-0.0881433
-0.0863719
-0.0856637
-0.0874982
-0.0892154
-0.0908088
-0.0922714
-0.0935958
-0.0947748
-0.0958015
-0.0966694
-0.097373
-0.0979076
-0.0982695
-0.0984564
-0.098467
-0.0983012
-0.0979602
-0.0974465
-0.0967637
-0.0959163
-0.0949102
-0.0937521
-0.0924499
-0.0910122
-0.089449
-0.0877712
-0.0859904
-0.0851788
-0.0870153
-0.0887339
-0.0903282
-0.0917912
-0.0931156
-0.0942943
-0.0953205
-0.0961878
-0.0968906
-0.0974243
-0.0977852
-0.0979708
-0.0979799
-0.0978123
-0.0974691
-0.0969528
-0.0962667
-0.0954155
-0.0944049
-0.0932416
-0.0919335
-0.0904892
-0.0889187
-0.0872328
-0.0854436
-0.0845412
-0.0863786
-0.0880975
-0.0896915
-0.0911537
-0.0924771
-0.0936545
-0.0946792
-0.0955449
-0.0962461
-0.0967782
-0.0971375
-0.0973214
-0.0973286
-0.0971589
-0.0968135
-0.0962944
-0.0956051
-0.0947502
-0.0937353
-0.0925671
-0.0912533
-0.0898027
-0.0882253
-0.0865318
-0.0847345
-0.0837532
-0.0855907
-0.0873091
-0.0889021
-0.0903628
-0.0916843
-0.0928596
-0.093882
-0.0947455
-0.0954445
-0.0959745
-0.0963316
-0.0965134
-0.0965185
-0.0963466
-0.0959986
-0.0954767
-0.0947843
-0.0939257
-0.0929065
-0.0917334
-0.0904142
-0.0889574
-0.0873732
-0.0856725
-0.0838674
-0.0828176
-0.0846548
-0.0863723
-0.0879638
-0.0894225
-0.0907417
-0.0919144
-0.0929342
-0.093795
-0.0944914
-0.0950188
-0.0953735
-0.095553
-0.0955557
-0.0953813
-0.0950307
-0.094506
-0.0938103
-0.092948
-0.0919246
-0.0907467
-0.0894219
-0.0879591
-0.0863682
-0.0846603
-0.0828476
-0.0817377
-0.0835745
-0.0852911
-0.086881
-0.0883376
-0.0896543
-0.0908244
-0.0918413
-0.0926993
-0.0933929
-0.0939176
-0.0942697
-0.0944467
-0.0944469
-0.09427
-0.0939167
-0.0933891
-0.0926901
-0.091824
-0.0907963
-0.0896135
-0.0882833
-0.0868144
-0.0852169
-0.0835018
-0.0816815
-0.0805174
-0.0823539
-0.0840697
-0.0856583
-0.0871132
-0.0884276
-0.0895952
-0.0906095
-0.0914647
-0.0921556
-0.0926777
-0.0930273
-0.0932018
-0.0931995
-0.0930201
-0.0926641
-0.0921335
-0.0914312
-0.0905614
-0.0895294
-0.0883417
-0.087006
-0.085531
-0.0839267
-0.0822045
-0.0803767
-0.0791609
-0.0809977
-0.0827132
-0.084301
-0.0857546
-0.0870674
-0.088233
-0.0892451
-0.090098
-0.0907866
-0.0913063
-0.0916536
-0.0918258
-0.0918213
-0.0916394
-0.0912809
-0.0907474
-0.0900418
-0.0891683
-0.088132
-0.0869395
-0.0855982
-0.0841171
-0.0825062
-0.0807768
-0.0789414
-0.0776733
-0.0795109
-0.0812269
-0.0828147
-0.0842679
-0.0855799
-0.0867443
-0.087755
-0.0886063
-0.0892931
-0.0898111
-0.0901566
-0.0903269
-0.0903204
-0.0901365
-0.0897756
-0.0892395
-0.0885309
-0.0876538
-0.0866133
-0.085416
-0.0840694
-0.0825822
-0.0809647
-0.0792282
-0.0773854
-0.0760603
-0.0778992
-0.0796166
-0.0812055
-0.0826593
-0.0839716
-0.0851359
-0.0861461
-0.0869968
-0.0876829
-0.0881999
-0.0885443
-0.0887134
-0.0887056
-0.0885201
-0.0881573
-0.0876189
-0.0869076
-0.0860272
-0.0849829
-0.0837811
-0.0824293
-0.0809364
-0.0793125
-0.0775692
-0.0757192
-0.0737767
-0.0717573
-0.0696775
-0.0743278
-0.0761691
-0.0778888
-0.07948
-0.0809357
-0.0822495
-0.083415
-0.0844262
-0.0852775
-0.0859638
-0.086481
-0.0868253
-0.0869941
-0.0869857
-0.0867994
-0.0864354
-0.0858954
-0.0851819
-0.0842988
-0.0832512
-0.0820454
-0.0806889
-0.0791906
-0.0775609
-0.0758112
-0.0739545
-0.0720051
-0.0699787
-0.0678922
-0.0724837
-0.074328
-0.0760511
-0.0776456
-0.0791047
-0.0804215
-0.0815896
-0.0826031
-0.0834564
-0.0841445
-0.0846631
-0.0850086
-0.0851783
-0.0851704
-0.0849842
-0.08462
-0.0840792
-0.0833644
-0.0824794
-0.0814292
-0.0802201
-0.0788597
-0.077357
-0.0757221
-0.0739668
-0.0721041
-0.0701485
-0.0681158
-0.0660231
-0.070537
-0.0723847
-0.074112
-0.075711
-0.0771746
-0.0784958
-0.0796683
-0.0806857
-0.0815427
-0.0822341
-0.0827556
-0.0831037
-0.0832757
-0.0832697
-0.083085
-0.0827217
-0.0821813
-0.0814664
-0.0805806
-0.079529
-0.0783177
-0.0769545
-0.0754483
-0.0738094
-0.0720495
-0.0701819
-0.0682212
-0.0661831
-0.064085
-0.0684979
-0.0703491
-0.0720811
-0.0736856
-0.075155
-0.0764822
-0.0776605
-0.0786836
-0.0795459
-0.0802424
-0.0807686
-0.0811211
-0.0812969
-0.0812944
-0.0811127
-0.080752
-0.0802135
-0.0794999
-0.0786148
-0.0775632
-0.0763513
-0.0749868
-0.0734786
-0.0718372
-0.0700743
-0.0682032
-0.0662385
-0.0641964
-0.0620941
-0.0663778
-0.0682326
-0.0699698
-0.0715805
-0.0730569
-0.0743914
-0.075577
-0.0766075
-0.077477
-0.0781804
-0.0787132
-0.0790719
-0.0792536
-0.0792564
-0.0790796
-0.0787232
-0.0781885
-0.0774781
-0.0765955
-0.0755458
-0.0743352
-0.0729712
-0.071463
-0.0698209
-0.0680568
-0.0661841
-0.0642174
-0.0621728
-0.0600676
-0.0641903
-0.0660484
-0.0677909
-0.0694084
-0.0708925
-0.0722355
-0.0734301
-0.0744696
-0.0753481
-0.0760603
-0.0766017
-0.0769686
-0.0771582
-0.0771685
-0.0769987
-0.0766488
-0.0761201
-0.075415
-0.0745373
-0.0734917
-0.0722846
-0.0709236
-0.0694177
-0.0677773
-0.0660143
-0.0641421
-0.0621754
-0.0601303
-0.058024
-0.0619506
-0.0638112
-0.0655589
-0.0671834
-0.0686761
-0.0700286
-0.0712333
-0.0722834
-0.0731727
-0.0738956
-0.0744477
-0.0748251
-0.0750248
-0.0750449
-0.0748844
-0.0745434
-0.0740231
-0.073326
-0.0724556
-0.0714169
-0.070216
-0.0688607
-0.0673598
-0.0657239
-0.0639648
-0.0620958
-0.0601316
-0.0580882
-0.0559829
-0.0596756
-0.0615379
-0.0632902
-0.0649218
-0.0664233
-0.0677861
-0.0690022
-0.0700642
-0.0709659
-0.0717015
-0.0722663
-0.0726563
-0.0728684
-0.0729008
-0.0727522
-0.0724229
-0.0719138
-0.0712274
-0.0703674
-0.0693385
-0.068147
-0.0668004
-0.0653078
-0.0636794
-0.0619273
-0.0600645
-0.0581056
-0.0560666
-0.0539644
-0.0573837
-0.0592465
-0.0610027
-0.0626411
-0.0641516
-0.0655252
-0.0667535
-0.0678288
-0.0687444
-0.0694945
-0.0700739
-0.0704788
-0.0707059
-0.070753
-0.0706191
-0.0703041
-0.0698093
-0.0691368
-0.0682903
-0.0672746
-0.0660958
-0.0647615
-0.0632805
-0.0616633
-0.0599215
-0.0580682
-0.0561178
-0.0540859
-0.0519894
-0.0550945
-0.0569565
-0.0587159
-0.0603604
-0.0618799
-0.0632647
-0.0645058
-0.0655954
-0.0665263
-0.0672924
-0.0678886
-0.0683105
-0.0685548
-0.0686194
-0.068503
-0.0682054
-0.0677279
-0.0670725
-0.0662429
-0.0652439
-0.0640815
-0.0627632
-0.0612977
-0.0596953
-0.0579675
-0.0561272
-0.0541885
-0.0521669
-0.0500785
-0.0528285
-0.0546885
-0.0564499
-0.0581001
-0.0596282
-0.0610242
-0.0622787
-0.0633834
-0.0643308
-0.0651146
-0.0657292
-0.0661702
-0.0664342
-0.0665187
-0.0664226
-0.0661455
-0.0656886
-0.0650537
-0.0642446
-0.0632659
-0.0621237
-0.0608251
-0.059379
-0.0577953
-0.0560853
-0.0542616
-0.0523381
-0.0503297
-0.0482521
-0.0506062
-0.052463
-0.0542256
-0.0558807
-0.0574171
-0.0588243
-0.0600926
-0.061213
-0.0621779
-0.0629806
-0.0636154
-0.0640775
-0.0643633
-0.0644704
-0.0643972
-0.0641435
-0.0637101
-0.0630995
-0.0623145
-0.0613598
-0.0602415
-0.0589667
-0.0575438
-0.0559827
-0.0542943
-0.052491
-0.050586
-0.0485937
-0.0465294
-0.0484481
-0.0503007
-0.0520637
-0.053723
-0.0552674
-0.0566857
-0.0579678
-0.0591046
-0.0600879
-0.0609107
-0.061567
-0.062052
-0.0623618
-0.0624937
-0.0624461
-0.0622187
-0.0618123
-0.0612288
-0.0604713
-0.0595443
-0.0584537
-0.0572064
-0.0558106
-0.0542759
-0.0526128
-0.0508331
-0.0489498
-0.0469765
-0.0449277
-0.0463733
-0.0482212
-0.0499839
-0.0516471
-0.053199
-0.0546284
-0.0559246
-0.0570781
-0.0580804
-0.0589244
-0.0596036
-0.060113
-0.0604486
-0.0606075
-0.060588
-0.0603895
-0.0600128
-0.0594595
-0.0587328
-0.0578369
-0.0567775
-0.0555613
-0.0541961
-0.0526912
-0.0510568
-0.049304
-0.0474451
-0.0454931
-0.0434615
-0.0443998
-0.0462427
-0.0480049
-0.0496717
-0.051231
-0.0526714
-0.0539818
-0.0551524
-0.0561744
-0.0570403
-0.0577435
-0.0582787
-0.0586418
-0.0588296
-0.0588402
-0.058673
-0.0583284
-0.0578081
-0.0571151
-0.0562533
-0.0552282
-0.0540461
-0.0527147
-0.0512426
-0.0496396
-0.0479162
-0.0460839
-0.044155
-0.0421419
-0.0425433
-0.0443814
-0.0461432
-0.0478136
-0.0493804
-0.0508318
-0.0521565
-0.0533445
-0.0543867
-0.0552752
-0.0560033
-0.0565655
-0.0569573
-0.0571755
-0.057218
-0.0570839
-0.0567736
-0.0562887
-0.0556316
-0.0548064
-0.053818
-0.0526726
-0.0513772
-0.0499402
-0.0483706
-0.0466784
-0.0448742
-0.0429693
-0.040975
-0.040817
-0.042651
-0.0444128
-0.0460871
-0.0476616
-0.0491243
-0.0504636
-0.0516692
-0.0527319
-0.0536435
-0.0543972
-0.0549871
-0.0554086
-0.0556582
-0.0557339
-0.0556344
-0.0553599
-0.0549118
-0.0542924
-0.0535053
-0.0525553
-0.051448
-0.0501902
-0.0487896
-0.0472546
-0.0455944
-0.0438187
-0.0419378
-0.039962
-0.0392313
-0.0410624
-0.042825
-0.0445038
-0.0460864
-0.0475605
-0.0489147
-0.0501381
-0.0512215
-0.0521565
-0.052936
-0.0535539
-0.0540056
-0.0542873
-0.0543966
-0.0543323
-0.0540944
-0.0536838
-0.0531027
-0.0523545
-0.0514434
-0.0503748
-0.049155
-0.0477909
-0.0462904
-0.0446618
-0.042914
-0.0410562
-0.0390973
-0.0377937
-0.0396232
-0.0413876
-0.0430716
-0.0446627
-0.0461487
-0.0475177
-0.048759
-0.049863
-0.0508212
-0.0516263
-0.0522722
-0.0527537
-0.0530673
-0.0532101
-0.0531808
-0.052979
-0.0526057
-0.0520625
-0.0513527
-0.0504799
-0.0494493
-0.0482664
-0.0469378
-0.0454705
-0.0438721
-0.0421505
-0.0403137
-0.0383695
-0.036508
-0.0383374
-0.0401046
-0.0417945
-0.0433946
-0.0448924
-0.0462762
-0.047535
-0.048659
-0.0496398
-0.0504697
-0.0511425
-0.051653
-0.0519972
-0.0521723
-0.0521767
-0.0520097
-0.0516721
-0.0511653
-0.050492
-0.0496558
-0.048661
-0.0475129
-0.0462173
-0.044781
-0.0432102
-0.0415121
-0.0396934
-0.0377608
-0.0353738
-0.0372043
-0.0389752
-0.0406715
-0.0422805
-0.0437899
-0.0451878
-0.0464631
-0.0476061
-0.0486079
-0.0494611
-0.050159
-0.0506965
-0.0510693
-0.0512744
-0.05131
-0.0511753
-0.0508707
-0.0503974
-0.0497578
-0.048955
-0.0479931
-0.0468767
-0.0456112
-0.0442018
-0.0426553
-0.0409771
-0.0391733
-0.0372487
-0.0343857
-0.036218
-0.037993
-0.0396954
-0.0413128
-0.0428329
-0.0442435
-0.0455337
-0.0466937
-0.0477144
-0.0485883
-0.0493087
-0.0498702
-0.0502685
-0.0505004
-0.0505639
-0.0504579
-0.0501827
-0.0497391
-0.0491294
-0.0483562
-0.0474232
-0.0463345
-0.0450949
-0.0437094
-0.042183
-0.0405209
-0.0387281
-0.036808
-0.0335321
-0.0353662
-0.0371448
-0.0388526
-0.0404771
-0.042006
-0.0434274
-0.0447301
-0.0459043
-0.046941
-0.0478324
-0.0485718
-0.0491537
-0.0495737
-0.0498284
-0.0499157
-0.0498344
-0.0495843
-0.0491664
-0.0485822
-0.0478344
-0.0469261
-0.0458611
-0.0446435
-0.0432776
-0.041768
-0.0401186
-0.0383331
-0.0364141
-0.0327956
-0.0346306
-0.0364115
-0.038123
-0.0397526
-0.0412881
-0.0427175
-0.0440298
-0.0452149
-0.0462641
-0.0471694
-0.0479242
-0.0485226
-0.0489603
-0.0492339
-0.0493409
-0.04928
-0.0490511
-0.0486546
-0.0480921
-0.0473657
-0.0464782
-0.0454331
-0.0442339
-0.0428844
-0.0413882
-0.0397485
-0.0379679
-0.0360474
-0.0321534
-0.0339878
-0.0357693
-0.0374824
-0.0391148
-0.0406542
-0.0420889
-0.0434078
-0.0446009
-0.0456594
-0.0465752
-0.0473418
-0.0479534
-0.0484053
-0.0486941
-0.0488174
-0.0487736
-0.0485624
-0.048184
-0.0476399
-0.0469318
-0.0460623
-0.0450344
-0.0438511
-0.0425155
-0.0410306
-0.0393986
-0.0376212
-0.0356978
-0.0315828
-0.0334152
-0.0351957
-0.0369088
-0.038542
-0.0400834
-0.0415213
-0.0428445
-0.0440433
-0.0451087
-0.0460328
-0.0468089
-0.0474311
-0.0478949
-0.0481966
-0.0483338
-0.0483048
-0.0481091
-0.0477468
-0.047219
-0.0465273
-0.0456738
-0.0446613
-0.0434926
-0.04217
-0.0406953
-0.0390702
-0.0372954
-0.0353692
-0.0310685
-0.0328989
-0.0346783
-0.0363912
-0.0380251
-0.0395681
-0.0410087
-0.042336
-0.0435399
-0.0446117
-0.0455434
-0.0463282
-0.0469604
-0.0474352
-0.0477491
-0.0478993
-0.0478842
-0.047703
-0.0473558
-0.0468434
-0.0461671
-0.0453284
-0.0443299
-0.0431748
-0.0418649
-0.0404009
-0.0387817
-0.0370103
-0.0350842
-0.0305673
-0.0324004
-0.0341832
-0.0359007
-0.0375399
-0.0390891
-0.0405369
-0.0418723
-0.0430855
-0.0441674
-0.0451103
-0.0459073
-0.0465524
-0.0470411
-0.0473695
-0.0475349
-0.0475355
-0.0473704
-0.0470396
-0.0465437
-0.045884
-0.0450618
-0.0440769
-0.0429345
-0.041636
-0.0401824
-0.0385757
-0.036812
-0.0348882
-0.0299725
-0.0318207
-0.0336195
-0.0353538
-0.0370107
-0.0385783
-0.0400451
-0.0414003
-0.0426338
-0.0437367
-0.044701
-0.0455198
-0.0461871
-0.046698
-0.0470487
-0.0472364
-0.047259
-0.0471157
-0.046806
-0.0463307
-0.0456909
-0.0448893
-0.0439291
-0.0428057
-0.0415224
-0.0400836
-0.0384896
-0.0367371
-0.0348226
)
;

boundaryField
{
    movingWall
    {
        type            zeroGradient;
    }
    fixedWalls
    {
        type            zeroGradient;
    }
    frontAndBack
    {
        type            empty;
    }
    procBoundary5to2
    {
        type            processor;
        value           nonuniform List<scalar> 
29
(
-0.0723726
-0.0705263
-0.0685774
-0.0665364
-0.0644151
-0.0622271
-0.0599881
-0.0577152
-0.0554269
-0.0531431
-0.0508839
-0.0486698
-0.0465209
-0.0444559
-0.0424923
-0.0406451
-0.0389272
-0.0373485
-0.035916
-0.0346335
-0.0335007
-0.0325127
-0.0316589
-0.0309225
-0.0302817
-0.0297138
-0.0292021
-0.0286985
-0.0280888
)
;
    }
    procBoundary5to3
    {
        type            processor;
        value           nonuniform List<scalar> 
21
(
-0.0847243
-0.0864933
-0.0881482
-0.0896831
-0.0910916
-0.083424
-0.0838534
-0.0841326
-0.0842597
-0.0842333
-0.0840528
-0.0837184
-0.0832309
-0.0825918
-0.0818031
-0.0808671
-0.0797871
-0.0785666
-0.0772097
-0.0757212
-0.0741068
)
;
    }
    procBoundary5to4
    {
        type            processor;
        value           nonuniform List<scalar> 
48
(
-0.0839804
-0.0844139
-0.0846862
-0.0847942
-0.084736
-0.0845111
-0.0841198
-0.0835639
-0.0828464
-0.0819712
-0.0809435
-0.0797696
-0.0784569
-0.077014
-0.0754503
-0.0754503
-0.0734382
-0.0713656
-0.0675552
-0.0657634
-0.0638884
-0.0619451
-0.0599498
-0.0579202
-0.0558749
-0.0538337
-0.0518171
-0.0498458
-0.0479408
-0.0461222
-0.0444091
-0.0428186
-0.0413647
-0.0400578
-0.0389035
-0.0379019
-0.0370468
-0.0363258
-0.0357206
-0.0352084
-0.0347639
-0.0343631
-0.0339869
-0.0336268
-0.0332884
-0.0329965
-0.0327985
-0.0327405
)
;
    }
    procBoundary5to6
    {
        type            processor;
        value           nonuniform List<scalar> 
21
(
-0.0923665
-0.0935006
-0.0944874
-0.0953211
-0.0959964
-0.096509
-0.0968555
-0.0970338
-0.0970429
-0.0968832
-0.0965559
-0.0960638
-0.0954105
-0.0946007
-0.0936404
-0.0925363
-0.0912962
-0.0899287
-0.0884434
-0.0868508
-0.0851623
)
;
    }
}


// ************************************************************************* //
