/*--------------------------------*- C++ -*----------------------------------*\
  =========                 |
  \\      /  F ield         | OpenFOAM: The Open Source CFD Toolbox
   \\    /   O peration     | Website:  https://openfoam.org
    \\  /    A nd           | Version:  9
     \\/     M anipulation  |
\*---------------------------------------------------------------------------*/
FoamFile
{
    format      ascii;
    class       surfaceScalarField;
    location    "1.25";
    object      phi;
}
// * * * * * * * * * * * * * * * * * * * * * * * * * * * * * * * * * * * * * //

dimensions      [0 3 -1 0 0 0 0];

internalField   nonuniform List<scalar> 
2446
(
-3.94568e-07
1.47151e-06
-4.05939e-07
1.36064e-06
-4.1747e-07
1.24749e-06
-4.29145e-07
1.13181e-06
-4.40955e-07
1.01343e-06
-4.52895e-07
8.92301e-07
-4.64958e-07
7.68487e-07
-4.77137e-07
6.42146e-07
-4.89424e-07
5.13492e-07
-5.01813e-07
3.82803e-07
-5.14298e-07
2.504e-07
-5.2687e-07
1.16638e-07
-5.39515e-07
-1.81138e-08
-5.52218e-07
-1.53482e-07
-5.64958e-07
-2.89095e-07
-5.77706e-07
-4.24594e-07
-5.90426e-07
-5.59628e-07
-6.03074e-07
-6.93861e-07
-6.15594e-07
-8.26965e-07
-6.27921e-07
-9.58614e-07
-6.39978e-07
-1.08848e-06
-6.51678e-07
-1.21624e-06
-6.62922e-07
-1.34153e-06
-6.73609e-07
-1.46399e-06
-6.83632e-07
-1.58322e-06
-1.69883e-06
-2.74564e-07
1.48133e-06
-2.84583e-07
1.37066e-06
-2.9481e-07
1.25772e-06
-3.05256e-07
1.14226e-06
-3.15934e-07
1.02411e-06
-3.26865e-07
9.03233e-07
-3.38061e-07
7.79682e-07
-3.49525e-07
6.53611e-07
-3.61266e-07
5.25233e-07
-3.73287e-07
3.94824e-07
-3.8559e-07
2.62703e-07
-3.9817e-07
1.29218e-07
-4.11018e-07
-5.26558e-09
-4.2412e-07
-1.4038e-07
-4.37454e-07
-2.75761e-07
-4.50992e-07
-4.11056e-07
-4.64696e-07
-5.45923e-07
-4.78522e-07
-6.80035e-07
-4.92413e-07
-8.13074e-07
-5.06303e-07
-9.44725e-07
-5.20113e-07
-1.07467e-06
-5.33755e-07
-1.2026e-06
-5.47131e-07
-1.32815e-06
-5.60134e-07
-1.45099e-06
-5.72652e-07
-1.5707e-06
-1.6869e-06
-1.53412e-07
1.48971e-06
-1.62034e-07
1.37928e-06
-1.70919e-07
1.2666e-06
-1.80102e-07
1.15144e-06
-1.89619e-07
1.03363e-06
-1.99511e-07
9.13124e-07
-2.09807e-07
7.89978e-07
-2.20529e-07
6.64333e-07
-2.31697e-07
5.36401e-07
-2.43325e-07
4.06452e-07
-2.5542e-07
2.74798e-07
-2.67985e-07
1.41782e-07
-2.81011e-07
7.76116e-09
-2.94487e-07
-1.26904e-07
-3.08389e-07
-2.61859e-07
-3.22689e-07
-3.96756e-07
-3.37349e-07
-5.31263e-07
-3.52322e-07
-6.65063e-07
-3.6755e-07
-7.97845e-07
-3.82967e-07
-9.29308e-07
-3.98495e-07
-1.05915e-06
-4.14046e-07
-1.18705e-06
-4.2952e-07
-1.31268e-06
-4.44812e-07
-1.43569e-06
-4.59806e-07
-1.55571e-06
-1.67232e-06
-3.13977e-08
1.49664e-06
-3.86027e-08
1.38648e-06
-4.61274e-08
1.27413e-06
-5.40292e-08
1.15934e-06
-6.2368e-08
1.04197e-06
-7.12009e-08
9.21957e-07
-8.05763e-08
7.99353e-07
-9.05339e-08
6.74291e-07
-1.01106e-07
5.46973e-07
-1.12315e-07
4.17662e-07
-1.24178e-07
2.86661e-07
-1.36698e-07
1.54303e-07
-1.49873e-07
2.09362e-08
-1.6369e-07
-1.13088e-07
-1.78127e-07
-2.47422e-07
-1.93154e-07
-3.81729e-07
-2.08732e-07
-5.15686e-07
-2.24813e-07
-6.48982e-07
-2.41339e-07
-7.81319e-07
-2.58243e-07
-9.12404e-07
-2.75448e-07
-1.04194e-06
-2.92866e-07
-1.16963e-06
-3.104e-07
-1.29515e-06
-3.27945e-07
-1.41815e-06
-3.45386e-07
-1.53827e-06
-1.65509e-06
9.12186e-08
1.50212e-06
8.54339e-08
1.39227e-06
7.92714e-08
1.28029e-06
7.2653e-08
1.16596e-06
6.54985e-08
1.04912e-06
5.77322e-08
9.29724e-07
4.9288e-08
8.07797e-07
4.01102e-08
6.83468e-07
3.0154e-08
5.56929e-07
1.93859e-08
4.2843e-07
7.78386e-09
2.98263e-07
-4.66239e-09
1.66749e-07
-1.79523e-08
3.42261e-08
-3.20746e-08
-9.89654e-08
-4.70079e-08
-2.32488e-07
-6.27215e-08
-3.66015e-07
-7.91755e-08
-4.99232e-07
-9.6321e-08
-6.31837e-07
-1.141e-07
-7.6354e-07
-1.32446e-07
-8.94058e-07
-1.51282e-07
-1.0231e-06
-1.70522e-07
-1.15039e-06
-1.90072e-07
-1.2756e-06
-2.09827e-07
-1.39839e-06
-2.29677e-07
-1.51842e-06
-1.63526e-06
2.14192e-07
1.50614e-06
2.09816e-07
1.39664e-06
2.05003e-07
1.2851e-06
1.99656e-07
1.17131e-06
1.93679e-07
1.0551e-06
1.86976e-07
9.36426e-07
1.79466e-07
8.15308e-07
1.71077e-07
6.91857e-07
1.61752e-07
5.66255e-07
1.51446e-07
4.38735e-07
1.40131e-07
3.09578e-07
1.2779e-07
1.7909e-07
1.1442e-07
4.75955e-08
1.00032e-07
-8.45768e-08
8.46445e-08
-2.17101e-07
6.8289e-08
-3.4966e-07
5.10057e-08
-4.81948e-07
3.28438e-08
-6.13675e-07
1.38612e-08
-7.44558e-07
-5.87562e-09
-8.74321e-07
-2.62925e-08
-1.00269e-06
-4.73049e-08
-1.12938e-06
-6.88208e-08
-1.25408e-06
-9.07402e-08
-1.37648e-06
-1.12956e-07
-1.4962e-06
-1.61287e-06
3.373e-07
1.50874e-06
3.34307e-07
1.39964e-06
3.30817e-07
1.28859e-06
3.26719e-07
1.1754e-06
3.219e-07
1.05992e-06
3.16248e-07
9.42077e-07
3.09666e-07
8.2189e-07
3.02068e-07
6.99456e-07
2.93383e-07
5.74939e-07
2.83558e-07
4.4856e-07
2.72555e-07
3.20581e-07
2.6035e-07
1.91294e-07
2.46939e-07
6.10073e-08
2.32325e-07
-6.99636e-08
2.16529e-07
-2.01305e-07
1.99581e-07
-3.32711e-07
1.81519e-07
-4.63887e-07
1.62393e-07
-5.94549e-07
1.42261e-07
-7.24425e-07
1.21187e-07
-8.53247e-07
9.92449e-08
-9.80746e-07
7.65155e-08
-1.10665e-06
5.30873e-08
-1.23065e-06
2.90566e-08
-1.35244e-06
4.52714e-09
-1.47167e-06
-1.58794e-06
4.60341e-07
1.50993e-06
4.58696e-07
1.40128e-06
4.56494e-07
1.29079e-06
4.53612e-07
1.17829e-06
4.49922e-07
1.06361e-06
4.45299e-07
9.46699e-07
4.39632e-07
8.27557e-07
4.32819e-07
7.06268e-07
4.2478e-07
5.82979e-07
4.15449e-07
4.57891e-07
4.0478e-07
3.31251e-07
3.92743e-07
2.03331e-07
3.79325e-07
7.44245e-08
3.6453e-07
-5.51686e-08
3.48374e-07
-1.85148e-07
3.30884e-07
-3.15221e-07
3.12098e-07
-4.45101e-07
2.92066e-07
-5.74516e-07
2.70842e-07
-7.03201e-07
2.4849e-07
-8.30895e-07
2.25081e-07
-9.57337e-07
2.00692e-07
-1.08226e-06
1.75407e-07
-1.20537e-06
1.49316e-07
-1.32635e-06
1.22515e-07
-1.44487e-06
-1.56053e-06
5.83142e-07
1.50976e-06
5.82805e-07
1.40162e-06
5.81849e-07
1.29175e-06
5.8014e-07
1.18e-06
5.77542e-07
1.06621e-06
5.73919e-07
9.50323e-07
5.69144e-07
8.32332e-07
5.63107e-07
7.12306e-07
5.55712e-07
5.90374e-07
5.46884e-07
4.66719e-07
5.36567e-07
3.41567e-07
5.24725e-07
2.15173e-07
5.11339e-07
8.7811e-08
4.96405e-07
-4.0235e-08
4.79937e-07
-1.6868e-07
4.61959e-07
-2.97243e-07
4.42508e-07
-4.2565e-07
4.21628e-07
-5.53637e-07
3.99373e-07
-6.80947e-07
3.75805e-07
-8.07327e-07
3.5099e-07
-9.32522e-07
3.25001e-07
-1.05627e-06
2.97917e-07
-1.17828e-06
2.69821e-07
-1.29826e-06
2.40803e-07
-1.41585e-06
-1.53069e-06
7.05549e-07
1.50826e-06
7.06481e-07
1.40069e-06
7.06725e-07
1.29151e-06
7.06146e-07
1.18057e-06
7.04599e-07
1.06776e-06
7.01938e-07
9.52983e-07
6.98029e-07
8.36241e-07
6.92748e-07
7.17587e-07
6.85991e-07
5.97132e-07
6.7767e-07
4.7504e-07
6.67721e-07
3.51516e-07
6.56099e-07
2.26796e-07
6.42776e-07
1.01133e-07
6.27746e-07
-2.52044e-08
6.11014e-07
-1.51949e-07
5.92602e-07
-2.78831e-07
5.72542e-07
-4.05589e-07
5.50876e-07
-5.3197e-07
5.27653e-07
-6.57724e-07
5.02931e-07
-7.82605e-07
4.76772e-07
-9.06363e-07
4.49242e-07
-1.02874e-06
4.20415e-07
-1.14946e-06
3.90368e-07
-1.26821e-06
3.59183e-07
-1.38467e-06
-1.49846e-06
8.27427e-07
1.50544e-06
8.29593e-07
1.39852e-06
8.30998e-07
1.2901e-06
8.31504e-07
1.18007e-06
8.30964e-07
1.0683e-06
8.29228e-07
9.54718e-07
8.26153e-07
8.39317e-07
8.21606e-07
7.22133e-07
8.15473e-07
6.03265e-07
8.07658e-07
4.82855e-07
7.98086e-07
3.61088e-07
7.86704e-07
2.38178e-07
7.73476e-07
1.14361e-07
7.58387e-07
-1.01152e-08
7.41438e-07
-1.35e-07
7.22644e-07
-2.60037e-07
7.02031e-07
-3.84977e-07
6.79638e-07
-5.09577e-07
6.55508e-07
-6.33594e-07
6.29692e-07
-7.5679e-07
6.02249e-07
-8.78919e-07
5.73237e-07
-9.99727e-07
5.42723e-07
-1.11894e-06
5.10775e-07
-1.23626e-06
4.77468e-07
-1.35136e-06
-1.46387e-06
9.48652e-07
1.50132e-06
9.5203e-07
1.39514e-06
9.54562e-07
1.28757e-06
9.56115e-07
1.17852e-06
9.56543e-07
1.06787e-06
9.55694e-07
9.55567e-07
9.53419e-07
8.41591e-07
9.49581e-07
7.25971e-07
9.44057e-07
6.08789e-07
9.36741e-07
4.9017e-07
9.27551e-07
3.70278e-07
9.16423e-07
2.49306e-07
9.03315e-07
1.27469e-07
8.88202e-07
4.99817e-09
8.71077e-07
-1.17875e-07
8.51948e-07
-2.40908e-07
8.30836e-07
-3.63865e-07
8.0777e-07
-4.86511e-07
7.8279e-07
-6.08614e-07
7.55939e-07
-7.29939e-07
7.27267e-07
-8.50247e-07
6.96826e-07
-9.69287e-07
6.64675e-07
-1.08679e-06
6.30872e-07
-1.20246e-06
5.95485e-07
-1.31597e-06
-1.42697e-06
1.06909e-06
1.49588e-06
1.07368e-06
1.39056e-06
1.07732e-06
1.28393e-06
1.0799e-06
1.17594e-06
1.08126e-06
1.0665e-06
1.08127e-06
9.55562e-07
1.07976e-06
8.43095e-07
1.07661e-06
7.29126e-07
1.07167e-06
6.13723e-07
1.06485e-06
4.96995e-07
1.05604e-06
3.79086e-07
1.04518e-06
2.60169e-07
1.03221e-06
1.4044e-07
1.0171e-06
2.01078e-08
9.99832e-07
-1.00609e-07
9.80411e-07
-2.21486e-07
9.58845e-07
-3.42299e-07
9.35157e-07
-4.62823e-07
9.09377e-07
-5.82834e-07
8.81541e-07
-7.02103e-07
8.51689e-07
-8.20395e-07
8.19867e-07
-9.37464e-07
7.86121e-07
-1.05304e-06
7.50503e-07
-1.16684e-06
7.1307e-07
-1.27854e-06
-1.38779e-06
1.18861e-06
1.48908e-06
1.19443e-06
1.38474e-06
1.19918e-06
1.27917e-06
1.20277e-06
1.17235e-06
1.20505e-06
1.06422e-06
1.20589e-06
9.54725e-07
1.20514e-06
8.43851e-07
1.20264e-06
7.31618e-07
1.19828e-06
6.18083e-07
1.19194e-06
5.03341e-07
1.18351e-06
3.87516e-07
1.17292e-06
2.70763e-07
1.1601e-06
1.53259e-07
1.14501e-06
3.51937e-08
1.12763e-06
-8.32304e-08
1.10795e-06
-2.01805e-07
1.08597e-06
-3.20317e-07
1.0617e-06
-4.38553e-07
1.03516e-06
-5.56296e-07
1.00638e-06
-6.73324e-07
9.75391e-07
-7.89405e-07
9.42224e-07
-9.04297e-07
9.06918e-07
-1.01774e-06
8.69516e-07
-1.12944e-06
8.30062e-07
-1.23909e-06
-1.34634e-06
1.307e-06
1.48083e-06
1.31411e-06
1.37763e-06
1.32002e-06
1.27326e-06
1.32463e-06
1.16774e-06
1.32784e-06
1.06101e-06
1.32951e-06
9.5306e-07
1.32949e-06
8.4387e-07
1.32765e-06
7.3346e-07
1.32385e-06
6.21882e-07
1.31797e-06
5.09215e-07
1.30992e-06
3.95571e-07
1.29959e-06
2.81086e-07
1.28694e-06
1.65919e-07
1.27189e-06
5.02421e-08
1.25441e-06
-6.57578e-08
1.2345e-06
-1.81887e-07
1.21213e-06
-2.97946e-07
1.1873e-06
-4.1373e-07
1.16004e-06
-5.29031e-07
1.13035e-06
-6.43631e-07
1.09825e-06
-7.57306e-07
1.06376e-06
-8.69814e-07
1.02692e-06
-9.80897e-07
9.87755e-07
-1.09027e-06
9.46298e-07
-1.19763e-06
-1.30264e-06
1.42404e-06
1.47103e-06
1.43252e-06
1.36914e-06
1.43965e-06
1.26614e-06
1.44535e-06
1.16204e-06
1.44951e-06
1.05685e-06
1.45202e-06
9.50551e-07
1.45274e-06
8.43144e-07
1.45155e-06
7.34652e-07
1.44831e-06
6.25121e-07
1.44291e-06
5.14622e-07
1.43522e-06
4.03254e-07
1.42517e-06
2.91138e-07
1.41267e-06
1.78416e-07
1.39767e-06
6.52457e-08
1.38012e-06
-4.82021e-08
1.35998e-06
-1.61748e-07
1.33723e-06
-2.75203e-07
1.31188e-06
-3.88374e-07
1.2839e-06
-5.01058e-07
1.25332e-06
-6.13045e-07
1.22012e-06
-7.24114e-07
1.18434e-06
-8.34028e-07
1.14598e-06
-9.42533e-07
1.10505e-06
-1.04935e-06
1.0616e-06
-1.15418e-06
1.01566e-06
-1.25669e-06
9.67266e-07
-1.35653e-06
9.16492e-07
-1.45333e-06
-1.54669e-06
1.5394e-06
1.45949e-06
1.5494e-06
1.35915e-06
1.55785e-06
1.25768e-06
1.56471e-06
1.15519e-06
1.56989e-06
1.05167e-06
1.57329e-06
9.47153e-07
1.57478e-06
8.41645e-07
1.57426e-06
7.35175e-07
1.57159e-06
6.2779e-07
1.56666e-06
5.19556e-07
1.55935e-06
4.10562e-07
1.54957e-06
3.00917e-07
1.53724e-06
1.90749e-07
1.52228e-06
8.0202e-08
1.50465e-06
-3.05669e-08
1.48429e-06
-1.41392e-07
1.46118e-06
-2.52094e-07
1.4353e-06
-3.62489e-07
1.40662e-06
-4.72383e-07
1.37515e-06
-5.8157e-07
1.34087e-06
-6.89834e-07
1.30378e-06
-7.96944e-07
1.2639e-06
-9.02649e-07
1.22123e-06
-1.00668e-06
1.17578e-06
-1.10873e-06
1.12759e-06
-1.2085e-06
1.07669e-06
-1.30564e-06
1.02315e-06
-1.39979e-06
-1.49059e-06
1.65269e-06
1.44603e-06
1.66437e-06
1.34746e-06
1.67429e-06
1.24776e-06
1.68243e-06
1.14705e-06
1.68872e-06
1.04538e-06
1.69308e-06
9.42792e-07
1.69541e-06
8.39314e-07
1.6956e-06
7.34987e-07
1.69353e-06
6.2986e-07
1.68909e-06
5.23997e-07
1.68217e-06
4.17483e-07
1.67267e-06
3.10416e-07
1.6605e-06
2.02915e-07
1.64559e-06
9.511e-08
1.62788e-06
-1.28511e-08
1.6073e-06
-1.20818e-07
1.58382e-06
-2.28617e-07
1.55741e-06
-3.36074e-07
1.52803e-06
-4.43001e-07
1.49566e-06
-5.49201e-07
1.46029e-06
-6.54462e-07
1.4219e-06
-7.58555e-07
1.38049e-06
-8.61237e-07
1.33605e-06
-9.62242e-07
1.2886e-06
-1.06128e-06
1.23816e-06
-1.15806e-06
1.18476e-06
-1.25224e-06
1.12846e-06
-1.34349e-06
-1.43146e-06
1.76337e-06
1.43042e-06
1.77695e-06
1.33389e-06
1.78853e-06
1.23618e-06
1.7981e-06
1.13748e-06
1.80564e-06
1.03785e-06
1.81107e-06
9.37357e-07
1.81432e-06
8.36065e-07
1.81529e-06
7.3402e-07
1.81387e-06
6.31279e-07
1.80996e-06
5.27909e-07
1.80345e-06
4.23992e-07
1.79424e-06
3.19621e-07
1.78225e-06
2.14905e-07
1.76739e-06
1.09968e-07
1.7496e-06
4.94705e-09
1.7288e-06
-1.00018e-07
1.70494e-06
-2.04762e-07
1.67798e-06
-3.09116e-07
1.64789e-06
-4.12902e-07
1.61461e-06
-5.15926e-07
1.57813e-06
-6.17982e-07
1.53842e-06
-7.18848e-07
1.49547e-06
-8.18285e-07
1.44927e-06
-9.16036e-07
1.39981e-06
-1.01183e-06
1.34711e-06
-1.10536e-06
1.2912e-06
-1.19633e-06
1.23214e-06
-1.28443e-06
-1.36933e-06
1.87082e-06
1.41238e-06
1.88654e-06
1.31817e-06
1.89999e-06
1.22273e-06
1.9112e-06
1.12627e-06
1.92015e-06
1.02889e-06
1.9268e-06
9.30706e-07
1.93109e-06
8.31777e-07
1.93293e-06
7.32176e-07
1.93224e-06
6.3197e-07
1.92892e-06
5.31233e-07
1.92286e-06
4.30045e-07
1.91398e-06
3.285e-07
1.90219e-06
2.26702e-07
1.88739e-06
1.24767e-07
1.86951e-06
2.28247e-08
1.84848e-06
-7.89889e-08
1.82424e-06
-1.80519e-07
1.79673e-06
-2.81604e-07
1.76589e-06
-3.82069e-07
1.7317e-06
-4.81728e-07
1.69409e-06
-5.80379e-07
1.65305e-06
-6.77806e-07
1.60854e-06
-7.73779e-07
1.56056e-06
-8.68048e-07
1.50908e-06
-9.6035e-07
1.45413e-06
-1.05041e-06
1.39573e-06
-1.13793e-06
1.33393e-06
-1.22263e-06
-1.30422e-06
1.9743e-06
1.39165e-06
1.99242e-06
1.30005e-06
2.00799e-06
1.20716e-06
2.02106e-06
1.1132e-06
2.03163e-06
1.01833e-06
2.03967e-06
9.22661e-07
2.04515e-06
8.26299e-07
2.048e-06
7.29328e-07
2.04814e-06
6.3183e-07
2.04549e-06
5.33885e-07
2.03995e-06
4.3558e-07
2.03144e-06
3.37008e-07
2.01987e-06
2.38273e-07
2.00515e-06
1.39487e-07
1.9872e-06
4.07746e-08
1.96595e-06
-5.77314e-08
1.94131e-06
-1.55885e-07
1.91323e-06
-2.53528e-07
1.88166e-06
-3.50491e-07
1.84652e-06
-4.46593e-07
1.80778e-06
-5.41639e-07
1.76539e-06
-6.35419e-07
1.71933e-06
-7.27711e-07
1.66955e-06
-8.18277e-07
1.61607e-06
-9.06865e-07
1.55888e-06
-9.93214e-07
1.498e-06
-1.07706e-06
1.4335e-06
-1.15813e-06
-1.23618e-06
2.07296e-06
1.36792e-06
2.09376e-06
1.27924e-06
2.11173e-06
1.18919e-06
2.1269e-06
1.09803e-06
2.13931e-06
1.00592e-06
2.14895e-06
9.1302e-07
2.1558e-06
8.19453e-07
2.1598e-06
7.25323e-07
2.1609e-06
6.30727e-07
2.15903e-06
5.35757e-07
2.1541e-06
4.40508e-07
2.14604e-06
3.45076e-07
2.13474e-06
2.49567e-07
2.12014e-06
1.54092e-07
2.10214e-06
5.87726e-08
2.08067e-06
-3.62592e-08
2.05565e-06
-1.30864e-07
2.02701e-06
-2.24887e-07
1.99468e-06
-3.18163e-07
1.9586e-06
-4.10517e-07
1.91872e-06
-5.01759e-07
1.87499e-06
-5.91688e-07
1.82737e-06
-6.80089e-07
1.77583e-06
-7.66735e-07
1.72036e-06
-8.51391e-07
1.66096e-06
-9.33814e-07
1.59766e-06
-1.01376e-06
1.53052e-06
-1.09099e-06
-1.1653e-06
2.1659e-06
1.34094e-06
2.18966e-06
1.25549e-06
2.21028e-06
1.16858e-06
2.22781e-06
1.08049e-06
2.24231e-06
9.91427e-07
2.25376e-06
9.01561e-07
2.26218e-06
8.11038e-07
2.26752e-06
7.19982e-07
2.26974e-06
6.28507e-07
2.26878e-06
5.36718e-07
2.26457e-06
4.44719e-07
2.25703e-06
3.52614e-07
2.24609e-06
2.60511e-07
2.23166e-06
1.68524e-07
2.21365e-06
7.67746e-08
2.192e-06
-1.46043e-08
2.16662e-06
-1.05482e-07
2.13743e-06
-1.95701e-07
2.10437e-06
-2.85103e-07
2.06737e-06
-3.73516e-07
2.02637e-06
-4.60757e-07
1.98131e-06
-5.46633e-07
1.93216e-06
-6.3094e-07
1.87889e-06
-7.13462e-07
1.82148e-06
-7.93981e-07
1.75994e-06
-8.72273e-07
1.6943e-06
-9.48121e-07
1.62463e-06
-1.02132e-06
-1.09169e-06
2.25218e-06
1.31045e-06
2.27915e-06
1.22852e-06
2.30267e-06
1.14505e-06
2.32282e-06
1.06034e-06
2.33964e-06
9.74612e-07
2.35314e-06
8.88056e-07
2.36334e-06
8.00841e-07
2.37021e-06
7.13111e-07
2.37372e-06
6.24995e-07
2.37383e-06
5.36613e-07
2.37047e-06
4.48079e-07
2.36357e-06
3.59506e-07
2.35308e-06
2.71008e-07
2.3389e-06
1.82703e-07
2.32096e-06
9.47135e-08
2.29918e-06
7.17517e-09
2.27348e-06
-7.9787e-08
2.2438e-06
-1.66013e-07
2.21004e-06
-2.5135e-07
2.17216e-06
-3.35631e-07
2.13008e-06
-4.18679e-07
2.08375e-06
-5.00308e-07
2.03314e-06
-5.80326e-07
1.97821e-06
-6.58532e-07
1.91895e-06
-7.34723e-07
1.85538e-06
-8.08699e-07
1.78752e-06
-8.80268e-07
1.71546e-06
-9.49259e-07
-1.01553e-06
2.33085e-06
1.27625e-06
2.36124e-06
1.19813e-06
2.3879e-06
1.11839e-06
2.4109e-06
1.03735e-06
2.43027e-06
9.55241e-07
2.44604e-06
8.7228e-07
2.45824e-06
7.88649e-07
2.46684e-06
7.04509e-07
2.47183e-06
6.20006e-07
2.47317e-06
5.35273e-07
2.47081e-06
4.50436e-07
2.4647e-06
3.65618e-07
2.45477e-06
2.80939e-07
2.44095e-06
1.96522e-07
2.42317e-06
1.12495e-07
2.40135e-06
2.89915e-08
2.37542e-06
-5.38554e-08
2.3453e-06
-1.35898e-07
2.31093e-06
-2.1698e-07
2.27224e-06
-2.96938e-07
2.22917e-06
-3.75605e-07
2.18166e-06
-4.52803e-07
2.12969e-06
-5.28351e-07
2.07322e-06
-6.02063e-07
2.01225e-06
-6.73755e-07
1.9468e-06
-7.43251e-07
1.87692e-06
-8.10387e-07
1.80269e-06
-8.75026e-07
-9.37067e-07
2.40101e-06
1.2382e-06
2.435e-06
1.16414e-06
2.46499e-06
1.0884e-06
2.49102e-06
1.01131e-06
2.51315e-06
9.3311e-07
2.53141e-06
8.54026e-07
2.5458e-06
7.74256e-07
2.55633e-06
6.93978e-07
2.56299e-06
6.1335e-07
2.56574e-06
5.3252e-07
2.56455e-06
4.51623e-07
2.55938e-06
3.70794e-07
2.55016e-06
2.90159e-07
2.53683e-06
2.09849e-07
2.51933e-06
1.29994e-07
2.4976e-06
5.07307e-08
2.47154e-06
-2.77988e-08
2.44111e-06
-1.05469e-07
2.40624e-06
-1.82106e-07
2.36686e-06
-2.57559e-07
2.32292e-06
-3.31666e-07
2.27437e-06
-4.0426e-07
2.22119e-06
-4.75171e-07
2.16336e-06
-5.44231e-07
2.10088e-06
-6.11277e-07
2.03379e-06
-6.76155e-07
1.96213e-06
-7.38733e-07
1.88602e-06
-7.98909e-07
-8.56625e-07
2.46189e-06
1.19623e-06
2.49957e-06
1.12645e-06
2.53301e-06
1.05496e-06
2.56225e-06
9.82078e-07
2.5873e-06
9.08051e-07
2.60822e-06
8.33115e-07
2.62499e-06
7.5748e-07
2.63764e-06
6.81332e-07
2.64614e-06
6.04844e-07
2.65049e-06
5.28173e-07
2.65065e-06
4.51466e-07
2.64658e-06
3.74865e-07
2.63823e-06
2.98507e-07
2.62555e-06
2.22526e-07
2.60849e-06
1.47057e-07
2.58698e-06
7.22353e-08
2.56094e-06
-1.76015e-09
2.53036e-06
-7.48836e-08
2.49514e-06
-1.46887e-07
2.45524e-06
-2.1766e-07
2.41062e-06
-2.87042e-07
2.36123e-06
-3.54876e-07
2.30707e-06
-4.21007e-07
2.24812e-06
-4.85282e-07
2.18441e-06
-5.47561e-07
2.11597e-06
-6.07716e-07
2.04288e-06
-6.65648e-07
1.96526e-06
-7.2129e-07
-7.74627e-07
2.51284e-06
1.15034e-06
2.55426e-06
1.08503e-06
2.59122e-06
1.018e-06
2.62375e-06
9.49555e-07
2.65185e-06
8.79947e-07
2.67555e-06
8.09413e-07
2.69486e-06
7.38169e-07
2.70978e-06
6.66412e-07
2.72031e-06
5.9432e-07
2.72642e-06
5.2206e-07
2.7281e-06
4.4979e-07
2.7253e-06
3.77657e-07
2.718e-06
3.05806e-07
2.70615e-06
2.34376e-07
2.6897e-06
1.63508e-07
2.66859e-06
9.33427e-08
2.64281e-06
2.40249e-08
2.61225e-06
-4.43227e-08
2.5769e-06
-1.11534e-07
2.5367e-06
-1.77468e-07
2.49164e-06
-2.41978e-07
2.44168e-06
-3.0492e-07
2.38683e-06
-3.66152e-07
2.32709e-06
-4.25542e-07
2.2625e-06
-4.8297e-07
2.19312e-06
-5.38338e-07
2.11905e-06
-5.91578e-07
2.04042e-06
-6.4266e-07
-6.91612e-07
2.55346e-06
1.10061e-06
2.59857e-06
1.03992e-06
2.63904e-06
9.77525e-07
2.67489e-06
9.13713e-07
2.7061e-06
8.48737e-07
2.73268e-06
7.82832e-07
2.75463e-06
7.16216e-07
2.77195e-06
6.49088e-07
2.78464e-06
5.81634e-07
2.79267e-06
5.14026e-07
2.79603e-06
4.46428e-07
2.7947e-06
3.78992e-07
2.78864e-06
3.11869e-07
2.77781e-06
2.45204e-07
2.76218e-06
1.79138e-07
2.74171e-06
1.13813e-07
2.71636e-06
4.93696e-08
2.68609e-06
-1.40523e-08
2.65088e-06
-7.63162e-08
2.61068e-06
-1.37275e-07
2.5655e-06
-1.96795e-07
2.51532e-06
-2.54744e-07
2.46017e-06
-3.10996e-07
2.40006e-06
-3.65439e-07
2.33507e-06
-4.17978e-07
2.26527e-06
-4.68541e-07
2.19079e-06
-5.17094e-07
2.11177e-06
-5.63644e-07
-6.08259e-07
2.58355e-06
1.04721e-06
2.63224e-06
9.91238e-07
2.67615e-06
9.33609e-07
2.71528e-06
8.74589e-07
2.74959e-06
8.14424e-07
2.77908e-06
7.53342e-07
2.80374e-06
6.91559e-07
2.82355e-06
6.29273e-07
2.83851e-06
5.66673e-07
2.84861e-06
5.03934e-07
2.85381e-06
4.41221e-07
2.85411e-06
3.78693e-07
2.84948e-06
3.16501e-07
2.83989e-06
2.54792e-07
2.82532e-06
1.93709e-07
2.80574e-06
1.33394e-07
2.78113e-06
7.39852e-08
2.75145e-06
1.56194e-08
2.71671e-06
-4.15726e-08
2.67689e-06
-9.74558e-08
2.632e-06
-1.51905e-07
2.58206e-06
-2.04801e-07
2.5271e-06
-2.56038e-07
2.46718e-06
-3.05524e-07
2.40239e-06
-3.53188e-07
2.33284e-06
-3.98987e-07
2.25866e-06
-4.42917e-07
2.18004e-06
-4.85022e-07
-5.25408e-07
2.60323e-06
9.90357e-07
2.6553e-06
9.39169e-07
2.70251e-06
8.86395e-07
2.74482e-06
8.32284e-07
2.78218e-06
7.77066e-07
2.81456e-06
7.20962e-07
2.84194e-06
6.64179e-07
2.8643e-06
6.06913e-07
2.88162e-06
5.4935e-07
2.89389e-06
4.91663e-07
2.90109e-06
4.3402e-07
2.90321e-06
3.76577e-07
2.90022e-06
3.19487e-07
2.89212e-06
2.62896e-07
2.87888e-06
2.06946e-07
2.8605e-06
1.51776e-07
2.83696e-06
9.75191e-08
2.80828e-06
4.43063e-08
2.77444e-06
-7.73531e-09
2.73547e-06
-5.84885e-08
2.6914e-06
-1.07836e-07
2.64228e-06
-1.55676e-07
2.58816e-06
-2.01922e-07
2.52914e-06
-2.46501e-07
2.46532e-06
-2.89368e-07
2.39684e-06
-3.30507e-07
2.32387e-06
-3.69944e-07
2.2466e-06
-4.07754e-07
-4.44078e-07
2.6129e-06
9.30331e-07
2.66812e-06
8.83946e-07
2.71844e-06
8.36076e-07
2.76378e-06
7.86944e-07
2.80408e-06
7.36766e-07
2.8393e-06
6.85749e-07
2.86938e-06
6.3409e-07
2.89432e-06
5.81977e-07
2.91408e-06
5.2959e-07
2.92865e-06
4.77097e-07
2.938e-06
4.24662e-07
2.94214e-06
3.7244e-07
2.94105e-06
3.20579e-07
2.93472e-06
2.69221e-07
2.92316e-06
2.18506e-07
2.90638e-06
1.68564e-07
2.88437e-06
1.19525e-07
2.85717e-06
7.15093e-08
2.8248e-06
2.46339e-08
2.7873e-06
-2.0994e-08
2.74474e-06
-6.52747e-08
2.69719e-06
-1.08123e-07
2.64474e-06
-1.49468e-07
2.5875e-06
-1.89261e-07
2.52561e-06
-2.2748e-07
2.45923e-06
-2.64133e-07
2.38856e-06
-2.99273e-07
2.31381e-06
-3.33001e-07
-3.65485e-07
2.6134e-06
8.67427e-07
2.67152e-06
8.25826e-07
2.72473e-06
7.82861e-07
2.77294e-06
7.38734e-07
2.81607e-06
6.93639e-07
2.85405e-06
6.47767e-07
2.88684e-06
6.01303e-07
2.91439e-06
5.54422e-07
2.93669e-06
5.07294e-07
2.9537e-06
4.6008e-07
2.96543e-06
4.12937e-07
2.97186e-06
3.66011e-07
2.97299e-06
3.19445e-07
2.96884e-06
2.73374e-07
2.95942e-06
2.27929e-07
2.94475e-06
1.83235e-07
2.92486e-06
1.39409e-07
2.89981e-06
9.65625e-08
2.86964e-06
5.47996e-08
2.83444e-06
1.42144e-08
2.79427e-06
-2.51099e-08
2.74925e-06
-6.31041e-08
2.6995e-06
-9.97171e-08
2.64516e-06
-1.3492e-07
2.58639e-06
-1.68709e-07
2.52337e-06
-2.01116e-07
2.45631e-06
-2.32215e-07
2.38544e-06
-2.62126e-07
-2.91037e-07
2.60622e-06
8.01908e-07
2.66701e-06
7.65029e-07
2.72295e-06
7.26926e-07
2.77391e-06
6.87775e-07
2.8198e-06
6.4775e-07
2.86054e-06
6.07023e-07
2.89608e-06
5.65761e-07
2.92638e-06
5.24126e-07
2.9514e-06
4.82273e-07
2.97113e-06
4.40353e-07
2.98555e-06
3.9851e-07
2.99468e-06
3.56882e-07
2.99853e-06
3.156e-07
2.99711e-06
2.74791e-07
2.99046e-06
2.34574e-07
2.97864e-06
1.95062e-07
2.96168e-06
1.56363e-07
2.93967e-06
1.18575e-07
2.91268e-06
8.17872e-08
2.88082e-06
4.60807e-08
2.84418e-06
1.15218e-08
2.80292e-06
-2.18357e-08
2.75716e-06
-5.39576e-08
2.70707e-06
-8.48315e-08
2.65283e-06
-1.14472e-07
2.59464e-06
-1.42927e-07
2.53271e-06
-1.70284e-07
2.46726e-06
-1.96678e-07
-2.22308e-07
2.59425e-06
7.3392e-07
2.65762e-06
7.01655e-07
2.71623e-06
6.68317e-07
2.76995e-06
6.34056e-07
2.81868e-06
5.99024e-07
2.86233e-06
5.63371e-07
2.90085e-06
5.27246e-07
2.93418e-06
4.90791e-07
2.96231e-06
4.54149e-07
2.98521e-06
4.17452e-07
3.00288e-06
3.80833e-07
3.01535e-06
3.44415e-07
3.02263e-06
3.08318e-07
3.02477e-06
2.72654e-07
3.02181e-06
2.3753e-07
3.01383e-06
2.03048e-07
3.00089e-06
1.69301e-07
2.98309e-06
1.36373e-07
2.96054e-06
1.04341e-07
2.93335e-06
7.32707e-08
2.90165e-06
4.32153e-08
2.86561e-06
1.42115e-08
2.82537e-06
-1.37192e-08
2.78111e-06
-4.05776e-08
2.73303e-06
-6.6387e-08
2.68131e-06
-9.12114e-08
2.62618e-06
-1.15145e-07
2.56783e-06
-1.38329e-07
-1.60962e-07
2.58336e-06
6.63382e-07
2.64945e-06
6.35568e-07
2.71093e-06
6.06836e-07
2.76767e-06
5.77311e-07
2.81958e-06
5.47121e-07
2.86655e-06
5.16393e-07
2.90855e-06
4.85254e-07
2.94551e-06
4.5383e-07
2.97741e-06
4.22242e-07
3.00426e-06
3.90608e-07
3.02605e-06
3.59043e-07
3.04281e-06
3.27655e-07
3.05458e-06
2.9655e-07
3.0614e-06
2.65825e-07
3.06336e-06
2.35574e-07
3.06053e-06
2.05883e-07
3.05299e-06
1.76834e-07
3.04087e-06
1.48496e-07
3.02428e-06
1.20935e-07
3.00335e-06
9.42011e-08
2.97822e-06
6.83369e-08
2.94907e-06
4.33684e-08
2.91604e-06
1.93054e-08
2.87934e-06
-3.87546e-09
2.83913e-06
-2.61723e-08
2.7956e-06
-4.76821e-08
2.74894e-06
-6.8492e-08
2.69935e-06
-8.87406e-08
-1.08623e-07
2.58543e-06
5.89863e-07
2.65471e-06
5.66279e-07
2.71962e-06
5.4193e-07
2.78002e-06
5.16916e-07
2.8358e-06
4.91341e-07
2.88688e-06
4.65308e-07
2.93321e-06
4.38925e-07
2.97475e-06
4.12295e-07
3.01147e-06
3.85521e-07
3.04337e-06
3.58704e-07
3.07048e-06
3.31939e-07
3.09281e-06
3.05321e-07
3.11042e-06
2.78938e-07
3.12337e-06
2.52875e-07
3.13174e-06
2.27209e-07
3.1356e-06
2.02016e-07
3.13508e-06
1.7736e-07
3.13027e-06
1.53303e-07
3.12131e-06
1.29896e-07
3.10833e-06
1.0718e-07
3.09148e-06
8.51868e-08
3.07091e-06
6.39342e-08
3.04679e-06
4.34245e-08
3.01928e-06
2.36417e-08
2.98856e-06
4.54508e-09
2.95479e-06
-1.39097e-08
2.91813e-06
-3.18382e-08
2.87876e-06
-4.93627e-08
-6.66685e-08
2.62326e-06
5.1257e-07
2.6966e-06
4.92942e-07
2.76583e-06
4.72695e-07
2.83084e-06
4.51907e-07
2.89153e-06
4.30656e-07
2.94781e-06
4.09026e-07
2.99963e-06
3.87102e-07
3.04696e-06
3.64968e-07
3.08977e-06
3.42707e-07
3.12807e-06
3.20403e-07
3.16188e-06
2.98135e-07
3.19122e-06
2.75979e-07
3.21615e-06
2.54011e-07
3.23672e-06
2.32299e-07
3.25302e-06
2.1091e-07
3.26513e-06
1.89903e-07
3.27316e-06
1.69336e-07
3.27721e-06
1.49255e-07
3.2774e-06
1.29703e-07
3.27386e-06
1.10714e-07
3.26674e-06
9.23111e-08
3.25617e-06
7.45062e-08
3.24229e-06
5.72982e-08
3.22527e-06
4.06698e-08
3.20523e-06
2.45847e-08
3.18233e-06
8.98614e-09
3.15671e-06
-6.21755e-09
3.12848e-06
-2.11351e-08
-3.59449e-08
2.73684e-06
4.30575e-07
2.81518e-06
4.14604e-07
2.88972e-06
3.98153e-07
2.96035e-06
3.81277e-07
3.02698e-06
3.64034e-07
3.08951e-06
3.46488e-07
3.14791e-06
3.28703e-07
3.20213e-06
3.10746e-07
3.25216e-06
2.92683e-07
3.29798e-06
2.74579e-07
3.33962e-06
2.56497e-07
3.3771e-06
2.38501e-07
3.41046e-06
2.20649e-07
3.43976e-06
2.02999e-07
3.46506e-06
1.85604e-07
3.48646e-06
1.68512e-07
3.50402e-06
1.5177e-07
3.51786e-06
1.35416e-07
3.52808e-06
1.19485e-07
3.53479e-06
1.04002e-07
3.53812e-06
8.89855e-08
3.53818e-06
7.4444e-08
3.5351e-06
6.0374e-08
3.52901e-06
4.67589e-08
3.52003e-06
3.35657e-08
3.50828e-06
2.07429e-08
3.49385e-06
8.21045e-09
3.47685e-06
-4.13348e-09
-1.64341e-08
2.98873e-06
3.43484e-07
3.07244e-06
3.30894e-07
3.15264e-06
3.17953e-07
3.22922e-06
3.04698e-07
3.30209e-06
2.9117e-07
3.37116e-06
2.77413e-07
3.43639e-06
2.63476e-07
3.49773e-06
2.49408e-07
3.55515e-06
2.3526e-07
3.60865e-06
2.21082e-07
3.65822e-06
2.06923e-07
3.70389e-06
1.92831e-07
3.74569e-06
1.78853e-07
3.78365e-06
1.65034e-07
3.81784e-06
1.51416e-07
3.84832e-06
1.38037e-07
3.87515e-06
1.24934e-07
3.89843e-06
1.12136e-07
3.91825e-06
9.9671e-08
3.93469e-06
8.7558e-08
3.94787e-06
7.58107e-08
3.95787e-06
6.44348e-08
3.96482e-06
5.3425e-08
3.96882e-06
4.27667e-08
3.96995e-06
3.24309e-08
3.96832e-06
2.23746e-08
3.964e-06
1.25281e-08
3.95706e-06
2.80481e-09
-6.92305e-09
3.46418e-06
2.52578e-07
3.55191e-06
2.43162e-07
3.63635e-06
2.33511e-07
3.7174e-06
2.23649e-07
3.79497e-06
2.13603e-07
3.86898e-06
2.03402e-07
3.93937e-06
1.93082e-07
4.0061e-06
1.82677e-07
4.06914e-06
1.72224e-07
4.12846e-06
1.6176e-07
4.18406e-06
1.5132e-07
4.23595e-06
1.4094e-07
4.28415e-06
1.30656e-07
4.32869e-06
1.20499e-07
4.3696e-06
1.10503e-07
4.40694e-06
1.00694e-07
4.44078e-06
9.11003e-08
4.47117e-06
8.1744e-08
4.4982e-06
7.26439e-08
4.52194e-06
6.38142e-08
4.54249e-06
5.5263e-08
4.55993e-06
4.69943e-08
4.57435e-06
3.90015e-08
4.58585e-06
3.12722e-08
4.59449e-06
2.37826e-08
4.60037e-06
1.6496e-08
4.60355e-06
9.3558e-09
4.60405e-06
2.29735e-09
-4.80654e-09
4.26021e-06
1.62251e-07
4.34751e-06
1.55865e-07
4.43167e-06
1.49342e-07
4.51263e-06
1.42699e-07
4.59028e-06
1.35951e-07
4.66456e-06
1.29117e-07
4.73542e-06
1.2222e-07
4.80282e-06
1.15283e-07
4.86671e-06
1.08332e-07
4.92708e-06
1.0139e-07
4.98392e-06
9.4481e-08
5.03723e-06
8.76301e-08
5.08703e-06
8.08604e-08
5.13333e-06
7.41939e-08
5.17618e-06
6.76517e-08
5.21562e-06
6.12528e-08
5.25171e-06
5.50143e-08
5.2845e-06
4.89511e-08
5.31407e-06
4.30752e-08
5.34049e-06
3.73948e-08
5.36384e-06
3.19125e-08
5.38421e-06
2.66271e-08
5.40168e-06
2.15319e-08
5.41633e-06
1.66232e-08
5.42822e-06
1.1886e-08
5.43743e-06
7.28366e-09
5.44403e-06
2.76024e-09
5.44803e-06
-1.70355e-09
-6.25364e-09
5.45819e-06
8.11758e-08
5.53642e-06
7.76334e-08
5.61173e-06
7.40278e-08
5.68406e-06
7.03706e-08
5.75334e-06
6.66712e-08
5.81952e-06
6.29399e-08
5.88255e-06
5.91892e-08
5.9424e-06
5.5433e-08
5.99905e-06
5.16851e-08
6.05248e-06
4.79594e-08
6.10269e-06
4.42694e-08
6.14969e-06
4.06286e-08
6.1935e-06
3.70498e-08
6.23415e-06
3.3545e-08
6.27167e-06
3.01253e-08
6.30613e-06
2.68006e-08
6.33756e-06
2.35797e-08
6.36604e-06
2.04694e-08
6.39164e-06
1.74764e-08
6.41443e-06
1.46042e-08
6.43449e-06
1.18568e-08
6.45189e-06
9.22116e-09
6.46676e-06
6.66592e-09
6.47914e-06
4.23921e-09
6.48911e-06
1.92183e-09
6.49666e-06
-2.71322e-10
6.50198e-06
-2.55578e-09
6.50503e-06
-4.75659e-09
-7.01177e-09
7.07746e-06
2.22813e-08
7.13399e-06
2.11001e-08
7.18812e-06
1.99002e-08
7.2398e-06
1.86906e-08
7.28899e-06
1.74756e-08
7.33567e-06
1.62584e-08
7.37982e-06
1.50434e-08
7.42142e-06
1.38359e-08
7.46046e-06
1.26411e-08
7.49696e-06
1.14639e-08
7.53092e-06
1.03089e-08
7.56236e-06
9.18062e-09
7.59133e-06
8.08324e-09
7.61786e-06
7.02048e-09
7.64199e-06
5.9957e-09
7.66377e-06
5.01149e-09
7.68328e-06
4.07034e-09
7.70058e-06
3.17296e-09
7.71573e-06
2.32165e-09
7.72882e-06
1.51432e-09
7.73992e-06
7.63164e-10
7.74905e-06
9.45738e-11
7.75639e-06
-6.76557e-10
7.76194e-06
-1.31385e-09
7.76577e-06
-1.90506e-09
7.76799e-06
-2.49332e-09
7.76853e-06
-3.10117e-09
7.76748e-06
-3.70249e-09