/*--------------------------------*- C++ -*----------------------------------*\
  =========                 |
  \\      /  F ield         | OpenFOAM: The Open Source CFD Toolbox
   \\    /   O peration     | Website:  https://openfoam.org
    \\  /    A nd           | Version:  9
     \\/     M anipulation  |
\*---------------------------------------------------------------------------*/
FoamFile
{
    format      ascii;
    class       volVectorField;
    location    "1.25";
    object      U;
}
// * * * * * * * * * * * * * * * * * * * * * * * * * * * * * * * * * * * * * //

dimensions      [0 1 -1 0 0 0 0];

internalField   nonuniform List<vector> 
1260
(
(-0.0388957 0.146624 0)
(-0.0400248 0.135527 0)
(-0.0411707 0.124203 0)
(-0.0423316 0.112626 0)
(-0.0435065 0.100779 0)
(-0.0446937 0.0886563 0)
(-0.0458937 0.0762651 0)
(-0.0471057 0.0636214 0)
(-0.0483286 0.0507465 0)
(-0.0495619 0.0376679 0)
(-0.0508051 0.0244182 0)
(-0.0520574 0.0110329 0)
(-0.0533178 -0.00245086 0)
(-0.0545849 -0.0159955 0)
(-0.055857 -0.0295636 0)
(-0.0571314 -0.0431188 0)
(-0.0584051 -0.0566258 0)
(-0.0596741 -0.0700504 0)
(-0.0609334 -0.0833593 0)
(-0.0621769 -0.0965195 0)
(-0.0633976 -0.109498 0)
(-0.0645872 -0.12226 0)
(-0.0657363 -0.134772 0)
(-0.0668348 -0.146994 0)
(-0.0678726 -0.158889 0)
(-0.0688388 -0.170415 0)
(-0.0269641 0.147676 0)
(-0.027956 0.136598 0)
(-0.0289685 0.125292 0)
(-0.0300021 0.113734 0)
(-0.031058 0.101905 0)
(-0.032138 0.089801 0)
(-0.0332438 0.0774294 0)
(-0.0343762 0.0648048 0)
(-0.0355358 0.051949 0)
(-0.0367231 0.0388896 0)
(-0.0379386 0.0256587 0)
(-0.0391822 0.0122916 0)
(-0.0404531 -0.00117507 0)
(-0.0417503 -0.0147041 0)
(-0.0430719 -0.0282587 0)
(-0.0444156 -0.0418033 0)
(-0.0457781 -0.0553033 0)
(-0.0471552 -0.0687254 0)
(-0.0485419 -0.0820373 0)
(-0.0499321 -0.0952071 0)
(-0.0513186 -0.108203 0)
(-0.052693 -0.120992 0)
(-0.0540459 -0.133539 0)
(-0.0553668 -0.145808 0)
(-0.0566454 -0.15776 0)
(-0.0578699 -0.169355 0)
(-0.0149198 0.148587 0)
(-0.01577 0.137531 0)
(-0.0166449 0.126249 0)
(-0.0175477 0.114716 0)
(-0.0184818 0.102916 0)
(-0.0194513 0.0908432 0)
(-0.0204597 0.0785049 0)
(-0.0215096 0.0659153 0)
(-0.0226031 0.0530956 0)
(-0.023742 0.0400733 0)
(-0.0249273 0.02688 0)
(-0.0261596 0.0135502 0)
(-0.0274387 0.000120171 0)
(-0.0287634 -0.0133737 0)
(-0.0301322 -0.0268953 0)
(-0.0315424 -0.0404097 0)
(-0.0329908 -0.0538833 0)
(-0.034473 -0.0672837 0)
(-0.035984 -0.0805795 0)
(-0.0375174 -0.09374 0)
(-0.0390662 -0.106734 0)
(-0.0406219 -0.11953 0)
(-0.0421751 -0.132095 0)
(-0.0437155 -0.144392 0)
(-0.0452322 -0.156383 0)
(-0.0467137 -0.168028 0)
(-0.00279054 0.149354 0)
(-0.00349661 0.138323 0)
(-0.00423211 0.12707 0)
(-0.00500226 0.115571 0)
(-0.00581284 0.10381 0)
(-0.00666995 0.0917807 0)
(-0.00757898 0.0794898 0)
(-0.0085443 0.0669507 0)
(-0.00956951 0.0541841 0)
(-0.0106574 0.0412167 0)
(-0.0118101 0.0280795 0)
(-0.0130284 0.0148061 0)
(-0.0143126 0.00143193 0)
(-0.0156619 -0.0120073 0)
(-0.0170744 -0.0254766 0)
(-0.0185478 -0.0389416 0)
(-0.0200784 -0.0523696 0)
(-0.021662 -0.0657292 0)
(-0.0232932 -0.07899 0)
(-0.0249659 -0.0921221 0)
(-0.0266728 -0.105096 0)
(-0.0284057 -0.11788 0)
(-0.0301553 -0.130443 0)
(-0.0319113 -0.142748 0)
(-0.0336629 -0.15476 0)
(-0.0353987 -0.166437 0)
(0.00939877 0.149975 0)
(0.00883719 0.138973 0)
(0.00824136 0.127755 0)
(0.00760401 0.116298 0)
(0.0069173 0.104585 0)
(0.0061732 0.0926114 0)
(0.00536449 0.0803817 0)
(0.00448508 0.0679085 0)
(0.00352992 0.0552117 0)
(0.00249505 0.0423169 0)
(0.00137767 0.0292541 0)
(0.00017613 0.0160559 0)
(-0.00111006 0.00275679 0)
(-0.00248031 -0.0106087 0)
(-0.00393298 -0.0240063 0)
(-0.00546547 -0.0374027 0)
(-0.00707426 -0.0507662 0)
(-0.00875489 -0.064066 0)
(-0.010502 -0.0772728 0)
(-0.0123095 -0.0903577 0)
(-0.01417 -0.103292 0)
(-0.0160754 -0.116045 0)
(-0.0180168 -0.128586 0)
(-0.019984 -0.140882 0)
(-0.0219667 -0.152894 0)
(-0.0239531 -0.164582 0)
(0.0216244 0.15045 0)
(0.0212062 0.139481 0)
(0.0207487 0.128304 0)
(0.0202429 0.116896 0)
(0.0196791 0.105242 0)
(0.0190475 0.0933352 0)
(0.0183391 0.08118 0)
(0.0175461 0.0687876 0)
(0.0166622 0.0561767 0)
(0.0156822 0.0433717 0)
(0.0146025 0.0304013 0)
(0.0134206 0.0172968 0)
(0.0121358 0.00409136 0)
(0.0107483 -0.00918144 0)
(0.00925963 -0.0224884 0)
(0.00767234 -0.0357974 0)
(0.00598998 -0.0490773 0)
(0.00421705 -0.0622986 0)
(0.00235889 -0.0754327 0)
(0.00042172 -0.0884515 0)
(-0.00158732 -0.101327 0)
(-0.00366031 -0.11403 0)
(-0.00578848 -0.126531 0)
(-0.00796212 -0.138796 0)
(-0.0101711 -0.150788 0)
(-0.0124042 -0.162469 0)
(0.0338647 0.15078 0)
(0.0335874 0.139849 0)
(0.0332657 0.128719 0)
(0.0328889 0.117368 0)
(0.0324458 0.105781 0)
(0.031925 0.093953 0)
(0.031316 0.0818849 0)
(0.0306093 0.0695875 0)
(0.0297972 0.057078 0)
(0.0288735 0.0443793 0)
(0.0278335 0.0315184 0)
(0.0266743 0.0185254 0)
(0.0253942 0.005432 0)
(0.0239934 -0.00772963 0)
(0.0224731 -0.0209274 0)
(0.0208357 -0.0341303 0)
(0.0190848 -0.0473081 0)
(0.0172248 -0.0604322 0)
(0.015261 -0.0734748 0)
(0.0131996 -0.0864088 0)
(0.0110475 -0.099207 0)
(0.00881245 -0.111841 0)
(0.00650292 -0.124282 0)
(0.00412812 -0.136496 0)
(0.00169766 -0.148449 0)
(-0.000777484 -0.160101 0)
(0.0461 0.150969 0)
(0.0459603 0.140081 0)
(0.0457708 0.129003 0)
(0.0455194 0.117716 0)
(0.0451939 0.106207 0)
(0.0447814 0.0944665 0)
(0.0442698 0.0824974 0)
(0.0436485 0.0703083 0)
(0.0429083 0.0579148 0)
(0.0420418 0.0453379 0)
(0.0410434 0.0326032 0)
(0.0399093 0.0197388 0)
(0.0386375 0.00677496 0)
(0.0372274 -0.00625754 0)
(0.03568 -0.019328 0)
(0.0339976 -0.0324064 0)
(0.0321835 -0.0454637 0)
(0.030242 -0.0584722 0)
(0.0281783 -0.0714049 0)
(0.0259985 -0.0842354 0)
(0.0237093 -0.0969373 0)
(0.021318 -0.109483 0)
(0.0188327 -0.121844 0)
(0.0162623 -0.133988 0)
(0.0136158 -0.145881 0)
(0.0109034 -0.157483 0)
(0.0583131 0.15102 0)
(0.0583073 0.140179 0)
(0.0582456 0.12916 0)
(0.0581155 0.117945 0)
(0.0579036 0.10652 0)
(0.057596 0.0948783 0)
(0.0571793 0.0830193 0)
(0.0566417 0.0709509 0)
(0.0559727 0.0586868 0)
(0.0551638 0.0462465 0)
(0.0542084 0.0336534 0)
(0.0531019 0.0209339 0)
(0.0518415 0.00811654 0)
(0.0504261 -0.00476952 0)
(0.0488563 -0.017695 0)
(0.0471339 -0.0306311 0)
(0.0452621 -0.0435499 0)
(0.043245 -0.0564245 0)
(0.0410876 -0.0692288 0)
(0.0387955 -0.0819372 0)
(0.0363753 -0.0945239 0)
(0.0338338 -0.106962 0)
(0.0311788 -0.119223 0)
(0.0284183 -0.131277 0)
(0.025561 -0.143088 0)
(0.0226161 -0.154619 0)
(0.0704887 0.150936 0)
(0.070613 0.140149 0)
(0.070675 0.129195 0)
(0.0706616 0.118059 0)
(0.0705589 0.106727 0)
(0.0703522 0.0951919 0)
(0.0700272 0.0834531 0)
(0.0695709 0.0715167 0)
(0.0689719 0.0593946 0)
(0.0682204 0.0471043 0)
(0.0673089 0.0346673 0)
(0.066232 0.0221081 0)
(0.0649859 0.00945321 0)
(0.063569 -0.00326987 0)
(0.0619813 -0.0160333 0)
(0.0602242 -0.0288097 0)
(0.0583004 -0.0415723 0)
(0.0562136 -0.0542951 0)
(0.0539685 -0.0669529 0)
(0.0515705 -0.0795206 0)
(0.0490254 -0.0919731 0)
(0.0463399 -0.104284 0)
(0.0435209 -0.116426 0)
(0.0405759 -0.128368 0)
(0.0375129 -0.140076 0)
(0.0343403 -0.151513 0)
(0.0826129 0.15072 0)
(0.0828645 0.139993 0)
(0.0830462 0.129112 0)
(0.083145 0.118062 0)
(0.0831471 0.10683 0)
(0.0830371 0.095411 0)
(0.0828003 0.0838018 0)
(0.0824226 0.0720077 0)
(0.0818918 0.0600391 0)
(0.081197 0.0479114 0)
(0.0803299 0.0356439 0)
(0.079284 0.0232592 0)
(0.0780548 0.0107817 0)
(0.0766399 -0.00176265 0)
(0.0750385 -0.0143478 0)
(0.0732516 -0.0269478 0)
(0.0712812 -0.0395369 0)
(0.0691305 -0.0520902 0)
(0.0668038 -0.0645833 0)
(0.0643059 -0.0769918 0)
(0.0616422 -0.0892909 0)
(0.0588185 -0.101455 0)
(0.0558413 -0.113457 0)
(0.0527171 -0.125266 0)
(0.0494532 -0.13685 0)
(0.0460572 -0.148171 0)
(0.0946726 0.150373 0)
(0.0950498 0.139716 0)
(0.0953483 0.128914 0)
(0.0955559 0.117958 0)
(0.0956587 0.106835 0)
(0.0956415 0.0955395 0)
(0.0954892 0.0840687 0)
(0.0951872 0.0724265 0)
(0.0947224 0.0606218 0)
(0.0940833 0.0486679 0)
(0.0932604 0.0365823 0)
(0.0922465 0.0243853 0)
(0.0910362 0.0120994 0)
(0.0896262 -0.000251488 0)
(0.088015 -0.0126428 0)
(0.0862027 -0.0250501 0)
(0.0841908 -0.037449 0)
(0.0819817 -0.0498156 0)
(0.0795791 -0.062126 0)
(0.0769871 -0.0743566 0)
(0.0742103 -0.0864833 0)
(0.0712541 -0.0984807 0)
(0.0681237 -0.110322 0)
(0.0648252 -0.121977 0)
(0.0613648 -0.133413 0)
(0.0577493 -0.144595 0)
(0.106654 0.149897 0)
(0.107157 0.139318 0)
(0.107571 0.128606 0)
(0.107885 0.117751 0)
(0.108086 0.106745 0)
(0.108158 0.0955812 0)
(0.108087 0.0842572 0)
(0.107858 0.0727758 0)
(0.107457 0.0611445 0)
(0.106872 0.0493749 0)
(0.106093 0.0374824 0)
(0.105112 0.0254853 0)
(0.103922 0.013404 0)
(0.102519 0.00126059 0)
(0.100901 -0.0109222 0)
(0.0990675 -0.0231214 0)
(0.0970184 -0.0353137 0)
(0.0947558 -0.0474764 0)
(0.0922822 -0.0595864 0)
(0.0896012 -0.0716207 0)
(0.0867165 -0.0835555 0)
(0.0836324 -0.095366 0)
(0.0803535 -0.107025 0)
(0.0768848 -0.118504 0)
(0.0732315 -0.129771 0)
(0.0693997 -0.140789 0)
(0.11854 0.149286 0)
(0.119173 0.138799 0)
(0.119704 0.128187 0)
(0.120124 0.117444 0)
(0.120421 0.106563 0)
(0.120581 0.095539 0)
(0.120589 0.0843699 0)
(0.120431 0.0730579 0)
(0.120092 0.061609 0)
(0.11956 0.0500333 0)
(0.118824 0.0383444 0)
(0.117875 0.0265584 0)
(0.116706 0.014694 0)
(0.115312 0.00277111 0)
(0.11369 -0.00918914 0)
(0.111838 -0.0211652 0)
(0.109756 -0.0331352 0)
(0.107443 -0.0450772 0)
(0.104903 -0.0569692 0)
(0.102137 -0.0687886 0)
(0.0991486 -0.0805121 0)
(0.0959406 -0.0921153 0)
(0.0925168 -0.103572 0)
(0.0888811 -0.114852 0)
(0.0850378 -0.125926 0)
(0.080992 -0.136756 0)
(0.130312 0.148537 0)
(0.13108 0.138155 0)
(0.131733 0.127655 0)
(0.132262 0.117035 0)
(0.132657 0.106289 0)
(0.132904 0.0954142 0)
(0.13299 0.0844088 0)
(0.132901 0.0732746 0)
(0.132622 0.0620169 0)
(0.132142 0.0506444 0)
(0.131448 0.0391687 0)
(0.130532 0.0276045 0)
(0.129385 0.0159683 0)
(0.128001 0.00427834 0)
(0.126377 -0.00744594 0)
(0.124508 -0.0191845 0)
(0.122395 -0.0309167 0)
(0.120036 -0.0426217 0)
(0.117432 -0.0542781 0)
(0.114584 -0.065864 0)
(0.111495 -0.0773566 0)
(0.108166 -0.0887317 0)
(0.1046 -0.0999632 0)
(0.100799 -0.111023 0)
(0.0967677 -0.121879 0)
(0.0925095 -0.132498 0)
(0.141942 0.147638 0)
(0.142857 0.137379 0)
(0.143639 0.127006 0)
(0.144283 0.116521 0)
(0.144779 0.105922 0)
(0.145115 0.0952066 0)
(0.145281 0.0843742 0)
(0.145261 0.0734269 0)
(0.145043 0.0623691 0)
(0.144614 0.0512087 0)
(0.143963 0.0399558 0)
(0.143079 0.0286234 0)
(0.141954 0.0172264 0)
(0.14058 0.00578133 0)
(0.138954 -0.00569406 0)
(0.137071 -0.0171811 0)
(0.134928 -0.0286604 0)
(0.132524 -0.040112 0)
(0.129858 -0.0515154 0)
(0.126931 -0.0628493 0)
(0.123742 -0.0740913 0)
(0.120294 -0.0852175 0)
(0.116587 -0.0962023 0)
(0.112623 -0.107018 0)
(0.108404 -0.117633 0)
(0.103934 -0.128015 0)
(0.0992167 -0.138127 0)
(0.0942573 -0.147932 0)
(0.0890632 -0.15739 0)
(0.153397 0.146577 0)
(0.154474 0.136459 0)
(0.155397 0.126231 0)
(0.156165 0.115897 0)
(0.156769 0.105457 0)
(0.157201 0.0949132 0)
(0.157449 0.0842645 0)
(0.157501 0.0735137 0)
(0.157345 0.0626654 0)
(0.156968 0.0517263 0)
(0.156359 0.0407059 0)
(0.155508 0.0296154 0)
(0.154405 0.0184683 0)
(0.153042 0.00727968 0)
(0.151415 -0.00393418 0)
(0.149517 -0.0151559 0)
(0.147345 -0.0263674 0)
(0.144896 -0.0375495 0)
(0.14217 -0.0486825 0)
(0.139163 -0.0597457 0)
(0.135876 -0.0707172 0)
(0.132309 -0.0815735 0)
(0.128461 -0.0922893 0)
(0.124334 -0.102837 0)
(0.119928 -0.113187 0)
(0.115246 -0.123307 0)
(0.110291 -0.133163 0)
(0.105069 -0.142716 0)
(0.0995849 -0.151931 0)
(0.164635 0.145333 0)
(0.165892 0.135381 0)
(0.166973 0.125317 0)
(0.167877 0.115151 0)
(0.1686 0.104887 0)
(0.169135 0.0945281 0)
(0.169473 0.0840753 0)
(0.169602 0.0735323 0)
(0.169511 0.0629038 0)
(0.169189 0.0521962 0)
(0.168624 0.0414182 0)
(0.167806 0.03058 0)
(0.166725 0.0196938 0)
(0.165374 0.00877332 0)
(0.163745 -0.00216636 0)
(0.161832 -0.0131091 0)
(0.159631 -0.0240378 0)
(0.157138 -0.0349342 0)
(0.15435 -0.0457794 0)
(0.151264 -0.0565533 0)
(0.147878 -0.0672343 0)
(0.144191 -0.0777995 0)
(0.140202 -0.0882242 0)
(0.13591 -0.0984814 0)
(0.131316 -0.108542 0)
(0.126422 -0.118375 0)
(0.12123 -0.127947 0)
(0.115744 -0.137223 0)
(0.109971 -0.146168 0)
(0.175603 0.143887 0)
(0.177061 0.134124 0)
(0.178319 0.124248 0)
(0.179377 0.114271 0)
(0.180234 0.104201 0)
(0.180885 0.0940422 0)
(0.181322 0.0837996 0)
(0.181535 0.0734772 0)
(0.181516 0.0630804 0)
(0.181252 0.0526157 0)
(0.180734 0.0420911 0)
(0.179952 0.0315162 0)
(0.178895 0.0209024 0)
(0.177555 0.0102622 0)
(0.175924 -0.000390352 0)
(0.173997 -0.0110401 0)
(0.171766 -0.0216708 0)
(0.169227 -0.0322654 0)
(0.166376 -0.0428052 0)
(0.163209 -0.0532709 0)
(0.159723 -0.0636415 0)
(0.155915 -0.0738945 0)
(0.151783 -0.0840057 0)
(0.147326 -0.093949 0)
(0.142543 -0.103696 0)
(0.137436 -0.113217 0)
(0.132006 -0.122481 0)
(0.126257 -0.131454 0)
(0.120195 -0.140104 0)
(0.186233 0.142212 0)
(0.18792 0.132667 0)
(0.189378 0.123003 0)
(0.190611 0.113238 0)
(0.19162 0.103382 0)
(0.192402 0.0934428 0)
(0.192951 0.0834269 0)
(0.19326 0.0733402 0)
(0.19332 0.0631889 0)
(0.193122 0.0529799 0)
(0.192657 0.0427212 0)
(0.191913 0.032422 0)
(0.190882 0.022093 0)
(0.189555 0.0117461 0)
(0.187923 0.00139421 0)
(0.18598 -0.00894811 0)
(0.183719 -0.0192656 0)
(0.181133 -0.0295416 0)
(0.178218 -0.0397584 0)
(0.174968 -0.049897 0)
(0.17138 -0.0599371 0)
(0.16745 -0.0698567 0)
(0.163174 -0.0796324 0)
(0.15855 -0.0892388 0)
(0.153578 -0.0986489 0)
(0.148257 -0.107834 0)
(0.142589 -0.116765 0)
(0.136578 -0.12541 0)
(0.130231 -0.13374 0)
(0.196453 0.140282 0)
(0.198394 0.130983 0)
(0.200078 0.121559 0)
(0.20151 0.112031 0)
(0.202693 0.102413 0)
(0.203624 0.0927138 0)
(0.204302 0.0829437 0)
(0.204721 0.0731101 0)
(0.204873 0.0632203 0)
(0.20475 0.0532819 0)
(0.204343 0.0433033 0)
(0.203644 0.0332936 0)
(0.202643 0.0232632 0)
(0.201331 0.0132234 0)
(0.1997 0.00318685 0)
(0.197742 -0.00683291 0)
(0.19545 -0.016821 0)
(0.192817 -0.0267616 0)
(0.189836 -0.0366373 0)
(0.186503 -0.0464299 0)
(0.182811 -0.0561195 0)
(0.178756 -0.0656848 0)
(0.174335 -0.0751031 0)
(0.169545 -0.08435 0)
(0.164383 -0.0933999 0)
(0.158849 -0.102226 0)
(0.152946 -0.110799 0)
(0.146676 -0.119093 0)
(0.140047 -0.127081 0)
(0.206177 0.138067 0)
(0.208402 0.129045 0)
(0.210339 0.11989 0)
(0.211995 0.110627 0)
(0.213375 0.101271 0)
(0.214478 0.0918359 0)
(0.215304 0.0823333 0)
(0.215848 0.0727727 0)
(0.216106 0.0631627 0)
(0.21607 0.0535121 0)
(0.215732 0.0438298 0)
(0.215085 0.0341253 0)
(0.21412 0.0244088 0)
(0.212828 0.0146916 0)
(0.2112 0.00498587 0)
(0.209229 -0.00469517 0)
(0.206907 -0.0143372 0)
(0.204227 -0.0239248 0)
(0.201181 -0.0334412 0)
(0.197763 -0.0428686 0)
(0.193967 -0.0521877 0)
(0.189789 -0.061378 0)
(0.185223 -0.0704175 0)
(0.180266 -0.0792831 0)
(0.174916 -0.0879504 0)
(0.169173 -0.0963941 0)
(0.163038 -0.104589 0)
(0.156515 -0.112509 0)
(0.149612 -0.120131 0)
(0.215316 0.135539 0)
(0.217851 0.126825 0)
(0.220069 0.117969 0)
(0.221976 0.108999 0)
(0.223577 0.0999328 0)
(0.224875 0.0907876 0)
(0.225869 0.0815765 0)
(0.226559 0.072311 0)
(0.226939 0.0630017 0)
(0.227004 0.0536583 0)
(0.226748 0.0442907 0)
(0.226163 0.034909 0)
(0.225241 0.0255237 0)
(0.223975 0.016146 0)
(0.222356 0.00678804 0)
(0.220376 -0.00253715 0)
(0.218027 -0.0118155 0)
(0.215301 -0.0210321 0)
(0.212191 -0.0301705 0)
(0.208691 -0.0392134 0)
(0.204793 -0.0481423 0)
(0.200492 -0.0569372 0)
(0.195784 -0.0655773 0)
(0.190664 -0.0740405 0)
(0.185131 -0.082304 0)
(0.179184 -0.0903445 0)
(0.172824 -0.0981387 0)
(0.166057 -0.105665 0)
(0.158891 -0.112902 0)
(0.223775 0.132672 0)
(0.226646 0.124295 0)
(0.22917 0.115769 0)
(0.231353 0.107122 0)
(0.233201 0.0983745 0)
(0.234717 0.0895462 0)
(0.235903 0.0806523 0)
(0.236757 0.0717064 0)
(0.237278 0.0627206 0)
(0.237461 0.0537061 0)
(0.2373 0.0446738 0)
(0.23679 0.0356345 0)
(0.235923 0.0265993 0)
(0.234691 0.0175797 0)
(0.233088 0.00858786 0)
(0.231105 -0.000363227 0)
(0.228734 -0.00925947 0)
(0.225967 -0.0180863 0)
(0.222798 -0.0268279 0)
(0.219218 -0.0354671 0)
(0.215223 -0.0439862 0)
(0.210804 -0.052366 0)
(0.205959 -0.0605868 0)
(0.200683 -0.0686276 0)
(0.194975 -0.0764675 0)
(0.188834 -0.0840851 0)
(0.182262 -0.0914601 0)
(0.175264 -0.0985733 0)
(0.167851 -0.105409 0)
(0.231463 0.129442 0)
(0.234691 0.121433 0)
(0.237543 0.113266 0)
(0.240025 0.104971 0)
(0.242143 0.0965715 0)
(0.2439 0.0880884 0)
(0.245299 0.079539 0)
(0.24634 0.0709387 0)
(0.247021 0.0623011 0)
(0.247339 0.053639 0)
(0.24729 0.0449645 0)
(0.246868 0.0362891 0)
(0.246069 0.0276247 0)
(0.244884 0.0189833 0)
(0.243306 0.0103773 0)
(0.241329 0.00181979 0)
(0.238944 -0.0066751 0)
(0.236144 -0.0150933 0)
(0.232923 -0.0234189 0)
(0.229272 -0.0316355 0)
(0.225186 -0.0397257 0)
(0.220659 -0.0476714 0)
(0.215687 -0.0554539 0)
(0.210266 -0.0630539 0)
(0.204395 -0.070452 0)
(0.198074 -0.0776292 0)
(0.191307 -0.084568 0)
(0.184099 -0.0912526 0)
(0.176461 -0.0976709 0)
(0.238293 0.125833 0)
(0.241893 0.118218 0)
(0.245092 0.110438 0)
(0.247892 0.102524 0)
(0.2503 0.0945017 0)
(0.252319 0.0863924 0)
(0.253952 0.0782153 0)
(0.255199 0.0699875 0)
(0.25606 0.0617242 0)
(0.256531 0.0534395 0)
(0.256612 0.0451466 0)
(0.256295 0.0368581 0)
(0.255578 0.0285866 0)
(0.254453 0.0203446 0)
(0.252914 0.0121452 0)
(0.250954 0.0040015 0)
(0.248567 -0.00407231 0)
(0.245745 -0.0120624 0)
(0.242483 -0.019953 0)
(0.238772 -0.0277281 0)
(0.234608 -0.0353711 0)
(0.229986 -0.0428648 0)
(0.224901 -0.0501916 0)
(0.219352 -0.0573338 0)
(0.213337 -0.064274 0)
(0.206858 -0.0709957 0)
(0.199919 -0.0774842 0)
(0.192528 -0.0837273 0)
(0.184697 -0.089717 0)
(0.244189 0.121833 0)
(0.248171 0.114636 0)
(0.251728 0.107269 0)
(0.254861 0.099764 0)
(0.257575 0.0921461 0)
(0.259874 0.0844384 0)
(0.261759 0.0766614 0)
(0.26323 0.0688333 0)
(0.264289 0.0609708 0)
(0.264933 0.0530892 0)
(0.26516 0.0452027 0)
(0.264966 0.0373251 0)
(0.264347 0.0294695 0)
(0.263297 0.0216492 0)
(0.261813 0.0138776 0)
(0.259886 0.00616809 0)
(0.257512 -0.00146566 0)
(0.254683 -0.00900776 0)
(0.251395 -0.0164441 0)
(0.247641 -0.0237595 0)
(0.243417 -0.0309379 0)
(0.238718 -0.037963 0)
(0.233542 -0.0448184 0)
(0.227887 -0.0514882 0)
(0.221753 -0.057957 0)
(0.215145 -0.0642109 0)
(0.208067 -0.0702382 0)
(0.200529 -0.0760305 0)
(0.192544 -0.0815841 0)
(0.249093 0.117439 0)
(0.253457 0.11068 0)
(0.257378 0.103749 0)
(0.260852 0.0966775 0)
(0.263884 0.08949 0)
(0.266474 0.0822104 0)
(0.268625 0.0748602 0)
(0.270338 0.0674586 0)
(0.271611 0.0600232 0)
(0.272444 0.0525704 0)
(0.272834 0.0451153 0)
(0.27278 0.0376726 0)
(0.272277 0.0302563 0)
(0.271322 0.0228802 0)
(0.269909 0.0155579 0)
(0.268033 0.00830348 0)
(0.26569 0.00113047 0)
(0.262875 -0.00594529 0)
(0.259581 -0.0129101 0)
(0.255805 -0.0197491 0)
(0.251544 -0.0264472 0)
(0.246794 -0.0329891 0)
(0.241555 -0.0393599 0)
(0.235825 -0.0455453 0)
(0.229608 -0.0515324 0)
(0.222908 -0.0573098 0)
(0.215734 -0.0628691 0)
(0.208095 -0.0682055 0)
(0.200009 -0.0733197 0)
(0.252965 0.112654 0)
(0.257707 0.106351 0)
(0.261989 0.0998758 0)
(0.265805 0.0932585 0)
(0.269158 0.0865244 0)
(0.272048 0.0796973 0)
(0.274476 0.0727987 0)
(0.27644 0.0658487 0)
(0.277941 0.0588655 0)
(0.278979 0.0518663 0)
(0.27955 0.044867 0)
(0.279652 0.0378829 0)
(0.279284 0.0309287 0)
(0.278441 0.0240187 0)
(0.27712 0.0171669 0)
(0.275317 0.0103876 0)
(0.273028 0.00369502 0)
(0.270249 -0.00289733 0)
(0.266976 -0.00937466 0)
(0.263207 -0.0157226 0)
(0.258939 -0.0219269 0)
(0.254172 -0.0279737 0)
(0.248905 -0.0338497 0)
(0.243142 -0.0395425 0)
(0.236886 -0.0450415 0)
(0.230145 -0.0503381 0)
(0.222928 -0.0554272 0)
(0.215249 -0.0603077 0)
(0.207125 -0.0649845 0)
(0.255793 0.107491 0)
(0.260898 0.101656 0)
(0.265531 0.0956523 0)
(0.269684 0.0895074 0)
(0.273357 0.0832465 0)
(0.276548 0.0768929 0)
(0.279256 0.0704682 0)
(0.281481 0.0639926 0)
(0.283221 0.0574848 0)
(0.284474 0.0509622 0)
(0.28524 0.0444414 0)
(0.285517 0.0379382 0)
(0.285302 0.0314675 0)
(0.284592 0.0250441 0)
(0.283386 0.0186823 0)
(0.281679 0.0123961 0)
(0.279471 0.00619987 0)
(0.276758 0.000106884 0)
(0.273538 -0.00586859 0)
(0.269811 -0.011713 0)
(0.265576 -0.0174132 0)
(0.260834 -0.0229567 0)
(0.255589 -0.0283317 0)
(0.249844 -0.0335281 0)
(0.243607 -0.0385375 0)
(0.236887 -0.0433543 0)
(0.229697 -0.0479765 0)
(0.222052 -0.0524066 0)
(0.213973 -0.0566537 0)
(0.257589 0.10197 0)
(0.263037 0.0966117 0)
(0.268005 0.0910901 0)
(0.272483 0.0854314 0)
(0.276467 0.0796595 0)
(0.279955 0.0737969 0)
(0.282944 0.0678649 0)
(0.285432 0.0618834 0)
(0.287418 0.0558711 0)
(0.288898 0.0498456 0)
(0.289873 0.0438235 0)
(0.29034 0.0378207 0)
(0.290298 0.0318526 0)
(0.289744 0.0259338 0)
(0.288678 0.0200787 0)
(0.287098 0.0143013 0)
(0.285003 0.00861525 0)
(0.282393 0.00303398 0)
(0.279267 -0.00242941 0)
(0.275627 -0.0077622 0)
(0.271475 -0.0129525 0)
(0.266815 -0.0179891 0)
(0.261652 -0.0228624 0)
(0.255993 -0.027564 0)
(0.249848 -0.0320883 0)
(0.24323 -0.0364323 0)
(0.236153 -0.0405972 0)
(0.228636 -0.0445889 0)
(0.2207 -0.0484199 0)
(0.258398 0.0961174 0)
(0.264162 0.0912391 0)
(0.269444 0.0862064 0)
(0.274229 0.0810433 0)
(0.278513 0.0757719 0)
(0.28229 0.0704138 0)
(0.285557 0.0649892 0)
(0.288309 0.0595175 0)
(0.290545 0.054017 0)
(0.292263 0.048505 0)
(0.29346 0.0429981 0)
(0.294136 0.0375119 0)
(0.294289 0.0320615 0)
(0.293919 0.0266616 0)
(0.293025 0.0213261 0)
(0.291608 0.0160687 0)
(0.289669 0.0109026 0)
(0.287209 0.00584043 0)
(0.28423 0.000894315 0)
(0.280736 -0.00392414 0)
(0.276732 -0.00860436 0)
(0.272225 -0.0131369 0)
(0.267223 -0.0175138 0)
(0.261736 -0.0217292 0)
(0.255776 -0.0257795 0)
(0.249359 -0.0296646 0)
(0.242502 -0.0333884 0)
(0.235225 -0.0369599 0)
(0.227552 -0.0403946 0)
(0.258303 0.0899617 0)
(0.264356 0.0855637 0)
(0.269928 0.0810226 0)
(0.275002 0.0763598 0)
(0.279571 0.0715958 0)
(0.283628 0.0667506 0)
(0.287169 0.0618434 0)
(0.290187 0.0568924 0)
(0.292681 0.0519151 0)
(0.294648 0.0469283 0)
(0.296086 0.0419479 0)
(0.296994 0.0369891 0)
(0.297373 0.0320666 0)
(0.297223 0.0271944 0)
(0.296544 0.0223859 0)
(0.295339 0.0176541 0)
(0.293612 0.0130113 0)
(0.291364 0.00846927 0)
(0.288602 0.00403906 0)
(0.285332 -0.000269201 0)
(0.281562 -0.0044464 0)
(0.277301 -0.00848478 0)
(0.272559 -0.0123783 0)
(0.267352 -0.0161231 0)
(0.261692 -0.0197179 0)
(0.255598 -0.0231649 0)
(0.249089 -0.0264704 0)
(0.242186 -0.0296458 0)
(0.234915 -0.032709 0)
(0.257452 0.0835327 0)
(0.26377 0.079611 0)
(0.269613 0.0755594 0)
(0.274961 0.0713969 0)
(0.279805 0.067142 0)
(0.284139 0.0628129 0)
(0.287955 0.0584271 0)
(0.291249 0.0540017 0)
(0.294016 0.0495529 0)
(0.296255 0.0450966 0)
(0.297963 0.0406477 0)
(0.299141 0.0362206 0)
(0.29979 0.0318291 0)
(0.299912 0.0274863 0)
(0.299508 0.0232048 0)
(0.298584 0.0189966 0)
(0.297144 0.0148729 0)
(0.295195 0.0108444 0)
(0.292743 0.00692064 0)
(0.289799 0.00311043 0)
(0.286371 -0.0005787 0)
(0.282473 -0.00414075 0)
(0.278119 -0.00757146 0)
(0.273322 -0.0108688 0)
(0.268102 -0.0140333 0)
(0.262476 -0.0170693 0)
(0.256464 -0.0199848 0)
(0.250089 -0.0227928 0)
(0.243375 -0.025513 0)
(0.256129 0.0768534 0)
(0.2627 0.0733996 0)
(0.268806 0.0698306 0)
(0.274425 0.0661629 0)
(0.27955 0.0624127 0)
(0.284171 0.0585963 0)
(0.288282 0.0547293 0)
(0.291876 0.0508272 0)
(0.29495 0.0469048 0)
(0.297502 0.0429765 0)
(0.299531 0.039056 0)
(0.301039 0.0351565 0)
(0.302026 0.0312907 0)
(0.302497 0.0274705 0)
(0.302455 0.0237074 0)
(0.301907 0.020012 0)
(0.300859 0.0163944 0)
(0.299321 0.0128638 0)
(0.297301 0.00942852 0)
(0.294811 0.00609587 0)
(0.291864 0.00287184 0)
(0.288474 -0.000239115 0)
(0.284656 -0.0032344 0)
(0.280427 -0.00611365 0)
(0.275805 -0.00887869 0)
(0.27081 -0.011535 0)
(0.265463 -0.0140922 0)
(0.259782 -0.016564 0)
(0.253793 -0.0189707 0)
(0.254909 0.06993 0)
(0.261742 0.0669307 0)
(0.268128 0.0638317 0)
(0.274042 0.0606469 0)
(0.279477 0.0573903 0)
(0.284423 0.0540756 0)
(0.288874 0.0507169 0)
(0.292823 0.0473274 0)
(0.296267 0.0439205 0)
(0.299206 0.0405087 0)
(0.301638 0.0371043 0)
(0.303565 0.0337191 0)
(0.304991 0.0303642 0)
(0.30592 0.0270504 0)
(0.306358 0.0237876 0)
(0.306313 0.0205851 0)
(0.305793 0.0174518 0)
(0.304808 0.0143954 0)
(0.303369 0.0114228 0)
(0.30149 0.00853999 0)
(0.299184 0.00575158 0)
(0.296467 0.00306079 0)
(0.293354 0.000468994 0)
(0.289863 -0.00202445 0)
(0.286013 -0.0044233 0)
(0.281821 -0.00673311 0)
(0.277307 -0.00896373 0)
(0.27249 -0.0111293 0)
(0.267389 -0.0132498 0)
(0.254961 0.0627393 0)
(0.262104 0.0601753 0)
(0.26882 0.0575273 0)
(0.275088 0.0548064 0)
(0.280899 0.0520243 0)
(0.286245 0.0491925 0)
(0.291118 0.0463227 0)
(0.295512 0.0434264 0)
(0.299426 0.0405148 0)
(0.302858 0.0375988 0)
(0.305808 0.034689 0)
(0.30828 0.0317956 0)
(0.310277 0.0289281 0)
(0.311804 0.0260958 0)
(0.312868 0.0233072 0)
(0.313478 0.0205703 0)
(0.313643 0.0178925 0)
(0.313374 0.0152803 0)
(0.312683 0.0127394 0)
(0.311583 0.0102745 0)
(0.310088 0.00788906 0)
(0.308214 0.00558534 0)
(0.305976 0.0033639 0)
(0.30339 0.00122352 0)
(0.300474 -0.000840011 0)
(0.297245 -0.00283318 0)
(0.29372 -0.0047654 0)
(0.289913 -0.00664997 0)
(0.285844 -0.00850612 0)
(0.258548 0.055219 0)
(0.266082 0.0530652 0)
(0.273218 0.0508425 0)
(0.279933 0.0485596 0)
(0.28622 0.0462257 0)
(0.29207 0.04385 0)
(0.297477 0.0414422 0)
(0.302436 0.0390116 0)
(0.306944 0.0365675 0)
(0.311 0.034119 0)
(0.314606 0.031675 0)
(0.317763 0.029244 0)
(0.320475 0.026834 0)
(0.32275 0.0244527 0)
(0.324592 0.0221074 0)
(0.326011 0.0198048 0)
(0.327016 0.0175508 0)
(0.327617 0.0153509 0)
(0.327827 0.0132098 0)
(0.327657 0.0111311 0)
(0.327121 0.00911751 0)
(0.326233 0.00717051 0)
(0.325007 0.00529009 0)
(0.323458 0.00347453 0)
(0.321601 0.00172048 0)
(0.319451 2.1178e-05 0)
(0.317021 -0.00163254 0)
(0.314325 -0.00325312 0)
(0.311376 -0.00485795 0)
(0.269665 0.0472731 0)
(0.277683 0.0455001 0)
(0.285334 0.0436725 0)
(0.292595 0.0417967 0)
(0.29946 0.0398797 0)
(0.30592 0.0379285 0)
(0.311969 0.0359508 0)
(0.317601 0.0339539 0)
(0.322814 0.0319453 0)
(0.327607 0.0299324 0)
(0.331981 0.0279223 0)
(0.335936 0.0259219 0)
(0.339478 0.0239378 0)
(0.34261 0.0219765 0)
(0.345339 0.0200438 0)
(0.347672 0.0181451 0)
(0.349619 0.0162855 0)
(0.351187 0.0144694 0)
(0.352387 0.0127004 0)
(0.353231 0.0109815 0)
(0.353731 0.00931486 0)
(0.353897 0.00770137 0)
(0.353744 0.0061408 0)
(0.353282 0.00463138 0)
(0.352526 0.00316967 0)
(0.351486 0.00175027 0)
(0.350174 0.000364569 0)
(0.348599 -0.000998697 0)
(0.346772 -0.00235524 0)
(0.294592 0.0388136 0)
(0.303134 0.0373916 0)
(0.311336 0.0359284 0)
(0.319177 0.0344284 0)
(0.326652 0.0328966 0)
(0.333751 0.0313382 0)
(0.340468 0.0297589 0)
(0.346798 0.0281644 0)
(0.352737 0.0265605 0)
(0.358283 0.0249527 0)
(0.363438 0.0233469 0)
(0.3682 0.0217484 0)
(0.372573 0.0201626 0)
(0.37656 0.0185945 0)
(0.380167 0.0170489 0)
(0.383399 0.0155301 0)
(0.386263 0.0140421 0)
(0.388768 0.0125884 0)
(0.390921 0.0111721 0)
(0.392731 0.00979535 0)
(0.39421 0.00845977 0)
(0.395367 0.00716607 0)
(0.396212 0.00591384 0)
(0.396757 0.00470151 0)
(0.397011 0.0035259 0)
(0.396983 0.00238222 0)
(0.396684 0.00126304 0)
(0.396118 0.000159049 0)
(0.395295 -0.000943822 0)
(0.341942 0.0298548 0)
(0.350874 0.028759 0)
(0.359489 0.0276343 0)
(0.367766 0.0264837 0)
(0.375699 0.0253104 0)
(0.38328 0.0241181 0)
(0.390502 0.0229107 0)
(0.39736 0.0216927 0)
(0.403849 0.0204681 0)
(0.409968 0.0192413 0)
(0.415715 0.0180165 0)
(0.42109 0.0167979 0)
(0.426095 0.0155895 0)
(0.430731 0.0143952 0)
(0.435003 0.0132186 0)
(0.438915 0.0120632 0)
(0.442473 0.0109319 0)
(0.445683 0.00982755 0)
(0.448552 0.0087523 0)
(0.451089 0.0077079 0)
(0.453302 0.00669538 0)
(0.455199 0.00571515 0)
(0.45679 0.00476671 0)
(0.458084 0.00384893 0)
(0.459089 0.00295911 0)
(0.459813 0.00209313 0)
(0.460264 0.00124424 0)
(0.460444 0.000404965 0)
(0.460364 -0.00043588 0)
(0.421571 0.0206418 0)
(0.430452 0.0198561 0)
(0.43903 0.0190524 0)
(0.447289 0.0182326 0)
(0.455221 0.0173987 0)
(0.46282 0.016553 0)
(0.470079 0.0156984 0)
(0.476993 0.0148377 0)
(0.483559 0.0139739 0)
(0.489773 0.01311 0)
(0.495634 0.012249 0)
(0.501142 0.0113938 0)
(0.506298 0.0105474 0)
(0.511103 0.00971237 0)
(0.51556 0.00889144 0)
(0.519674 0.00808697 0)
(0.52345 0.0073011 0)
(0.526892 0.00653573 0)
(0.530009 0.0057924 0)
(0.532807 0.00507226 0)
(0.535294 0.00437588 0)
(0.537478 0.0037033 0)
(0.539367 0.00305333 0)
(0.540971 0.00242561 0)
(0.542297 0.0018183 0)
(0.54335 0.00122836 0)
(0.544139 0.00064884 0)
(0.544665 7.4773e-05 0)
(0.544938 -0.000500692 0)
(0.541827 0.0117545 0)
(0.549791 0.0112689 0)
(0.557473 0.010774 0)
(0.564858 0.0102711 0)
(0.57194 0.00976141 0)
(0.578714 0.00924633 0)
(0.585176 0.00872749 0)
(0.591321 0.00820673 0)
(0.597147 0.00768588 0)
(0.602652 0.00716681 0)
(0.607835 0.00665137 0)
(0.612696 0.00614137 0)
(0.617236 0.00563859 0)
(0.621459 0.00514469 0)
(0.625367 0.00466124 0)
(0.628965 0.00418967 0)
(0.632259 0.00373121 0)
(0.635253 0.00328694 0)
(0.637956 0.00285768 0)
(0.640374 0.00244408 0)
(0.642515 0.0020464 0)
(0.644386 0.00166476 0)
(0.645997 0.0012968 0)
(0.647357 0.000942193 0)
(0.648473 0.000599929 0)
(0.649347 0.000266914 0)
(0.64999 -5.74586e-05 0)
(0.650403 -0.000378444 0)
(0.650594 -0.000702336 0)
(0.704852 0.0043525 0)
(0.710621 0.00413888 0)
(0.716158 0.00392182 0)
(0.72145 0.00370237 0)
(0.726495 0.00348128 0)
(0.731289 0.00325917 0)
(0.735832 0.00303683 0)
(0.74012 0.00281511 0)
(0.744152 0.00259493 0)
(0.74793 0.00237714 0)
(0.751453 0.0021626 0)
(0.754723 0.00195211 0)
(0.757744 0.00174644 0)
(0.760518 0.0015463 0)
(0.76305 0.00135233 0)
(0.765345 0.00116506 0)
(0.767409 0.00098496 0)
(0.769248 0.000812275 0)
(0.770869 0.000647314 0)
(0.772279 0.000489824 0)
(0.773487 0.000340377 0)
(0.774497 0.000198051 0)
(0.775319 6.63144e-05 0)
(0.775961 -5.92144e-05 0)
(0.776429 -0.00018152 0)
(0.776727 -0.000302032 0)
(0.776865 -0.000418917 0)
(0.776838 -0.000535052 0)
(0.776651 -0.000655568 0)
(0.900329 0.000606378 0)
(0.902497 0.000561702 0)
(0.904548 0.000516373 0)
(0.906479 0.00047083 0)
(0.908287 0.000425364 0)
(0.909974 0.000380158 0)
(0.911539 0.00033541 0)
(0.912984 0.000291351 0)
(0.914308 0.000248214 0)
(0.915513 0.000206213 0)
(0.916601 0.000165545 0)
(0.917576 0.000126387 0)