/*--------------------------------*- C++ -*----------------------------------*\
  =========                 |
  \\      /  F ield         | OpenFOAM: The Open Source CFD Toolbox
   \\    /   O peration     | Website:  https://openfoam.org
    \\  /    A nd           | Version:  9
     \\/     M anipulation  |
\*---------------------------------------------------------------------------*/
FoamFile
{
    format      ascii;
    class       volScalarField;
    location    "2";
    object      p;
}
// * * * * * * * * * * * * * * * * * * * * * * * * * * * * * * * * * * * * * //

dimensions      [0 2 -2 0 0 0 0];

internalField   nonuniform List<scalar> 
1240
(
0.000465926
0.000525866
0.000529945
0.00047684
0.000366674
0.000201026
-1.71018e-05
-0.000283442
-0.000592495
-0.000937893
-0.00131258
-0.00170905
-0.00211969
-0.00253699
-0.00295382
-0.00336361
-0.00376055
-0.00413969
-0.00449703
-0.00482948
-0.00513493
-0.0054121
-0.0056605
-0.00588028
-0.00607212
-0.00623709
-0.00637648
-0.00649173
-0.00658421
-0.00665521
-0.00670587
-0.00673719
-0.00675015
-0.00674605
-0.00672714
-0.00669764
-0.00666419
-0.00663793
0.000234892
0.000287767
0.000287829
0.000233855
0.000125987
-3.42506e-05
-0.000243975
-0.000499062
-0.00079433
-0.00112367
-0.00148038
-0.00185738
-0.00224747
-0.00264359
-0.00303905
-0.00342773
-0.00380421
-0.0041639
-0.00450309
-0.00481897
-0.00510957
-0.00537373
-0.005611
-0.00582153
-0.00600595
-0.00616524
-0.00630061
-0.0064134
-0.00650496
-0.0065766
-0.00662956
-0.00666499
-0.00668412
-0.00668837
-0.00667984
-0.00666181
-0.00663802
-0.00661166
8.08744e-05
0.000131036
0.000129667
7.55642e-05
-3.11383e-05
-0.00018893
-0.000394951
-0.000645103
-0.000934221
-0.00125629
-0.00160465
-0.00197232
-0.0023522
-0.00273738
-0.00312132
-0.00349808
-0.00386245
-0.00421004
-0.00453734
-0.00484173
-0.00512145
-0.00537547
-0.0056035
-0.0058058
-0.00598306
-0.00613633
-0.00626686
-0.00637604
-0.00646524
-0.00653582
-0.00658903
-0.00662605
-0.00664803
-0.00665616
-0.00665204
-0.00663792
-0.00661432
-0.00657811
-5.75789e-05
-6.68784e-06
-6.92815e-06
-5.956e-05
-0.000164497
-0.000320255
-0.000523966
-0.0007715
-0.00105763
-0.00137627
-0.00172069
-0.00208381
-0.00245848
-0.00283773
-0.00321502
-0.00358442
-0.00394079
-0.00427983
-0.00459818
-0.00489336
-0.0051638
-0.00540867
-0.00562785
-0.00582178
-0.00599133
-0.00613771
-0.0062623
-0.00636657
-0.00645201
-0.00652001
-0.00657185
-0.00660865
-0.00663136
-0.0066408
-0.00663796
-0.00662417
-0.00659726
-0.00654965
-0.0002213
-0.000165917
-0.000161635
-0.000209851
-0.0003106
-0.000462468
-0.000662615
-0.000906888
-0.00119
-0.00150573
-0.00184723
-0.00220725
-0.0025785
-0.00295382
-0.00332656
-0.0036907
-0.00404103
-0.00437329
-0.00468415
-0.00497125
-0.00523315
-0.00546924
-0.00567958
-0.00586481
-0.00602604
-0.00616466
-0.00628225
-0.00638044
-0.00646084
-0.00652493
-0.006574
-0.00660913
-0.00663107
-0.00664029
-0.00663725
-0.0066225
-0.00659185
-0.00653436
-0.000434808
-0.000369926
-0.000356249
-0.000395427
-0.000487712
-0.00063185
-0.000825104
-0.00106336
-0.00134129
-0.00165259
-0.00199025
-0.00234683
-0.00271481
-0.00308681
-0.00345595
-0.00381601
-0.00416163
-0.00448843
-0.00479308
-0.00507321
-0.00532747
-0.00555542
-0.00575726
-0.00593387
-0.00608656
-0.00621697
-0.00632688
-0.00641812
-0.00649248
-0.00655153
-0.00659665
-0.00662886
-0.00664881
-0.00665666
-0.00665247
-0.00663624
-0.00660241
-0.00653775
-0.000724927
-0.000644032
-0.000614355
-0.000637941
-0.00071539
-0.000845738
-0.00102646
-0.0012536
-0.00152187
-0.00182495
-0.00215569
-0.00250649
-0.00286955
-0.00323723
-0.00360234
-0.00395842
-0.00429977
-0.00462186
-0.00492118
-0.00519532
-0.00544292
-0.0056635
-0.00585749
-0.00602592
-0.0061703
-0.00629248
-0.00639449
-0.00647837
-0.00654608
-0.00659938
-0.00663971
-0.00666813
-0.00668522
-0.00669099
-0.0066852
-0.00666749
-0.00663149
-0.00656274
-0.00112142
-0.00101628
-0.000962076
-0.000961402
-0.00101536
-0.00112344
-0.0012835
-0.00149187
-0.00174346
-0.00203202
-0.00235039
-0.00269081
-0.00304525
-0.00340578
-0.00376486
-0.00411563
-0.00445211
-0.00476941
-0.00506373
-0.00533248
-0.00557417
-0.00578831
-0.00597533
-0.00613636
-0.00627307
-0.00638749
-0.00648187
-0.00655847
-0.00661945
-0.00666674
-0.00670192
-0.00672614
-0.00673998
-0.00674337
-0.00673595
-0.00671712
-0.00668021
-0.00661034
-0.00206585
-0.00184138
-0.00165656
-0.00151726
-0.00142807
-0.0013923
-0.00141176
-0.00148657
-0.0016152
-0.00179445
-0.00201964
-0.00228474
-0.00258269
-0.00290569
-0.00324555
-0.00359405
-0.00394327
-0.00428593
-0.00461563
-0.00492701
-0.00521592
-0.0054794
-0.00571572
-0.00592422
-0.00610519
-0.00625988
-0.00638992
-0.0064975
-0.00658503
-0.00665496
-0.00670964
-0.00675121
-0.00678139
-0.00680147
-0.00681209
-0.00681323
-0.00680446
-0.00678512
-0.00674856
-0.00668023
-0.00346472
-0.00315084
-0.00285773
-0.0025935
-0.00236562
-0.00218073
-0.00204432
-0.00196059
-0.00193224
-0.0019603
-0.00204405
-0.00218107
-0.00236728
-0.00259712
-0.00286382
-0.00315969
-0.00347648
-0.00380574
-0.0041392
-0.00446912
-0.00478857
-0.00509168
-0.00537374
-0.00563135
-0.00586234
-0.00606575
-0.0062417
-0.00639107
-0.00651567
-0.00661767
-0.00669954
-0.00676389
-0.00681324
-0.00684987
-0.00687572
-0.00689218
-0.00690006
-0.00689941
-0.00688986
-0.00687073
-0.00683573
-0.0067711
-0.00457204
-0.00421977
-0.00388233
-0.00356847
-0.00328633
-0.0030434
-0.00284617
-0.00269992
-0.00260846
-0.00257397
-0.00259688
-0.00267579
-0.00280755
-0.00298736
-0.003209
-0.0034651
-0.00374752
-0.00404771
-0.0043571
-0.00466748
-0.00497137
-0.00526224
-0.00553476
-0.00578486
-0.00600982
-0.00620817
-0.00637961
-0.00652483
-0.00664532
-0.00674321
-0.00682095
-0.0068812
-0.0069266
-0.00695956
-0.00698217
-0.00699601
-0.007002
-0.00700034
-0.00699077
-0.00697267
-0.00694028
-0.00688104
-0.00596511
-0.00556804
-0.00517827
-0.00480513
-0.00445746
-0.00414367
-0.0038713
-0.00364688
-0.00347555
-0.00336092
-0.00330482
-0.00330726
-0.00336634
-0.0034784
-0.00363808
-0.00383868
-0.00407239
-0.00433074
-0.00460499
-0.00488654
-0.0051673
-0.00544006
-0.00569869
-0.00593836
-0.00615555
-0.00634813
-0.0065152
-0.00665696
-0.00677455
-0.00686984
-0.00694513
-0.00700303
-0.0070462
-0.00707713
-0.00709801
-0.00711054
-0.00711583
-0.00711421
-0.00710554
-0.00708933
-0.00706045
-0.00700778
-0.00767693
-0.00722985
-0.0067809
-0.00633987
-0.00591625
-0.00551931
-0.00515773
-0.00483935
-0.00457081
-0.00435738
-0.00420261
-0.00410825
-0.00407408
-0.00409794
-0.00417582
-0.00430202
-0.00446945
-0.00467003
-0.00489503
-0.00513559
-0.00538307
-0.00562953
-0.00586796
-0.00609257
-0.00629893
-0.00648397
-0.006646
-0.00678451
-0.00690009
-0.00699413
-0.00706866
-0.00712608
-0.00716894
-0.00719972
-0.00722064
-0.00723351
-0.00723953
-0.00723919
-0.00723249
-0.00721902
-0.00719439
-0.007149
-0.0097321
-0.00923174
-0.00871874
-0.00820318
-0.00769504
-0.00720437
-0.00674091
-0.00631382
-0.00593135
-0.00560056
-0.00532699
-0.00511446
-0.00496483
-0.00487794
-0.00485156
-0.00488153
-0.00496195
-0.00508551
-0.00524386
-0.00542809
-0.00562918
-0.00583846
-0.006048
-0.00625094
-0.00644169
-0.00661608
-0.00677134
-0.00690604
-0.00701993
-0.00711376
-0.00718904
-0.0072478
-0.00729234
-0.00732499
-0.00734793
-0.00736296
-0.00737133
-0.00737367
-0.00737004
-0.00736018
-0.00734038
-0.00730254
-0.012143
-0.0115887
-0.0110095
-0.0104157
-0.0098174
-0.00922534
-0.00865009
-0.00810204
-0.00759098
-0.00712583
-0.00671429
-0.00636248
-0.00607474
-0.00585335
-0.00569843
-0.00560794
-0.00557773
-0.00560183
-0.00567275
-0.00578193
-0.00592022
-0.00607839
-0.00624759
-0.00641981
-0.00658816
-0.0067471
-0.00689253
-0.00702181
-0.00713358
-0.00722769
-0.00730489
-0.00736662
-0.00741475
-0.00745129
-0.00747828
-0.00749738
-0.00750985
-0.00751632
-0.00751694
-0.00751151
-0.00749696
-0.00746663
-0.0149068
-0.0143007
-0.0136566
-0.0129844
-0.0122943
-0.0115972
-0.0109044
-0.010227
-0.0095764
-0.00896315
-0.0083971
-0.00788686
-0.00743949
-0.00706014
-0.0067518
-0.00651515
-0.00634852
-0.00624796
-0.00620749
-0.00621947
-0.00627508
-0.00636482
-0.0064791
-0.00660874
-0.00674544
-0.00688208
-0.00701296
-0.00713389
-0.00724213
-0.00733627
-0.00741602
-0.007482
-0.00753541
-0.00757779
-0.0076108
-0.0076359
-0.0076542
-0.00766629
-0.00767233
-0.00767211
-0.00766313
-0.00764
-0.0180035
-0.0173508
-0.0166465
-0.0158999
-0.0151208
-0.01432
-0.0135088
-0.0126992
-0.0119032
-0.0111331
-0.0104005
-0.00971657
-0.00909113
-0.00853247
-0.00804691
-0.00763846
-0.00730863
-0.00705631
-0.00687786
-0.00676734
-0.00671692
-0.00671736
-0.00675866
-0.00683066
-0.00692359
-0.00702864
-0.00713822
-0.00724627
-0.00734827
-0.00744123
-0.00752349
-0.00759449
-0.00765453
-0.00770444
-0.00774531
-0.00777824
-0.00780407
-0.00782324
-0.00783582
-0.00784157
-0.00783841
-0.007822
-0.0213959
-0.0207045
-0.0199482
-0.0191352
-0.0182746
-0.0173765
-0.0164521
-0.0155131
-0.0145724
-0.013643
-0.0127381
-0.011871
-0.0110542
-0.0102992
-0.00961575
-0.00901184
-0.00849278
-0.00806115
-0.00771657
-0.00745578
-0.00727286
-0.00715962
-0.00710627
-0.00710201
-0.00713583
-0.00719711
-0.00727621
-0.00736485
-0.00745636
-0.00754574
-0.00762953
-0.00770568
-0.00777324
-0.00783202
-0.00788237
-0.0079248
-0.00795975
-0.00798738
-0.00800759
-0.00802001
-0.00802285
-0.00801265
-0.0250318
-0.0243118
-0.0235142
-0.0226462
-0.0217157
-0.0207318
-0.0197047
-0.018646
-0.017568
-0.0164841
-0.0154087
-0.0143564
-0.013342
-0.0123798
-0.0114835
-0.0106647
-0.0099333
-0.00929626
-0.00875747
-0.00831743
-0.00797325
-0.00771891
-0.00754569
-0.00744289
-0.00739864
-0.0074007
-0.00743725
-0.00749757
-0.00757241
-0.00765431
-0.00773756
-0.00781815
-0.00789348
-0.00796207
-0.00802319
-0.00807658
-0.00812208
-0.00815945
-0.0081883
-0.00820807
-0.00821714
-0.00821264
-0.0288481
-0.0281104
-0.0272842
-0.0263749
-0.0253893
-0.024335
-0.023221
-0.0220576
-0.0208564
-0.0196305
-0.0183942
-0.0171629
-0.0159531
-0.0147814
-0.0136645
-0.0126181
-0.0116566
-0.010792
-0.0100331
-0.0093854
-0.00885034
-0.00842533
-0.00810402
-0.00787684
-0.00773182
-0.00765557
-0.00763425
-0.00765449
-0.00770417
-0.00777287
-0.00785211
-0.0079354
-0.00801804
-0.00809681
-0.00816963
-0.00823514
-0.00829244
-0.00834071
-0.00837914
-0.00840691
-0.00842247
-0.00842333
-0.032776
-0.0320319
-0.0311899
-0.0302543
-0.0292301
-0.0281234
-0.0269416
-0.0256932
-0.0243885
-0.0230394
-0.0216594
-0.020264
-0.0188699
-0.0174955
-0.0161596
-0.0148815
-0.0136798
-0.0125716
-0.0115715
-0.0106907
-0.00993622
-0.00931041
-0.00881081
-0.00843041
-0.00815836
-0.00798095
-0.00788276
-0.00784793
-0.00786119
-0.00790874
-0.0079788
-0.0080618
-0.00815036
-0.00823905
-0.00832401
-0.00840252
-0.00847264
-0.00853282
-0.00858174
-0.00861816
-0.00864057
-0.00864662
-0.0367474
-0.0360068
-0.0351615
-0.0342141
-0.0331681
-0.032028
-0.030799
-0.029488
-0.0281032
-0.0266547
-0.0251545
-0.0236169
-0.0220582
-0.020497
-0.0189535
-0.0174495
-0.0160071
-0.0146482
-0.013393
-0.0122591
-0.0112602
-0.010405
-0.00969659
-0.00913226
-0.00870393
-0.00839888
-0.00820106
-0.00809252
-0.00805491
-0.00807075
-0.00812437
-0.00820252
-0.0082945
-0.00839207
-0.00848909
-0.00858112
-0.00866486
-0.00873786
-0.00879811
-0.00884392
-0.0088735
-0.00888491
-0.0406998
-0.0399712
-0.0391331
-0.0381869
-0.0371347
-0.0359791
-0.0347236
-0.0333728
-0.0319328
-0.0304114
-0.0288184
-0.0271661
-0.0254693
-0.0237456
-0.0220154
-0.0203014
-0.0186282
-0.0170215
-0.0155068
-0.014108
-0.0128459
-0.0117368
-0.0107908
-0.0100117
-0.00939601
-0.00893385
-0.00860997
-0.00840531
-0.00829882
-0.00826929
-0.00829675
-0.0083636
-0.00845513
-0.00855959
-0.00866799
-0.00877363
-0.00887157
-0.00895815
-0.00903053
-0.00908646
-0.00912384
-0.00914098
-0.0445806
-0.0438701
-0.0430475
-0.0421132
-0.0410678
-0.0399126
-0.0386492
-0.0372802
-0.0358092
-0.0342417
-0.0325848
-0.0308482
-0.0290442
-0.0271885
-0.0253001
-0.0234012
-0.0215174
-0.0196768
-0.0179089
-0.0162433
-0.0147079
-0.013327
-0.0121194
-0.0110967
-0.0102625
-0.00961188
-0.00913247
-0.00880559
-0.00860848
-0.00851646
-0.00850513
-0.00855198
-0.00863752
-0.00874573
-0.00886405
-0.00898296
-0.00909542
-0.00919623
-0.00928155
-0.00934837
-0.00939431
-0.00941785
-0.0483494
-0.047661
-0.0468596
-0.0459447
-0.0449163
-0.043774
-0.0425181
-0.0411493
-0.0396692
-0.0380805
-0.0363876
-0.0345973
-0.0327188
-0.0307649
-0.0287519
-0.0267003
-0.024635
-0.0225844
-0.0205807
-0.0186575
-0.0168492
-0.015188
-0.0137017
-0.0124114
-0.0113297
-0.0104592
-0.0097929
-0.0093146
-0.00900143
-0.00882617
-0.00876014
-0.00877561
-0.00884762
-0.00895505
-0.00908093
-0.00921221
-0.00933919
-0.00945478
-0.00955381
-0.0096324
-0.00968777
-0.00971876
-0.0519788
-0.051314
-0.0505369
-0.0496463
-0.0486414
-0.0475211
-0.0462843
-0.0449303
-0.0434587
-0.0418701
-0.0401661
-0.0383505
-0.0364291
-0.0344112
-0.0323096
-0.0301419
-0.0279302
-0.0257021
-0.0234898
-0.0213295
-0.0192601
-0.0173207
-0.0155481
-0.0139735
-0.0126202
-0.0115007
-0.0106158
-0.00995485
-0.009497
-0.0092141
-0.00907396
-0.00904363
-0.00909219
-0.00919258
-0.00932253
-0.00946462
-0.00960579
-0.00973656
-0.0098501
-0.00994139
-0.0100073
-0.0100469
-0.0554529
-0.0548117
-0.0540596
-0.0531953
-0.0522175
-0.0511246
-0.0499146
-0.0485856
-0.0471357
-0.0455638
-0.043869
-0.0420523
-0.0401163
-0.0380664
-0.0359116
-0.0336653
-0.0313459
-0.0289781
-0.0265924
-0.024225
-0.0219174
-0.0197136
-0.017658
-0.0157921
-0.0141505
-0.0127574
-0.0116244
-0.0107491
-0.0101157
-0.00969752
-0.00946031
-0.00936649
-0.00937896
-0.00946403
-0.00959318
-0.00974366
-0.00989824
-0.0100444
-0.0101732
-0.0102782
-0.0103558
-0.0104056
-0.058766
-0.0581469
-0.0574189
-0.0565807
-0.0556309
-0.0545675
-0.0533881
-0.0520902
-0.0506707
-0.0491271
-0.0474567
-0.045658
-0.0437306
-0.0416765
-0.0395004
-0.0372113
-0.034823
-0.0323557
-0.0298364
-0.0272993
-0.0247856
-0.022342
-0.0200186
-0.0178654
-0.0159283
-0.0142444
-0.0128382
-0.0117186
-0.0108782
-0.0102948
-0.00993431
-0.00975595
-0.00971671
-0.00977584
-0.00989765
-0.0100531
-0.0102197
-0.0103812
-0.010526
-0.0106458
-0.0107364
-0.0107981
-0.0619201
-0.0613205
-0.0606144
-0.0598005
-0.0588775
-0.0578432
-0.0566953
-0.0554307
-0.0540461
-0.0525376
-0.0509015
-0.0491343
-0.0472332
-0.0451969
-0.0430264
-0.0407261
-0.0383048
-0.0357775
-0.0331662
-0.0305008
-0.02782
-0.0251703
-0.0226048
-0.0201798
-0.0179512
-0.0159688
-0.0142712
-0.0128815
-0.0118039
-0.0110242
-0.0105119
-0.0102249
-0.0101152
-0.0101352
-0.0102413
-0.0103969
-0.0105734
-0.0107499
-0.0109113
-0.011047
-0.011152
-0.0112275
-0.0649221
-0.0643392
-0.0636519
-0.0628594
-0.0619604
-0.060953
-0.059835
-0.0586033
-0.0572542
-0.0557837
-0.054187
-0.0524595
-0.0505965
-0.0485941
-0.0464501
-0.0441646
-0.0417415
-0.0391902
-0.0365268
-0.0337756
-0.0309704
-0.0281549
-0.0253819
-0.0227115
-0.0202067
-0.017929
-0.0159311
-0.0142519
-0.0129104
-0.0119043
-0.01121
-0.0107874
-0.0105857
-0.0105505
-0.0106301
-0.0107796
-0.0109631
-0.0111537
-0.011332
-0.0114847
-0.0116056
-0.0116968
-0.0672127
-0.0665409
-0.0657663
-0.0648877
-0.0639038
-0.0628125
-0.061611
-0.0602958
-0.0588626
-0.0573067
-0.0556224
-0.053804
-0.0518459
-0.0497429
)
;

boundaryField
{
    movingWall
    {
        type            zeroGradient;
    }
    fixedWalls
    {
        type            zeroGradient;
    }
    frontAndBack
    {
        type            empty;
    }
    procBoundary7to1
    {
        type            processor;
        value           nonuniform List<scalar> 
33
(
0.000352881
0.000131813
-1.8241e-05
-0.000156967
-0.000325023
-0.000547944
-0.000853752
-0.00146764
-0.0012736
-0.0012736
-0.00260537
-0.00232301
-0.00232301
-0.00379117
-0.0049307
-0.00636078
-0.00811321
-0.0102108
-0.0126636
-0.0154665
-0.0185967
-0.0220153
-0.0256684
-0.0294924
-0.0334189
-0.0373809
-0.0413176
-0.0451784
-0.0489249
-0.0525314
-0.0559836
-0.0592768
-0.0624134
)
;
    }
    procBoundary7to6
    {
        type            processor;
        value           nonuniform List<scalar> 
45
(
-0.0654009
-0.0677821
-0.0474918
-0.045092
-0.0425475
-0.039868
-0.0370714
-0.034185
-0.0312474
-0.0283081
-0.0254273
-0.0226725
-0.0201137
-0.0178173
-0.0158378
-0.0142115
-0.0129514
-0.0120452
-0.0114585
-0.0111402
-0.011031
-0.0110711
-0.0112064
-0.0113927
-0.0115958
-0.0117912
-0.0119619
-0.0121002
-0.0122091
-0.0677821
-0.0699526
-0.0692929
-0.0685324
-0.0676703
-0.0667058
-0.065637
-0.0644617
-0.0631767
-0.0617781
-0.0602611
-0.05862
-0.0568484
-0.0549394
-0.0474918
-0.0528863
)
;
    }
}


// ************************************************************************* //
