/*--------------------------------*- C++ -*----------------------------------*\
  =========                 |
  \\      /  F ield         | OpenFOAM: The Open Source CFD Toolbox
   \\    /   O peration     | Website:  https://openfoam.org
    \\  /    A nd           | Version:  9
     \\/     M anipulation  |
\*---------------------------------------------------------------------------*/
FoamFile
{
    format      ascii;
    class       surfaceScalarField;
    location    "2";
    object      phi;
}
// * * * * * * * * * * * * * * * * * * * * * * * * * * * * * * * * * * * * * //

dimensions      [0 3 -1 0 0 0 0];

internalField   nonuniform List<scalar> 
2407
(
-7.29657e-08
-1.13967e-08
-6.11682e-08
-1.17975e-08
-4.91507e-08
-1.20175e-08
-3.70996e-08
-1.20512e-08
-2.52021e-08
-1.18975e-08
-1.36419e-08
-1.15602e-08
-2.59344e-09
-1.10484e-08
7.78319e-09
-1.03766e-08
1.73455e-08
-9.56226e-09
2.59738e-08
-8.62837e-09
3.35743e-08
-7.60052e-09
4.00804e-08
-6.5061e-09
4.54539e-08
-5.37345e-09
4.96846e-08
-4.23065e-09
5.27889e-08
-3.10437e-09
5.48078e-08
-2.0189e-09
5.58032e-08
-9.95338e-10
5.58541e-08
-5.09755e-11
5.5053e-08
8.01126e-10
5.35007e-08
1.55229e-09
5.13026e-08
2.19809e-09
4.85645e-08
2.73809e-09
4.53891e-08
3.17539e-09
4.18732e-08
3.51595e-09
3.81053e-08
3.76787e-09
3.41649e-08
3.94042e-09
3.01219e-08
4.04298e-09
2.60382e-08
4.08376e-09
2.19698e-08
4.06834e-09
1.79719e-08
3.99796e-09
1.41043e-08
3.86755e-09
1.04406e-08
3.66369e-09
7.07787e-09
3.36276e-09
4.14717e-09
2.9307e-09
1.8189e-09
2.32827e-09
2.90797e-10
1.5281e-09
-2.78903e-10
5.69702e-10
-2.78904e-10
-2.14106e-07
-4.05743e-08
-1.83982e-07
-4.19215e-08
-1.53321e-07
-4.26785e-08
-1.22545e-07
-4.28273e-08
-9.20791e-08
-4.23637e-08
-6.23412e-08
-4.12981e-08
-3.37332e-08
-3.96564e-08
-6.63057e-09
-3.74793e-08
1.8629e-08
-3.48218e-08
4.17505e-08
-3.17499e-08
6.24917e-08
-2.83417e-08
8.06669e-08
-2.46813e-08
9.61509e-08
-2.08575e-08
1.0888e-07
-1.69596e-08
1.1885e-07
-1.30747e-08
1.26116e-07
-9.28421e-09
1.30781e-07
-5.66115e-09
1.32998e-07
-2.2679e-09
1.32954e-07
8.45308e-10
1.30864e-07
3.6419e-09
1.26964e-07
6.09842e-09
1.21498e-07
8.20459e-09
1.14711e-07
9.96197e-09
1.06845e-07
1.13822e-08
9.81278e-08
1.24848e-08
8.87744e-08
1.32939e-08
7.89825e-08
1.38348e-08
6.8936e-08
1.41302e-08
5.88093e-08
1.41951e-08
4.87756e-08
1.40316e-08
3.90186e-08
1.36246e-08
2.97461e-08
1.29362e-08
2.1204e-08
1.19049e-08
1.36855e-08
1.04492e-08
7.52557e-09
8.48819e-09
3.06717e-09
5.9865e-09
5.85705e-10
3.05116e-09
3.06802e-10
-3.55558e-07
-8.34887e-08
-3.11302e-07
-8.61779e-08
-2.66245e-07
-8.77351e-08
-2.20947e-07
-8.81256e-08
-1.75972e-07
-8.73388e-08
-1.31879e-07
-8.53903e-08
-8.92131e-08
-8.23227e-08
-4.84867e-08
-7.82058e-08
-1.01735e-08
-7.31349e-08
2.53054e-08
-6.72289e-08
5.75892e-08
-6.06254e-08
8.63861e-08
-5.34783e-08
1.1148e-07
-4.59512e-08
1.32733e-07
-3.82123e-08
1.50086e-07
-3.04277e-08
1.63558e-07
-2.27566e-08
1.73242e-07
-1.53453e-08
1.79297e-07
-8.32278e-09
1.81939e-07
-1.79712e-09
1.81434e-07
4.14758e-09
1.7808e-07
9.45202e-09
1.72204e-07
1.40812e-08
1.64142e-07
1.80235e-08
1.54236e-07
2.12879e-08
1.42822e-07
2.38994e-08
1.30222e-07
2.58938e-08
1.16745e-07
2.73114e-08
1.02687e-07
2.8189e-08
8.83306e-08
2.8551e-08
7.39612e-08
2.8401e-08
5.98727e-08
2.77131e-08
4.63835e-08
2.64254e-08
3.38492e-08
2.44392e-08
2.26685e-08
2.16299e-08
1.32767e-08
1.788e-08
6.11844e-09
1.31447e-08
1.59151e-09
7.5781e-09
1.89831e-09
-5.02787e-07
-1.36944e-07
-4.47645e-07
-1.4132e-07
-3.91424e-07
-1.43956e-07
-3.34756e-07
-1.44794e-07
-2.78282e-07
-1.43813e-07
-2.22644e-07
-1.41028e-07
-1.68472e-07
-1.36495e-07
-1.1637e-07
-1.30307e-07
-6.69068e-08
-1.22598e-07
-2.05998e-08
-1.13536e-07
2.20938e-08
-1.03319e-07
6.07875e-08
-9.2172e-08
9.51731e-08
-8.03368e-08
1.25028e-07
-6.80676e-08
1.5022e-07
-5.56188e-08
1.70702e-07
-4.32386e-08
1.86517e-07
-3.11607e-08
1.9779e-07
-1.95962e-08
2.04721e-07
-8.72779e-09
2.07574e-07
1.29493e-09
2.06666e-07
1.036e-08
2.02356e-07
1.83906e-08
1.95033e-07
2.53467e-08
1.851e-07
3.12209e-08
1.72967e-07
3.60325e-08
1.59041e-07
3.98202e-08
1.4372e-07
4.26322e-08
1.27394e-07
4.4515e-08
1.10444e-07
4.55006e-08
9.32516e-08
4.55935e-08
7.62058e-08
4.47589e-08
5.97167e-08
4.29145e-08
4.42258e-08
3.99301e-08
3.02138e-08
3.56419e-08
1.82025e-08
2.98914e-08
8.74993e-09
2.25973e-08
2.45027e-09
1.38778e-08
4.34858e-09
-6.60756e-07
-1.98498e-07
-5.97142e-07
-2.04934e-07
-5.32105e-07
-2.08993e-07
-4.6631e-07
-2.10589e-07
-4.00439e-07
-2.09684e-07
-3.35183e-07
-2.06284e-07
-2.71228e-07
-2.0045e-07
-2.09244e-07
-1.92291e-07
-1.49871e-07
-1.81972e-07
-9.3706e-08
-1.69701e-07
-4.12909e-08
-1.55734e-07
6.8994e-09
-1.40362e-07
5.04685e-08
-1.23906e-07
8.91035e-08
-1.06703e-07
1.22585e-07
-8.90998e-08
1.50787e-07
-7.14408e-08
1.73681e-07
-5.40549e-08
1.91331e-07
-3.72463e-08
2.03889e-07
-2.12854e-08
2.11585e-07
-6.40179e-09
2.14723e-07
7.22226e-09
2.1366e-07
1.94539e-08
2.088e-07
3.02067e-08
2.00579e-07
3.94414e-08
1.89455e-07
4.71574e-08
1.75891e-07
5.33834e-08
1.60358e-07
5.81658e-08
1.4332e-07
6.15532e-08
1.2524e-07
6.35802e-08
1.06583e-07
6.42507e-08
8.78198e-08
6.35222e-08
6.9439e-08
6.12953e-08
5.19574e-08
5.74117e-08
3.59311e-08
5.16681e-08
2.19697e-08
4.38528e-08
1.07559e-08
3.38111e-08
3.08695e-09
2.15467e-08
7.43553e-09
-8.33175e-07
-2.66355e-07
-7.62811e-07
-2.75298e-07
-6.90581e-07
-2.81222e-07
-6.17165e-07
-2.84006e-07
-5.43267e-07
-2.83581e-07
-4.69612e-07
-2.79939e-07
-3.9693e-07
-2.73132e-07
-3.25943e-07
-2.63278e-07
-2.57355e-07
-2.5056e-07
-1.91834e-07
-2.35221e-07
-1.30004e-07
-2.17565e-07
-7.24236e-08
-1.97943e-07
-1.95814e-08
-1.76748e-07
2.81197e-08
-1.54404e-07
7.03681e-08
-1.31348e-07
1.06949e-07
-1.08022e-07
1.37752e-07
-8.48572e-08
1.62763e-07
-6.2258e-08
1.82071e-07
-4.0593e-08
1.95853e-07
-2.01835e-08
2.04373e-07
-1.29816e-09
2.07964e-07
1.58626e-08
2.07025e-07
3.11464e-08
2.01998e-07
4.44681e-08
1.93364e-07
5.5791e-08
1.81627e-07
6.51204e-08
1.67305e-07
7.24879e-08
1.50924e-07
7.79349e-08
1.33012e-07
8.1492e-08
1.14104e-07
8.31584e-08
9.47433e-08
8.2883e-08
7.54887e-08
8.05499e-08
5.69272e-08
7.59731e-08
3.96897e-08
6.89056e-08
2.44745e-08
5.90681e-08
1.20857e-08
4.61998e-08
3.49777e-09
3.01346e-08
1.09333e-08
-1.02202e-06
-3.39211e-07
-9.46109e-07
-3.51207e-07
-8.67784e-07
-3.59547e-07
-7.87725e-07
-3.64064e-07
-7.06654e-07
-3.64652e-07
-6.25321e-07
-3.61272e-07
-5.44494e-07
-3.53959e-07
-4.64947e-07
-3.42825e-07
-3.87446e-07
-3.28061e-07
-3.12733e-07
-3.09935e-07
-2.41509e-07
-2.88789e-07
-1.74423e-07
-2.65028e-07
-1.12056e-07
-2.39115e-07
-5.49063e-08
-2.11553e-07
-3.3826e-09
-1.82872e-07
4.22098e-08
-1.53614e-07
8.16669e-08
-1.24314e-07
1.14894e-07
-9.54853e-08
1.41904e-07
-6.76027e-08
1.62811e-07
-4.10903e-08
1.77823e-07
-1.63107e-08
1.87242e-07
6.44346e-09
1.91438e-07
2.69506e-08
1.90847e-07
4.50588e-08
1.85957e-07
6.06817e-08
1.77291e-07
7.37861e-08
1.65402e-07
8.43767e-08
1.50861e-07
9.24761e-08
1.3425e-07
9.81025e-08
1.16164e-07
1.01245e-07
9.72081e-08
1.01839e-07
7.80061e-08
9.97519e-08
5.92127e-08
9.47665e-08
4.15317e-08
8.65867e-08
2.57463e-08
7.48534e-08
1.27668e-08
5.91794e-08
3.70232e-09
3.9199e-08
1.46356e-08
-1.22739e-06
-4.16088e-07
-1.14682e-06
-4.31773e-07
-1.06319e-06
-4.43182e-07
-9.77162e-07
-4.5009e-07
-8.89476e-07
-4.52338e-07
-8.00903e-07
-4.49845e-07
-7.12248e-07
-4.42614e-07
-6.24337e-07
-4.30736e-07
-5.37999e-07
-4.14399e-07
-4.54051e-07
-3.93883e-07
-3.73282e-07
-3.69558e-07
-2.96434e-07
-3.41876e-07
-2.24186e-07
-3.11363e-07
-1.5714e-07
-2.78599e-07
-9.58046e-08
-2.44207e-07
-4.05879e-08
-2.08831e-07
8.21312e-09
-1.73115e-07
5.04152e-08
-1.37687e-07
8.59496e-08
-1.03137e-07
1.14861e-07
-7.00013e-08
1.373e-07
-3.87497e-08
1.53518e-07
-9.77525e-09
1.63857e-07
1.66116e-08
1.68733e-07
4.01837e-08
1.68626e-07
6.07878e-08
1.64073e-07
7.83391e-08
1.55648e-07
9.28024e-08
1.43954e-07
1.0417e-07
1.29617e-07
1.12439e-07
1.13282e-07
1.17579e-07
9.56115e-08
1.1951e-07
7.72886e-08
1.18075e-07
5.90321e-08
1.13023e-07
4.16147e-08
1.04004e-07
2.58952e-08
9.05729e-08
1.28674e-08
7.22072e-08
3.72892e-09
4.83375e-08
1.83645e-08
-1.60287e-06
-4.42826e-07
-1.52774e-06
-4.71537e-07
-1.44769e-06
-4.96139e-07
-1.36324e-06
-5.16228e-07
-1.27497e-06
-5.31448e-07
-1.18356e-06
-5.41502e-07
-1.08973e-06
-5.46166e-07
-9.94278e-07
-5.45299e-07
-8.98037e-07
-5.38855e-07
-8.01883e-07
-5.2689e-07
-7.06712e-07
-5.0957e-07
-6.13421e-07
-4.87174e-07
-5.22891e-07
-4.60087e-07
-4.35968e-07
-4.288e-07
-3.53438e-07
-3.93892e-07
-2.76016e-07
-3.56021e-07
-2.04323e-07
-3.15901e-07
-1.38875e-07
-2.74279e-07
-8.00745e-08
-2.31916e-07
-2.81996e-08
-1.89562e-07
1.65951e-08
-1.47932e-07
5.42787e-08
-1.07685e-07
8.49398e-08
-6.94108e-08
1.08778e-07
-3.36136e-08
1.261e-07
-7.10537e-10
1.37294e-07
2.89903e-08
1.42833e-07
5.52483e-08
1.43255e-07
7.79177e-08
1.39147e-07
9.69102e-08
1.3114e-07
1.12178e-07
1.19895e-07
1.23683e-07
1.06102e-07
1.31373e-07
9.04717e-08
1.3514e-07
7.37449e-08
1.34802e-07
5.66993e-08
1.30069e-07
4.01695e-08
1.20534e-07
2.50777e-08
1.05665e-07
1.24767e-08
8.48082e-08
3.60906e-09
5.72052e-08
2.19736e-08
-1.97405e-06
-4.32582e-07
-1.90971e-06
-4.74776e-07
-1.83903e-06
-5.13508e-07
-1.76232e-06
-5.48248e-07
-1.67996e-06
-5.7849e-07
-1.59244e-06
-6.03751e-07
-1.5003e-06
-6.23592e-07
-1.40417e-06
-6.37633e-07
-1.30476e-06
-6.45568e-07
-1.20289e-06
-6.47179e-07
-1.09939e-06
-6.4235e-07
-9.95197e-07
-6.31083e-07
-8.91265e-07
-6.13502e-07
-7.88575e-07
-5.89864e-07
-6.88107e-07
-5.60556e-07
-5.90818e-07
-5.2609e-07
-4.97616e-07
-4.87094e-07
-4.09343e-07
-4.44295e-07
-3.26747e-07
-3.98496e-07
-2.50469e-07
-3.50556e-07
-1.81028e-07
-3.01357e-07
-1.1881e-07
-2.5178e-07
-6.40652e-08
-2.02677e-07
-1.69057e-08
-1.54845e-07
2.26888e-08
-1.09005e-07
5.48654e-08
-6.57902e-08
7.98838e-08
-2.57289e-08
9.81167e-08
1.07573e-08
1.10019e-07
4.33459e-08
1.16127e-07
7.18095e-08
1.17042e-07
9.5996e-08
1.13414e-07
1.15805e-07
1.05937e-07
1.3116e-07
9.53407e-08
1.41969e-07
8.23823e-08
1.48099e-07
6.78535e-08
1.4933e-07
5.25864e-08
1.45336e-07
3.74702e-08
1.3565e-07
2.34764e-08
1.19659e-07
1.16942e-08
9.65904e-08
3.37555e-09
6.55238e-08
2.53491e-08
-2.21538e-06
-4.89217e-07
-2.15168e-06
-5.38472e-07
-2.08109e-06
-5.84103e-07
-2.00383e-06
-6.2551e-07
-1.92021e-06
-6.62108e-07
-1.83063e-06
-6.93332e-07
-1.73557e-06
-7.18652e-07
-1.63561e-06
-7.3759e-07
-1.53143e-06
-7.49743e-07
-1.42382e-06
-7.54795e-07
-1.31363e-06
-7.52539e-07
-1.20182e-06
-7.42897e-07
-1.08939e-06
-7.25928e-07
-9.77411e-07
-7.01842e-07
-8.66963e-07
-6.71004e-07
-7.59121e-07
-6.33931e-07
-6.54932e-07
-5.91283e-07
-5.55379e-07
-5.43847e-07
-4.61361e-07
-4.92515e-07
-3.73664e-07
-4.38254e-07
-2.92943e-07
-3.82078e-07
-2.19713e-07
-3.2501e-07
-1.54334e-07
-2.68056e-07
-9.70139e-08
-2.12165e-07
-4.78084e-08
-1.58211e-07
-6.63045e-09
-1.06968e-07
2.67397e-08
-5.9099e-08
5.26434e-08
-1.51464e-08
7.15257e-08
2.44636e-08
8.39219e-08
5.94132e-08
9.04437e-08
8.94743e-08
9.17646e-08
1.14485e-07
8.86086e-08
1.34315e-07
8.17419e-08
1.48836e-07
7.1967e-08
1.57874e-07
6.01235e-08
1.61174e-07
4.70927e-08
1.58366e-07
3.38102e-08
1.48933e-07
2.12847e-08
1.32184e-07
1.06233e-08
1.07252e-07
3.06122e-09
7.30859e-08
2.84104e-08
-2.4552e-06
-5.43745e-07
-2.39322e-06
-6.00447e-07
-2.32387e-06
-6.53455e-07
-2.24727e-06
-7.02105e-07
-2.16364e-06
-7.45739e-07
-2.07327e-06
-7.83705e-07
-1.97655e-06
-8.15374e-07
-1.87398e-06
-8.40163e-07
-1.76616e-06
-8.57553e-07
-1.65385e-06
-8.67113e-07
-1.53787e-06
-8.6852e-07
-1.41918e-06
-8.61586e-07
-1.29883e-06
-8.46275e-07
-1.17795e-06
-8.22722e-07
-1.05772e-06
-7.91237e-07
-9.39332e-07
-7.52315e-07
-8.23989e-07
-7.06626e-07
-7.12835e-07
-6.55001e-07
-6.0694e-07
-5.9841e-07
-5.07263e-07
-5.37931e-07
-4.14628e-07
-4.74712e-07
-3.29703e-07
-4.09936e-07
-2.52985e-07
-3.44774e-07
-1.84797e-07
-2.80352e-07
-1.25289e-07
-2.17719e-07
-7.44432e-08
-1.57814e-07
-3.20881e-08
-1.01454e-07
2.08694e-09
-4.93214e-08
2.85147e-08
-1.96414e-09
4.77327e-08
4.01952e-08
6.03665e-08
7.68404e-08
6.71138e-08
1.07737e-07
6.87313e-08
1.32698e-07
6.60239e-08
1.51543e-07
5.98383e-08
1.64059e-07
5.106e-08
1.69952e-07
4.0616e-08
1.6881e-07
2.94819e-08
1.60067e-07
1.86941e-08
1.42972e-07
9.36504e-09
1.16581e-07
2.69765e-09
7.97533e-08
3.1108e-08
-2.68741e-06
-5.95128e-07
-2.62833e-06
-6.59525e-07
-2.56152e-06
-7.20265e-07
-2.487e-06
-7.7663e-07
-2.40484e-06
-8.27894e-07
-2.31523e-06
-8.7332e-07
-2.21842e-06
-9.12181e-07
-2.1148e-06
-9.4378e-07
-2.00488e-06
-9.67472e-07
-1.88931e-06
-9.82687e-07
-1.76886e-06
-9.88966e-07
-1.64447e-06
-9.8598e-07
-1.51718e-06
-9.73563e-07
-1.38817e-06
-9.51733e-07
-1.2587e-06
-9.20712e-07
-1.13008e-06
-8.80933e-07
-1.00366e-06
-8.33042e-07
-8.80774e-07
-7.7789e-07
-7.62678e-07
-7.16505e-07
-6.50541e-07
-6.50068e-07
-5.45388e-07
-5.79865e-07
-4.4808e-07
-5.07244e-07
-3.59287e-07
-4.33567e-07
-2.7948e-07
-3.6016e-07
-2.08928e-07
-2.88271e-07
-1.47703e-07
-2.19039e-07
-9.56963e-08
-1.53461e-07
-5.26337e-08
-9.2384e-08
-1.80971e-08
-3.65008e-08
8.45494e-09
1.36432e-08
2.76654e-08
5.76299e-08
4.02612e-08
9.51414e-08
4.7036e-08
1.25923e-07
4.88377e-08
1.49742e-07
4.6559e-08
1.66338e-07
4.11321e-08
1.75379e-07
3.35279e-08
1.76415e-07
2.47587e-08
1.68836e-07
1.58834e-08
1.51847e-07
8.01308e-09
1.24451e-07
2.31374e-09
8.54526e-08
3.34218e-08
-2.90558e-06
-6.42317e-07
-2.85062e-06
-7.14482e-07
-2.78774e-06
-7.83143e-07
-2.71683e-06
-8.4754e-07
-2.63784e-06
-9.06892e-07
-2.55077e-06
-9.60385e-07
-2.45575e-06
-1.0072e-06
-2.35301e-06
-1.04652e-06
-2.24291e-06
-1.07757e-06
-2.12596e-06
-1.09964e-06
-2.00284e-06
-1.11208e-06
-1.8744e-06
-1.11442e-06
-1.74165e-06
-1.10631e-06
-1.60576e-06
-1.08762e-06
-1.46805e-06
-1.05843e-06
-1.32992e-06
-1.01906e-06
-1.19288e-06
-9.70089e-07
-1.05842e-06
-9.12348e-07
-9.2803e-07
-8.46894e-07
-8.03112e-07
-7.74986e-07
-6.84933e-07
-6.98043e-07
-5.74591e-07
-6.17586e-07
-4.72977e-07
-5.35181e-07
-3.80753e-07
-4.52383e-07
-2.9835e-07
-3.70675e-07
-2.25961e-07
-2.91427e-07
-1.63565e-07
-2.15857e-07
-1.10939e-07
-1.4501e-07
-6.76863e-08
-7.97531e-08
-3.32648e-08
-2.07783e-08
-7.01011e-09
3.13753e-08
1.18387e-08
7.62926e-08
2.41189e-08
1.13643e-07
3.07281e-08
1.43133e-07
3.26094e-08
1.64457e-07
3.07455e-08
1.77243e-07
2.61529e-08
1.81007e-07
1.98804e-08
1.75108e-07
1.30088e-08
1.58719e-07
6.64902e-09
1.30811e-07
1.93443e-09
9.01672e-08
3.53562e-08
-3.10328e-06
-6.84326e-07
-3.05363e-06
-7.64131e-07
-2.99607e-06
-8.40698e-07
-2.93037e-06
-9.13247e-07
-2.8563e-06
-9.80956e-07
-2.77373e-06
-1.04296e-06
-2.68259e-06
-1.09834e-06
-2.58292e-06
-1.14619e-06
-2.4749e-06
-1.18559e-06
-2.35887e-06
-1.21567e-06
-2.23534e-06
-1.23562e-06
-2.10501e-06
-1.24475e-06
-1.96881e-06
-1.24251e-06
-1.82785e-06
-1.22858e-06
-1.68345e-06
-1.20283e-06
-1.53707e-06
-1.16544e-06
-1.39032e-06
-1.11684e-06
-1.24489e-06
-1.05778e-06
-1.10247e-06
-9.89312e-07
-9.64728e-07
-9.1273e-07
-8.33209e-07
-8.29563e-07
-7.09297e-07
-7.41497e-07
-5.9416e-07
-6.50318e-07
-4.88713e-07
-5.5783e-07
-3.93597e-07
-4.6579e-07
-3.09181e-07
-3.75843e-07
-2.35566e-07
-2.89473e-07
-1.72608e-07
-2.07968e-07
-1.19952e-07
-1.32409e-07
-7.70617e-08
-6.36688e-08
-4.32525e-08
-2.43392e-09
-1.77248e-08
5.07649e-08
4.09664e-10
9.55085e-08
1.21037e-08
1.31439e-07
1.83612e-08
1.58199e-07
2.02213e-08
1.75383e-07
1.87511e-08
1.82477e-07
1.50405e-08
1.78819e-07
1.01971e-08
1.63562e-07
5.33874e-09
1.35669e-07
1.57972e-09
9.39262e-08
3.69359e-08
-3.27447e-06
-7.20327e-07
-3.23118e-06
-8.07424e-07
-3.18022e-06
-8.91654e-07
-3.12123e-06
-9.72242e-07
-3.05383e-06
-1.04835e-06
-2.97772e-06
-1.11907e-06
-2.89262e-06
-1.18343e-06
-2.79838e-06
-1.24043e-06
-2.69494e-06
-1.28903e-06
-2.58243e-06
-1.32819e-06
-2.46112e-06
-1.35692e-06
-2.33154e-06
-1.37432e-06
-2.19443e-06
-1.37962e-06
-2.05079e-06
-1.37222e-06
-1.90186e-06
-1.35177e-06
-1.74909e-06
-1.3182e-06
-1.59417e-06
-1.27176e-06
-1.43891e-06
-1.21304e-06
-1.28522e-06
-1.143e-06
-1.13502e-06
-1.06293e-06
-9.90171e-07
-9.74413e-07
-8.52385e-07
-8.79284e-07
-7.23165e-07
-7.79538e-07
-6.03745e-07
-6.7725e-07
-4.95051e-07
-5.74484e-07
-3.97686e-07
-4.73208e-07
-3.11933e-07
-3.75226e-07
-2.37773e-07
-2.82128e-07
-1.74922e-07
-1.9526e-07
-1.22868e-07
-1.15723e-07
-8.0915e-08
-4.43865e-08
-4.82259e-08
1.80759e-08
-2.38561e-08
7.11387e-08
-6.7852e-09
1.14368e-07
4.058e-09
1.47356e-07
9.77927e-09
1.69662e-07
1.1506e-08
1.80751e-07
1.03781e-08
1.79947e-07
7.53995e-09
1.664e-07
4.12989e-09
1.39079e-07
1.26392e-09
9.67922e-08
3.81998e-08
-3.41401e-06
-7.49737e-07
-3.37788e-06
-8.43558e-07
-3.33456e-06
-9.34974e-07
-3.28356e-06
-1.02324e-06
-3.22439e-06
-1.10752e-06
-3.15655e-06
-1.18691e-06
-3.07958e-06
-1.2604e-06
-2.99309e-06
-1.32692e-06
-2.8968e-06
-1.38532e-06
-2.79054e-06
-1.43444e-06
-2.67436e-06
-1.4731e-06
-2.5485e-06
-1.50018e-06
-2.41348e-06
-1.51465e-06
-2.27007e-06
-1.51563e-06
-2.11935e-06
-1.50248e-06
-1.96272e-06
-1.47484e-06
-1.80181e-06
-1.43266e-06
-1.63854e-06
-1.37632e-06
-1.47495e-06
-1.30659e-06
-1.31323e-06
-1.22466e-06
-1.15553e-06
-1.13211e-06
-1.00393e-06
-1.03088e-06
-8.60341e-07
-9.23132e-07
-7.26366e-07
-8.11224e-07
-6.03302e-07
-6.97549e-07
-4.92068e-07
-5.84443e-07
-3.93202e-07
-4.74092e-07
-3.06877e-07
-3.68453e-07
-2.32928e-07
-2.69209e-07
-1.70902e-07
-1.77748e-07
-1.20114e-07
-9.51749e-08
-7.96933e-08
-2.23447e-08
-4.86388e-08
4.00841e-08
-2.58566e-08
9.15855e-08
-1.01956e-08
1.31695e-07
-4.71139e-10
1.59937e-07
4.51696e-09
1.75763e-07
5.97213e-09
1.78492e-07
5.09063e-09
1.67282e-07
3.05047e-09
1.4112e-07
9.95378e-10
9.88473e-08
3.91952e-08
-3.51811e-06
-7.72281e-07
-3.4896e-06
-8.72064e-07
-3.45461e-06
-9.69967e-07
-3.41255e-06
-1.0653e-06
-3.3628e-06
-1.15727e-06
-3.30473e-06
-1.24498e-06
-3.23769e-06
-1.32745e-06
-3.16107e-06
-1.40354e-06
-3.07432e-06
-1.47207e-06
-2.97703e-06
-1.53173e-06
-2.86892e-06
-1.58121e-06
-2.74993e-06
-1.61917e-06
-2.62025e-06
-1.64433e-06
-2.48038e-06
-1.6555e-06
-2.33116e-06
-1.65171e-06
-2.17376e-06
-1.63223e-06
-2.00974e-06
-1.59668e-06
-1.84096e-06
-1.5451e-06
-1.66957e-06
-1.47798e-06
-1.49792e-06
-1.3963e-06
-1.32847e-06
-1.30156e-06
-1.16367e-06
-1.19568e-06
-1.00583e-06
-1.08097e-06
-8.57019e-07
-9.60031e-07
-7.18984e-07
-8.35584e-07
-5.93051e-07
-7.10376e-07
-4.80109e-07
-5.87034e-07
-3.80602e-07
-4.6796e-07
-2.9456e-07
-3.55252e-07
-2.21644e-07
-2.50665e-07
-1.61211e-07
-1.55608e-07
-1.12381e-07
-7.11748e-08
-7.41003e-08
1.80393e-09
-4.51991e-08
6.26843e-08
-2.44361e-08
1.10932e-07
-1.05338e-08
1.46035e-07
-2.20312e-09
1.67432e-07
1.84018e-09
1.74448e-07
2.86379e-09
1.66258e-07
2.10867e-09
1.41875e-07
7.7644e-10
1.0018e-07
3.99717e-08
-3.58468e-06
-7.88034e-07
-3.56389e-06
-8.92862e-07
-3.53749e-06
-9.96366e-07
-3.50485e-06
-1.09793e-06
-3.46528e-06
-1.19684e-06
-3.41801e-06
-1.29225e-06
-3.36225e-06
-1.38321e-06
-3.29718e-06
-1.46861e-06
-3.22204e-06
-1.54721e-06
-3.13612e-06
-1.61766e-06
-3.03882e-06
-1.67851e-06
-2.92976e-06
-1.72824e-06
-2.80875e-06
-1.76533e-06
-2.67593e-06
-1.78832e-06
-2.5318e-06
-1.79584e-06
-2.37723e-06
-1.7868e-06
-2.21353e-06
-1.76038e-06
-2.04244e-06
-1.7162e-06
-1.86606e-06
-1.65435e-06
-1.68685e-06
-1.57552e-06
-1.50747e-06
-1.48094e-06
-1.33071e-06
-1.37244e-06
-1.15932e-06
-1.25237e-06
-9.95857e-07
-1.12349e-06
-8.42584e-07
-9.88856e-07
-7.01335e-07
-8.51625e-07
-5.73455e-07
-7.14914e-07
-4.59768e-07
-5.81647e-07
-3.6059e-07
-4.5443e-07
-2.75772e-07
-3.35482e-07
-2.04774e-07
-2.26606e-07
-1.4674e-07
-1.29209e-07
-1.00583e-07
-4.43529e-08
-6.50607e-08
2.71618e-08
-3.88345e-08
8.47056e-08
-2.05208e-08
1.27721e-07
-8.72416e-09
1.55635e-07
-2.05903e-09
1.67783e-07
8.36636e-10
1.63363e-07
1.29386e-09
1.41417e-07
6.03845e-10
1.0087e-07
4.05755e-08
-3.61363e-06
-7.97407e-07
-3.60022e-06
-9.06265e-07
-3.58224e-06
-1.01435e-06
-3.55902e-06
-1.12115e-06
-3.52982e-06
-1.22604e-06
-3.49381e-06
-1.32826e-06
-3.45009e-06
-1.42694e-06
-3.39769e-06
-1.52101e-06
-3.33563e-06
-1.60926e-06
-3.26297e-06
-1.69032e-06
-3.17881e-06
-1.76267e-06
-3.08239e-06
-1.82466e-06
-2.97315e-06
-1.87457e-06
-2.85082e-06
-1.91065e-06
-2.71546e-06
-1.9312e-06
-2.56755e-06
-1.93471e-06
-2.40804e-06
-1.91989e-06
-2.23837e-06
-1.88586e-06
-2.0605e-06
-1.83223e-06
-1.87682e-06
-1.7592e-06
-1.69011e-06
-1.66764e-06
-1.50342e-06
-1.55913e-06
-1.31987e-06
-1.43592e-06
-1.14253e-06
-1.30083e-06
-9.74237e-07
-1.15715e-06
-8.17408e-07
-1.00845e-06
-6.73956e-07
-8.58367e-07
-5.45202e-07
-7.10401e-07
-4.31866e-07
-5.67766e-07
-3.34092e-07
-4.33256e-07
-2.51521e-07
-3.09178e-07
-1.83379e-07
-1.97351e-07
-1.28581e-07
-9.91507e-08
-8.58259e-08
-1.55931e-08
-5.36796e-08
5.25592e-08
-3.0641e-08
1.04683e-07
-1.51906e-08
1.40185e-07
-5.81957e-09
1.58412e-07
-1.04623e-09
1.58589e-07
5.78807e-10
1.39792e-07
4.69373e-10
1.00979e-07
4.10449e-08
-3.60677e-06
-8.01106e-07
-3.60009e-06
-9.12948e-07
-3.5899e-06
-1.02454e-06
-3.57559e-06
-1.13546e-06
-3.55641e-06
-1.24521e-06
-3.53152e-06
-1.35316e-06
-3.49993e-06
-1.45852e-06
-3.46061e-06
-1.56033e-06
-3.41243e-06
-1.65744e-06
-3.35423e-06
-1.74853e-06
-3.28485e-06
-1.83205e-06
-3.2032e-06
-1.90631e-06
-3.10836e-06
-1.96942e-06
-2.99958e-06
-2.01942e-06
-2.87647e-06
-2.05432e-06
-2.73901e-06
-2.07216e-06
-2.5877e-06
-2.07121e-06
-2.42354e-06
-2.05001e-06
-2.24817e-06
-2.0076e-06
-2.06377e-06
-1.94359e-06
-1.87308e-06
-1.85833e-06
-1.67926e-06
-1.75296e-06
-1.48573e-06
-1.62945e-06
-1.29602e-06
-1.49053e-06
-1.11355e-06
-1.33963e-06
-9.41373e-07
-1.18063e-06
-7.82076e-07
-1.01766e-06
-6.37601e-07
-8.54876e-07
-5.09201e-07
-6.96166e-07
-3.97438e-07
-5.45018e-07
-3.02242e-07
-4.04374e-07
-2.23003e-07
-2.7659e-07
-1.58693e-07
-1.63461e-07
-1.07983e-07
-6.6303e-08
-6.93535e-08
1.39294e-08
-4.11813e-08
7.65106e-08
-2.18078e-08
1.20811e-07
-9.57913e-09
1.46184e-07
-2.86834e-09
1.51878e-07
-8.00925e-11
1.37004e-07
3.60743e-10
1.00538e-07
4.14056e-08
-3.56767e-06
-8.00055e-07
-3.56675e-06
-9.13869e-07
-3.5634e-06
-1.02788e-06
-3.55707e-06
-1.14179e-06
-3.54705e-06
-1.25523e-06
-3.53252e-06
-1.36769e-06
-3.51253e-06
-1.47851e-06
-3.48599e-06
-1.58687e-06
-3.4517e-06
-1.69174e-06
-3.40835e-06
-1.79188e-06
-3.35459e-06
-1.88581e-06
-3.28907e-06
-1.97183e-06
-3.21049e-06
-2.048e-06
-3.1177e-06
-2.11221e-06
-3.0098e-06
-2.16221e-06
-2.88626e-06
-2.1957e-06
-2.747e-06
-2.21047e-06
-2.5925e-06
-2.20451e-06
-2.42389e-06
-2.17621e-06
-2.24298e-06
-2.1245e-06
-2.05226e-06
-2.04905e-06
-1.85484e-06
-1.95038e-06
-1.65431e-06
-1.82998e-06
-1.45453e-06
-1.69031e-06
-1.25944e-06
-1.53472e-06
-1.07279e-06
-1.36728e-06
-8.97876e-07
-1.19258e-06
-7.37385e-07
-1.01537e-06
-5.93242e-07
-8.40309e-07
-4.6657e-07
-6.7169e-07
-3.57718e-07
-5.13226e-07
-2.6635e-07
-3.67958e-07
-1.91574e-07
-2.38237e-07
-1.32084e-07
-1.25793e-07
-8.63001e-08
-3.18545e-08
-5.24831e-08
4.26936e-08
-2.88246e-08
9.71528e-08
-1.35067e-08
1.30866e-07
-4.73113e-09
1.43103e-07
-7.2593e-10
1.32999e-07
2.6364e-10
9.95486e-08
4.16693e-08
-3.5012e-06
-7.95298e-07
-3.5049e-06
-9.10167e-07
-3.50718e-06
-1.0256e-06
-3.50756e-06
-1.14141e-06
-3.50544e-06
-1.25736e-06
-3.50007e-06
-1.37306e-06
-3.49054e-06
-1.48803e-06
-3.47581e-06
-1.6016e-06
-3.45467e-06
-1.71288e-06
-3.42575e-06
-1.82079e-06
-3.38759e-06
-1.92397e-06
-3.33864e-06
-2.02079e-06
-3.27731e-06
-2.10933e-06
-3.20208e-06
-2.18744e-06
-3.11161e-06
-2.25268e-06
-3.0048e-06
-2.30251e-06
-2.88097e-06
-2.3343e-06
-2.73999e-06
-2.3455e-06
-2.58235e-06
-2.33385e-06
-2.40932e-06
-2.29754e-06
-2.22294e-06
-2.23542e-06
-2.02606e-06
-2.14726e-06
-1.82221e-06
-2.03384e-06
-1.61544e-06
-1.89708e-06
-1.4101e-06
-1.74005e-06
-1.21056e-06
-1.56682e-06
-1.02089e-06
-1.38225e-06
-8.44574e-07
-1.19168e-06
-6.84355e-07
-1.00053e-06
-5.42066e-07
-8.1398e-07
-4.18628e-07
-6.36664e-07
-3.14112e-07
-4.72473e-07
-2.2787e-07
-3.24479e-07
-1.58695e-07
-1.94968e-07
-1.04989e-07
-8.55605e-08
-6.4915e-08
2.61954e-09
-3.6514e-08
6.87518e-08
-1.77894e-08
1.12141e-07
-6.75014e-09
1.32064e-07
-1.42299e-09
1.27672e-07
1.60861e-10
9.79647e-08
4.18301e-08
-3.41301e-06
-7.87902e-07
-3.42012e-06
-9.03048e-07
-3.4267e-06
-1.01903e-06
-3.43235e-06
-1.13576e-06
-3.4366e-06
-1.25311e-06
-3.4388e-06
-1.37086e-06
-3.43817e-06
-1.48867e-06
-3.43374e-06
-1.60602e-06
-3.42437e-06
-1.72225e-06
-3.40873e-06
-1.83643e-06
-3.38532e-06
-1.94738e-06
-3.35247e-06
-2.05364e-06
-3.30842e-06
-2.15338e-06
-3.25137e-06
-2.24449e-06
-3.17956e-06
-2.32449e-06
-3.09142e-06
-2.39065e-06
-2.98566e-06
-2.44005e-06
-2.86147e-06
-2.46969e-06
-2.71865e-06
-2.47668e-06
-2.55774e-06
-2.45844e-06
-2.38018e-06
-2.41298e-06
-2.18832e-06
-2.33913e-06
-1.98538e-06
-2.23677e-06
-1.7754e-06
-2.10706e-06
-1.56295e-06
-1.9525e-06
-1.3529e-06
-1.77687e-06
-1.15002e-06
-1.58513e-06
-9.58687e-07
-1.38302e-06
-7.82524e-07
-1.17669e-06
-6.24231e-07
-9.72273e-07
-4.85467e-07
-7.75428e-07
-3.6687e-07
-5.9107e-07
-2.68168e-07
-4.23181e-07
-1.88354e-07
-2.74782e-07
-1.2588e-07
-1.48034e-07
-7.88456e-08
-4.44152e-08
-4.51526e-08
3.50588e-08
-2.26183e-08
8.96068e-08
-9.04164e-09
1.18487e-07
-2.2252e-09
1.20855e-07
3.70898e-11
9.57024e-08
4.18672e-08
-3.30898e-06
-7.78869e-07
-3.31834e-06
-8.93685e-07
-3.32787e-06
-1.0095e-06
-3.3373e-06
-1.12632e-06
-3.34628e-06
-1.24414e-06
-3.3543e-06
-1.36284e-06
-3.36073e-06
-1.48224e-06
-3.36473e-06
-1.60202e-06
-3.36528e-06
-1.72169e-06
-3.36117e-06
-1.84054e-06
-3.35093e-06
-1.95762e-06
-3.33291e-06
-2.07166e-06
-3.30526e-06
-2.18103e-06
-3.266e-06
-2.28375e-06
-3.21309e-06
-2.3774e-06
-3.14453e-06
-2.45921e-06
-3.0585e-06
-2.52608e-06
-2.95353e-06
-2.57466e-06
-2.82866e-06
-2.60154e-06
-2.68367e-06
-2.60343e-06
-2.51919e-06
-2.57746e-06
-2.33686e-06
-2.52145e-06
-2.13939e-06
-2.43424e-06
-1.9305e-06
-2.31596e-06
-1.71475e-06
-2.16824e-06
-1.49731e-06
-1.99431e-06
-1.28356e-06
-1.79888e-06
-1.07868e-06
-1.5879e-06
-8.87273e-07
-1.3681e-06
-7.13019e-07
-1.14653e-06
-5.58477e-07
-9.2997e-07
-4.25028e-07
-7.2452e-07
-3.12937e-07
-5.35271e-07
-2.21526e-07
-3.66193e-07
-1.49389e-07
-2.20171e-07
-9.46182e-08
-9.91862e-08
-5.50019e-08
-4.55756e-09
-2.81754e-08
6.27803e-08
-1.17171e-08
1.02029e-07
-3.18781e-09
1.12326e-07
-1.26283e-10
9.26409e-08
4.17409e-08
-3.19473e-06
-7.69071e-07
-3.20529e-06
-8.83126e-07
-3.21653e-06
-9.98252e-07
-3.22832e-06
-1.11453e-06
-3.24043e-06
-1.23203e-06
-3.25249e-06
-1.35077e-06
-3.26404e-06
-1.47069e-06
-3.27442e-06
-1.59164e-06
-3.28278e-06
-1.71333e-06
-3.28804e-06
-1.83528e-06
-3.2889e-06
-1.95677e-06
-3.28379e-06
-2.07678e-06
-3.27088e-06
-2.19394e-06
-3.24814e-06
-2.30649e-06
-3.21336e-06
-2.41218e-06
-3.16424e-06
-2.50833e-06
-3.09853e-06
-2.59179e-06
-3.01417e-06
-2.65902e-06
-2.90949e-06
-2.70622e-06
-2.78342e-06
-2.7295e-06
-2.63574e-06
-2.72515e-06
-2.4672e-06
-2.68999e-06
-2.27974e-06
-2.62169e-06
-2.07651e-06
-2.51919e-06
-1.86178e-06
-2.38298e-06
-1.64073e-06
-2.21536e-06
-1.41915e-06
-2.02046e-06
-1.20294e-06
-1.80411e-06
-9.9763e-07
-1.5734e-06
-8.07979e-07
-1.33618e-06
-6.37592e-07
-1.10036e-06
-4.88767e-07
-8.73344e-07
-3.62491e-07
-6.61548e-07
-2.5857e-07
-4.70113e-07
-1.75861e-07
-3.0288e-07
-1.12529e-07
-1.62518e-07
-6.62932e-08
-5.07938e-08
-3.46237e-08
3.11108e-08
-1.48763e-08
8.22812e-08
-4.35887e-09
1.01809e-07
-3.39543e-10
8.86216e-08
4.14014e-08
-3.07521e-06
-7.59207e-07
-3.08609e-06
-8.72245e-07
-3.098e-06
-9.86343e-07
-3.1109e-06
-1.10164e-06
-3.12467e-06
-1.21826e-06
-3.13913e-06
-1.33632e-06
-3.15394e-06
-1.45587e-06
-3.16865e-06
-1.57693e-06
-3.18261e-06
-1.69938e-06
-3.19494e-06
-1.82295e-06
-3.20452e-06
-1.94718e-06
-3.20996e-06
-2.07134e-06
-3.20957e-06
-2.19434e-06
-3.20136e-06
-2.31469e-06
-3.18309e-06
-2.43045e-06
-3.1523e-06
-2.53912e-06
-3.10644e-06
-2.63765e-06
-3.04299e-06
-2.72248e-06
-2.95964e-06
-2.78957e-06
-2.85454e-06
-2.83459e-06
-2.72654e-06
-2.85315e-06
-2.57544e-06
-2.84109e-06
-2.40222e-06
-2.79491e-06
-2.2092e-06
-2.71222e-06
-2.00003e-06
-2.59214e-06
-1.77965e-06
-2.43574e-06
-1.55393e-06
-2.24618e-06
-1.32929e-06
-2.02875e-06
-1.11212e-06
-1.79058e-06
-9.08234e-07
-1.54006e-06
-7.22402e-07
-1.28619e-06
-5.5801e-07
-1.03774e-06
-4.16956e-07
-8.02602e-07
-2.99714e-07
-5.87355e-07
-2.05552e-07
-3.97042e-07
-1.32815e-07
-2.35256e-07
-7.92179e-08
-1.04391e-07
-4.21001e-08
-6.00701e-09
-1.86038e-08
5.87849e-08
-5.77949e-09
8.89843e-08
-6.15659e-10
8.34577e-08
4.07857e-08
-2.95447e-06
-7.49788e-07
-2.96501e-06
-8.61705e-07
-2.97675e-06
-9.74606e-07
-2.98973e-06
-1.08866e-06
-3.00396e-06
-1.20403e-06
-3.01936e-06
-1.32091e-06
-3.03578e-06
-1.43945e-06
-3.05294e-06
-1.55977e-06
-3.0704e-06
-1.68193e-06
-3.0875e-06
-1.80585e-06
-3.10336e-06
-1.93132e-06
-3.11681e-06
-2.05788e-06
-3.12637e-06
-2.18478e-06
-3.13022e-06
-2.31085e-06
-3.12619e-06
-2.43448e-06
-3.11182e-06
-2.55348e-06
-3.08441e-06
-2.66506e-06
-3.04111e-06
-2.76577e-06
-2.97914e-06
-2.85155e-06
-2.89594e-06
-2.91779e-06
-2.78951e-06
-2.95958e-06
-2.65865e-06
-2.97195e-06
-2.50327e-06
-2.95029e-06
-2.32464e-06
-2.89084e-06
-2.12557e-06
-2.79122e-06
-1.91035e-06
-2.65095e-06
-1.68466e-06
-2.47187e-06
-1.45513e-06
-2.25829e-06
-1.2288e-06
-2.01691e-06
-1.01248e-06
-1.75638e-06
-8.1214e-07
-1.48653e-06
-6.32399e-07
-1.21748e-06
-4.7625e-07
-9.5875e-07
-3.45038e-07
-7.18568e-07
-2.38614e-07
-5.03465e-07
-1.55641e-07
-3.18229e-07
-9.39209e-08
-1.66111e-07
-5.0712e-08
-4.9216e-08
-2.29667e-08
3.10397e-08
-7.48199e-09
7.34996e-08
-9.63131e-10
7.69389e-08
3.98226e-08
-2.83554e-06
-7.41137e-07
-2.84529e-06
-8.51959e-07
-2.85626e-06
-9.63637e-07
-2.86856e-06
-1.07635e-06
-2.88229e-06
-1.1903e-06
-2.89749e-06
-1.30571e-06
-2.91415e-06
-1.42279e-06
-2.93215e-06
-1.54178e-06
-2.95124e-06
-1.66283e-06
-2.971e-06
-1.78608e-06
-2.99081e-06
-1.91151e-06
-3.00975e-06
-2.03894e-06
-3.02661e-06
-2.16792e-06
-3.03979e-06
-2.29766e-06
-3.04735e-06
-2.42692e-06
-3.04692e-06
-2.55391e-06
-3.03581e-06
-2.67618e-06
-3.01103e-06
-2.79056e-06
-2.96945e-06
-2.89312e-06
-2.908e-06
-2.97924e-06
-2.82392e-06
-3.04366e-06
-2.71506e-06
-3.08081e-06
-2.58024e-06
-3.08511e-06
-2.41957e-06
-3.05151e-06
-2.23475e-06
-2.97604e-06
-2.02917e-06
-2.85653e-06
-1.80792e-06
-2.69312e-06
-1.5775e-06
-2.48871e-06
-1.34532e-06
-2.2491e-06
-1.11901e-06
-1.98269e-06
-9.05689e-07
-1.69985e-06
-7.1129e-07
-1.41188e-06
-5.40077e-07
-1.12996e-06
-3.94465e-07
-8.6418e-07
-2.75093e-07