/*--------------------------------*- C++ -*----------------------------------*\
  =========                 |
  \\      /  F ield         | OpenFOAM: The Open Source CFD Toolbox
   \\    /   O peration     | Website:  https://openfoam.org
    \\  /    A nd           | Version:  9
     \\/     M anipulation  |
\*---------------------------------------------------------------------------*/
FoamFile
{
    format      ascii;
    class       volVectorField;
    location    "2";
    object      U;
}
// * * * * * * * * * * * * * * * * * * * * * * * * * * * * * * * * * * * * * //

dimensions      [0 1 -1 0 0 0 0];

internalField   nonuniform List<vector> 
1240
(
(-0.0078769 -0.000340224 0)
(-0.00671349 -0.000353473 0)
(-0.00551884 -0.000360587 0)
(-0.00431143 -0.000361372 0)
(-0.00311006 -0.000355797 0)
(-0.00193335 -0.000344014 0)
(-0.000799261 -0.000326378 0)
(0.000275297 -0.000303463 0)
(0.00127509 -0.000275906 0)
(0.00218701 -0.000244595 0)
(0.00300032 -0.000210485 0)
(0.00370696 -0.000174576 0)
(0.00430166 -0.000137884 0)
(0.00478202 -0.000101394 0)
(0.00514837 -6.60116e-05 0)
(0.00540363 -3.25341e-05 0)
(0.005553 -1.62063e-06 0)
(0.00560362 2.62241e-05 0)
(0.00556415 5.06573e-05 0)
(0.00544432 7.15005e-05 0)
(0.00525455 8.87241e-05 0)
(0.00500548 0.000102433 0)
(0.00470759 0.000112847 0)
(0.00437092 0.000120274 0)
(0.00400478 0.000125082 0)
(0.00361758 0.000127671 0)
(0.0032168 0.000128428 0)
(0.00280898 0.000127694 0)
(0.00239994 0.000125706 0)
(0.00199515 0.000122532 0)
(0.00160021 0.000117984 0)
(0.00122164 0.000111518 0)
(0.000867784 0.000102097 0)
(0.000550027 8.81089e-05 0)
(0.000283526 6.74921e-05 0)
(8.64673e-05 3.84921e-05 0)
(-2.09167e-05 2.4812e-06 0)
(-2.47682e-05 -2.49241e-05 0)
(-0.0228961 -0.0021722 0)
(-0.0199219 -0.00224767 0)
(-0.0168731 -0.00228945 0)
(-0.0137914 -0.00229649 0)
(-0.0107196 -0.0022686 0)
(-0.00769986 -0.00220643 0)
(-0.00477352 -0.00211162 0)
(-0.00197957 -0.00198673 0)
(0.000646043 -0.00183504 0)
(0.00307149 -0.00166064 0)
(0.00526983 -0.0014682 0)
(0.00721956 -0.00126276 0)
(0.00890505 -0.00104954 0)
(0.0103168 -0.000833738 0)
(0.0114515 -0.000620345 0)
(0.0123118 -0.000413934 0)
(0.0129056 -0.000218519 0)
(0.013246 -3.74329e-05 0)
(0.0133501 0.000126758 0)
(0.0132383 0.000272286 0)
(0.0129332 0.000398185 0)
(0.0124591 0.000504229 0)
(0.0118406 0.000590857 0)
(0.0111024 0.000659062 0)
(0.0102678 0.000710246 0)
(0.00935926 0.000746041 0)
(0.00839728 0.00076811 0)
(0.00740091 0.000777908 0)
(0.00638792 0.00077641 0)
(0.00537547 0.000763797 0)
(0.00438112 0.000739124 0)
(0.00342411 0.000699984 0)
(0.00252689 0.000642277 0)
(0.0017165 0.000560333 0)
(0.00102466 0.000448055 0)
(0.000485064 0.000302023 0)
(0.000132227 0.000129737 0)
(3.47222e-06 -2.07872e-05 0)
(-0.0377397 -0.00586933 0)
(-0.0333687 -0.00606216 0)
(-0.0288901 -0.00617168 0)
(-0.0243591 -0.00619537 0)
(-0.0198321 -0.00613258 0)
(-0.0153657 -0.00598464 0)
(-0.0110153 -0.00575502 0)
(-0.0068338 -0.00544924 0)
(-0.002871 -0.00507475 0)
(0.000828145 -0.0046407 0)
(0.0042243 -0.00415771 0)
(0.00728473 -0.00363747 0)
(0.00998389 -0.00309232 0)
(0.012304 -0.00253481 0)
(0.0142351 -0.00197721 0)
(0.0157755 -0.00143112 0)
(0.0169307 -0.000907038 0)
(0.0177134 -0.000414058 0)
(0.0181427 4.04083e-05 0)
(0.0182429 0.000450763 0)
(0.0180426 0.000813312 0)
(0.0175731 0.00112619 0)
(0.016868 0.00138922 0)
(0.0159613 0.0016037 0)
(0.0148872 0.00177205 0)
(0.0136787 0.00189741 0)
(0.0123674 0.00198315 0)
(0.0109834 0.00203227 0)
(0.00955558 0.00204676 0)
(0.00811212 0.00202693 0)
(0.0066816 0.00197068 0)
(0.00529435 0.00187302 0)
(0.00398384 0.00172589 0)
(0.00278798 0.001519 0)
(0.00174854 0.00124253 0)
(0.000907416 0.000893034 0)
(0.000312444 0.000485502 0)
(4.1683e-05 9.02398e-05 0)
(-0.052999 -0.0107782 0)
(-0.0475552 -0.0111236 0)
(-0.0419723 -0.0113265 0)
(-0.0363127 -0.0113826 0)
(-0.0306404 -0.0112903 0)
(-0.0250196 -0.0110512 0)
(-0.0195144 -0.0106706 0)
(-0.0141866 -0.0101566 0)
(-0.00909511 -0.00952086 0)
(-0.00429461 -0.00877776 0)
(0.000165908 -0.00794422 0)
(0.00424402 -0.00703916 0)
(0.00790482 -0.00608284 0)
(0.0111217 -0.00509628 0)
(0.0138767 -0.00410039 0)
(0.0161608 -0.0031153 0)
(0.0179741 -0.00215977 0)
(0.0193251 -0.00125048 0)
(0.02023 -0.000401597 0)
(0.0207123 0.000375582 0)
(0.0208014 0.00107282 0)
(0.0205316 0.00168503 0)
(0.0199403 0.00220998 0)
(0.0190675 0.00264811 0)
(0.0179541 0.00300194 0)
(0.0166411 0.00327548 0)
(0.0151689 0.00347335 0)
(0.0135769 0.00359987 0)
(0.0119036 0.00365794 0)
(0.0101868 0.00364799 0)
(0.00846489 0.00356695 0)
(0.00677746 0.00340752 0)
(0.00516689 0.00315818 0)
(0.0036795 0.00280451 0)
(0.00236491 0.00233301 0)
(0.00127289 0.00173831 0)
(0.000467881 0.00103624 0)
(7.35713e-05 0.000296903 0)
(-0.0692104 -0.0165801 0)
(-0.0629374 -0.0171116 0)
(-0.0564893 -0.0174376 0)
(-0.0499317 -0.0175512 0)
(-0.043332 -0.0174496 0)
(-0.0367593 -0.0171342 0)
(-0.0302825 -0.0166108 0)
(-0.0239697 -0.0158899 0)
(-0.0178868 -0.0149864 0)
(-0.0120959 -0.0139196 0)
(-0.00665427 -0.0127122 0)
(-0.00161294 -0.01139 0)
(0.00298414 -0.00998137 0)
(0.00710131 -0.0085158 0)
(0.0107119 -0.00702337 0)
(0.0137985 -0.00553354 0)
(0.0163535 -0.0040743 0)
(0.0183786 -0.00267122 0)
(0.0198847 -0.00134665 0)
(0.0208912 -0.00011921 0)
(0.0214251 0.000996645 0)
(0.0215196 0.00199088 0)
(0.0212132 0.00285759 0)
(0.0205482 0.0035948 0)
(0.0195695 0.0042038 0)
(0.0183234 0.00468829 0)
(0.0168569 0.00505328 0)
(0.0152167 0.00530373 0)
(0.0134491 0.00544311 0)
(0.0116005 0.00547192 0)
(0.00971741 0.00538629 0)
(0.00784751 0.00517709 0)
(0.00604086 0.00482988 0)
(0.00435119 0.00432638 0)
(0.00283573 0.00364848 0)
(0.00155301 0.0027853 0)
(0.000584888 0.00174464 0)
(9.63071e-05 0.000578187 0)
(-0.0867785 -0.0230862 0)
(-0.0798528 -0.0238438 0)
(-0.0727073 -0.0243316 0)
(-0.0654086 -0.0245397 0)
(-0.0580259 -0.0244628 0)
(-0.050631 -0.0241011 0)
(-0.0432967 -0.0234605 0)
(-0.036096 -0.0225526 0)
(-0.0291005 -0.021395 0)
(-0.0223792 -0.0200105 0)
(-0.015997 -0.0184273 0)
(-0.0100132 -0.0166775 0)
(-0.00448066 -0.0147971 0)
(0.000555857 -0.0128241 0)
(0.0050604 -0.0107977 0)
(0.00900654 -0.00875705 0)
(0.0123779 -0.00674016 0)
(0.0151683 -0.00478228 0)
(0.0173815 -0.00291512 0)
(0.019031 -0.00116594 0)
(0.020139 0.000443127 0)
(0.0207358 0.0018953 0)
(0.0208582 0.0031795 0)
(0.0205484 0.00428971 0)
(0.0198532 0.00522445 0)
(0.0188219 0.00598574 0)
(0.0175059 0.00657779 0)
(0.0159574 0.00700536 0)
(0.0142293 0.00727189 0)
(0.0123747 0.00737765 0)
(0.0104474 0.00731804 0)
(0.00850208 0.00708231 0)
(0.00659588 0.00665328 0)
(0.00478963 0.00600859 0)
(0.00314831 0.00512402 0)
(0.0017397 0.0039795 0)
(0.000661452 0.00256788 0)
(0.00011036 0.000911808 0)
(-0.105926 -0.0301478 0)
(-0.0984733 -0.031181 0)
(-0.0907459 -0.0318803 0)
(-0.0828101 -0.0322316 0)
(-0.0747362 -0.0322264 0)
(-0.0665978 -0.0318627 0)
(-0.0584713 -0.031145 0)
(-0.0504341 -0.0300853 0)
(-0.0425633 -0.0287024 0)
(-0.0349348 -0.0270223 0)
(-0.0276212 -0.0250772 0)
(-0.0206902 -0.0229053 0)
(-0.0142038 -0.0205494 0)
(-0.00821625 -0.0180558 0)
(-0.00277303 -0.0154731 0)
(0.00208978 -0.0128502 0)
(0.00634655 -0.0102355 0)
(0.00998247 -0.00767451 0)
(0.0129934 -0.00520937 0)
(0.0153857 -0.00287707 0)
(0.0171758 -0.000708725 0)
(0.0183894 0.00127084 0)
(0.0190603 0.00304366 0)
(0.0192292 0.00459818 0)
(0.0189426 0.00592855 0)
(0.0182513 0.00703371 0)
(0.0172095 0.00791579 0)
(0.0158734 0.00857826 0)
(0.014301 0.00902376 0)
(0.0125509 0.00925188 0)
(0.0106832 0.009257 0)
(0.00875909 0.00902668 0)
(0.00684213 0.00854092 0)
(0.00500013 0.00777266 0)
(0.00330574 0.00669024 0)
(0.00183565 0.00526158 0)
(0.000700228 0.00346043 0)
(0.00011697 0.00127587 0)
(-0.126679 -0.0376543 0)
(-0.118793 -0.0390223 0)
(-0.110568 -0.0399934 0)
(-0.102068 -0.0405483 0)
(-0.0933648 -0.040674 0)
(-0.084533 -0.0403649 0)
(-0.0756521 -0.0396231 0)
(-0.0668038 -0.0384594 0)
(-0.0580713 -0.0368928 0)
(-0.0495373 -0.0349512 0)
(-0.0412825 -0.0326702 0)
(-0.0333838 -0.0300931 0)
(-0.0259128 -0.0272692 0)
(-0.0189338 -0.0242528 0)
(-0.0125027 -0.0211016 0)
(-0.00666565 -0.0178748 0)
(-0.00145803 -0.0146312 0)
(0.003096 -0.0114276 0)
(0.00698381 -0.00831713 0)
(0.0102043 -0.00534755 0)
(0.0127673 -0.00256019 0)
(0.0146932 1.09772e-05 0)
(0.0160119 0.00233955 0)
(0.0167616 0.004407 0)
(0.0169874 0.00620165 0)
(0.0167406 0.00771792 0)
(0.0160769 0.00895457 0)
(0.0150554 0.00991264 0)
(0.0137377 0.0105931 0)
(0.0121876 0.010994 0)
(0.0104703 0.0111085 0)
(0.00865275 0.0109219 0)
(0.00680489 0.0104112 0)
(0.00500108 0.00954396 0)
(0.00332113 0.00828014 0)
(0.00184963 0.00657428 0)
(0.000705913 0.00437939 0)
(0.000117485 0.00165093 0)
(-0.16391 -0.0407357 0)
(-0.156656 -0.0433222 0)
(-0.148886 -0.0455194 0)
(-0.140647 -0.0472902 0)
(-0.131996 -0.0486031 0)
(-0.122996 -0.0494324 0)
(-0.113716 -0.0497592 0)
(-0.104232 -0.0495728 0)
(-0.0946272 -0.0488716 0)
(-0.0849861 -0.0476633 0)
(-0.0753981 -0.045966 0)
(-0.0659532 -0.043808 0)
(-0.0567408 -0.0412274 0)
(-0.0478477 -0.0382715 0)
(-0.0393561 -0.0349959 0)
(-0.0313414 -0.0314624 0)
(-0.0238709 -0.0277378 0)
(-0.0170017 -0.0238917 0)
(-0.01078 -0.0199941 0)
(-0.00524006 -0.0161136 0)
(-0.000403516 -0.0123153 0)
(0.00372036 -0.00865862 0)
(0.00713458 -0.00519626 0)
(0.00985375 -0.00197272 0)
(0.0119034 0.000976114 0)
(0.0133186 0.00362303 0)
(0.0141428 0.00594944 0)
(0.0144268 0.00794386 0)
(0.0142272 0.0096004 0)
(0.0136051 0.0109165 0)
(0.0126254 0.0118905 0)
(0.0113558 0.0125182 0)
(0.00986616 0.0127906 0)
(0.00822901 0.0126906 0)
(0.00651992 0.0121915 0)
(0.00481941 0.0112554 0)
(0.00321365 0.00983333 0)
(0.00179368 0.00786622 0)
(0.000684086 0.00528707 0)
(0.000113192 0.00202069 0)
(-0.200455 -0.040362 0)
(-0.194344 -0.0442393 0)
(-0.187587 -0.0477808 0)
(-0.180209 -0.0509371 0)
(-0.172246 -0.0536614 0)
(-0.16374 -0.0559097 0)
(-0.154743 -0.0576424 0)
(-0.145313 -0.0588261 0)
(-0.135519 -0.0594346 0)
(-0.125435 -0.0594504 0)
(-0.115145 -0.058866 0)
(-0.104738 -0.0576847 0)
(-0.0943083 -0.0559217 0)
(-0.0839532 -0.0536042 0)
(-0.0737714 -0.0507711 0)
(-0.0638603 -0.0474731 0)
(-0.0543137 -0.0437708 0)
(-0.0452198 -0.0397333 0)
(-0.0366584 -0.0354367 0)
(-0.0286996 -0.0309612 0)
(-0.0214016 -0.0263886 0)
(-0.0148099 -0.0218003 0)
(-0.00895642 -0.0172741 0)
(-0.0038593 -0.0128827 0)
(0.000476969 -0.00869116 0)
(0.00406094 -0.00475589 0)
(0.00691323 -0.00112362 0)
(0.00906578 0.0021687 0)
(0.0105603 0.00509401 0)
(0.0114466 0.00763373 0)
(0.0117821 0.00977609 0)
(0.0116294 0.0115139 0)
(0.0110562 0.0128417 0)
(0.0101337 0.0137524 0)
(0.00893623 0.0142341 0)
(0.00754121 0.0142668 0)
(0.00602955 0.0138198 0)
(0.00448727 0.0128494 0)
(0.00300593 0.0112979 0)
(0.00168154 0.00909381 0)
(0.000640718 0.00615218 0)
(0.000105323 0.00237211 0)
(-0.224543 -0.0461073 0)
(-0.218522 -0.0506681 0)
(-0.211803 -0.0548726 0)
(-0.204404 -0.0586641 0)
(-0.196352 -0.0619882 0)
(-0.187682 -0.0647925 0)
(-0.178437 -0.0670289 0)
(-0.168671 -0.0686549 0)
(-0.158448 -0.0696352 0)
(-0.147839 -0.0699438 0)
(-0.136927 -0.0695652 0)
(-0.125803 -0.0684961 0)
(-0.114566 -0.0667464 0)
(-0.10332 -0.06434 0)
(-0.0921718 -0.0613152 0)
(-0.0812309 -0.0577239 0)
(-0.070604 -0.0536309 0)
(-0.0603931 -0.0491122 0)
(-0.050693 -0.0442525 0)
(-0.0415886 -0.0391432 0)
(-0.0331523 -0.0338787 0)
(-0.025443 -0.0285541 0)
(-0.0185046 -0.0232616 0)
(-0.0123656 -0.0180882 0)
(-0.00703899 -0.0131132 0)
(-0.00252306 -0.00840634 0)
(0.00119781 -0.0040268 0)
(0.00415202 -2.24e-05 0)
(0.00637927 0.00356979 0)
(0.00792895 0.00672283 0)
(0.00885875 0.00941799 0)
(0.00923327 0.0116424 0)
(0.00912267 0.0133858 0)
(0.00860164 0.0146376 0)
(0.0077487 0.0153822 0)
(0.00664588 0.0155962 0)
(0.00537907 0.0152447 0)
(0.00403915 0.0142784 0)
(0.00272214 0.0126318 0)
(0.00152765 0.0102223 0)
(0.000581861 0.00695039 0)
(9.50582e-05 0.00269547 0)
(-0.248428 -0.0516949 0)
(-0.2426 -0.0569836 0)
(-0.236032 -0.0619038 0)
(-0.228731 -0.0663924 0)
(-0.220714 -0.070387 0)
(-0.212006 -0.0738267 0)
(-0.20264 -0.076654 0)
(-0.192663 -0.0788159 0)
(-0.182128 -0.0802668 0)
(-0.171103 -0.0809699 0)
(-0.159667 -0.0808993 0)
(-0.147909 -0.0800424 0)
(-0.135931 -0.0784012 0)
(-0.123842 -0.0759938 0)
(-0.111757 -0.0728548 0)
(-0.0997963 -0.0690354 0)
(-0.0880808 -0.0646028 0)
(-0.076728 -0.0596383 0)
(-0.0658498 -0.0542353 0)
(-0.0555483 -0.048496 0)
(-0.0459133 -0.0425285 0)
(-0.0370199 -0.0364426 0)
(-0.0289267 -0.0303466 0)
(-0.0216747 -0.0243439 0)
(-0.0152875 -0.0185297 0)
(-0.00977146 -0.0129894 0)
(-0.0051169 -0.00779607 0)
(-0.00129931 -0.00301057 0)
(0.00171897 0.00131886 0)
(0.00398686 0.00515553 0)
(0.00556292 0.00847258 0)
(0.00651369 0.0112504 0)
(0.0069122 0.0134734 0)
(0.00683678 0.0151261 0)
(0.00637014 0.0161893 0)
(0.00559888 0.0166357 0)
(0.00461356 0.016426 0)
(0.00350946 0.0155059 0)
(0.00238628 0.013803 0)
(0.00134621 0.011226 0)
(0.00051337 0.00766448 0)
(8.35002e-05 0.00298429 0)
(-0.271497 -0.0570234 0)
(-0.265974 -0.0630726 0)
(-0.25968 -0.0687514 0)
(-0.252612 -0.0739906 0)
(-0.244775 -0.0787205 0)
(-0.236182 -0.0828717 0)
(-0.226853 -0.0863765 0)
(-0.216822 -0.0891711 0)
(-0.206132 -0.0911975 0)
(-0.19484 -0.0924062 0)
(-0.183019 -0.0927588 0)
(-0.170754 -0.0922302 0)
(-0.158143 -0.0908113 0)
(-0.145299 -0.0885107 0)
(-0.132343 -0.0853561 0)
(-0.119405 -0.0813947 0)
(-0.106621 -0.0766935 0)
(-0.0941229 -0.0713371 0)
(-0.082043 -0.065426 0)
(-0.0705034 -0.0590734 0)
(-0.0596147 -0.0524009 0)
(-0.0494717 -0.0455349 0)
(-0.0401516 -0.0386014 0)
(-0.0317115 -0.0317224 0)
(-0.0241884 -0.0250119 0)
(-0.0175993 -0.018573 0)
(-0.0119419 -0.0124956 0)
(-0.00719664 -0.00685551 0)
(-0.00332835 -0.00171412 0)
(-0.000288547 0.00288061 0)
(0.00198251 0.0068924 0)
(0.00355375 0.0102939 0)
(0.00450158 0.0130632 0)
(0.00490839 0.0151797 0)
(0.00486139 0.0166198 0)
(0.00445191 0.0173523 0)
(0.00377512 0.0173338 0)
(0.00293044 0.0165054 0)
(0.00202081 0.0147895 0)
(0.00115041 0.0120882 0)
(0.000440622 0.00828402 0)
(7.1643e-05 0.00323517 0)
(-0.293105 -0.0619866 0)
(-0.288 -0.0688135 0)
(-0.282112 -0.0752792 0)
(-0.275425 -0.0813096 0)
(-0.26793 -0.0868287 0)
(-0.259625 -0.0917591 0)
(-0.250518 -0.0960231 0)
(-0.240623 -0.0995453 0)
(-0.229971 -0.102255 0)
(-0.218604 -0.104087 0)
(-0.206583 -0.104989 0)
(-0.193983 -0.10492 0)
(-0.180898 -0.103856 0)
(-0.167436 -0.101792 0)
(-0.153722 -0.098745 0)
(-0.139895 -0.0947535 0)
(-0.126099 -0.0898802 0)
(-0.112487 -0.0842102 0)
(-0.0992082 -0.0778486 0)
(-0.0864091 -0.070918 0)
(-0.0742241 -0.0635538 0)
(-0.0627725 -0.0558995 0)
(-0.0521544 -0.048101 0)
(-0.0424479 -0.0403016 0)
(-0.033708 -0.032637 0)
(-0.0259654 -0.0252315 0)
(-0.0192286 -0.0181949 0)
(-0.0134847 -0.011621 0)
(-0.00870211 -0.00558665 0)
(-0.00483326 -0.000153271 0)
(-0.00181717 0.00463185 0)
(0.000417996 0.00873243 0)
(0.00195263 0.0121194 0)
(0.00287386 0.0147666 0)
(0.00327399 0.0166458 0)
(0.00324947 0.0177217 0)
(0.00290038 0.0179474 0)
(0.00233031 0.0172601 0)
(0.0016454 0.0155784 0)
(0.000951777 0.0128004 0)
(0.000368276 0.00880471 0)
(6.03328e-05 0.00344741 0)
(-0.312611 -0.0664801 0)
(-0.308033 -0.0740826 0)
(-0.30268 -0.0813449 0)
(-0.296522 -0.0881895 0)
(-0.289538 -0.0945357 0)
(-0.281709 -0.100299 0)
(-0.273024 -0.105393 0)
(-0.263482 -0.10973 0)
(-0.253092 -0.113227 0)
(-0.24188 -0.115803 0)
(-0.229887 -0.117387 0)
(-0.217175 -0.117921 0)
(-0.203825 -0.117362 0)
(-0.189938 -0.115687 0)
(-0.175636 -0.112896 0)
(-0.161059 -0.109016 0)
(-0.146362 -0.104098 0)
(-0.131712 -0.0982232 0)
(-0.117277 -0.091498 0)
(-0.103229 -0.0840514 0)
(-0.0897284 -0.0760313 0)
(-0.0769243 -0.0675983 0)
(-0.0649451 -0.0589198 0)
(-0.0538955 -0.0501631 0)
(-0.0438539 -0.0414892 0)
(-0.0348707 -0.0330476 0)
(-0.0269689 -0.0249723 0)
(-0.0201459 -0.0173785 0)
(-0.0143759 -0.0103626 0)
(-0.00961357 -0.00400198 0)
(-0.00579697 0.00164296 0)
(-0.0028512 0.00652542 0)
(-0.000691273 0.0106082 0)
(0.000775489 0.0138589 0)
(0.00164731 0.0162444 0)
(0.00202648 0.0177258 0)
(0.00201858 0.018253 0)
(0.00173184 0.0177605 0)
(0.00127599 0.0161643 0)
(0.000759647 0.0133607 0)
(0.000300075 0.00922747 0)
(5.02382e-05 0.00362257 0)
(-0.32942 -0.0704098 0)
(-0.325463 -0.0787646 0)
(-0.32076 -0.0868113 0)
(-0.315271 -0.0944714 0)
(-0.30896 -0.101661 0)
(-0.301792 -0.108292 0)
(-0.293737 -0.114269 0)
(-0.284774 -0.119495 0)
(-0.274889 -0.123872 0)
(-0.264087 -0.127305 0)
(-0.252387 -0.129705 0)
(-0.239828 -0.130992 0)
(-0.226474 -0.131101 0)
(-0.21241 -0.129986 0)
(-0.197748 -0.127626 0)
(-0.182625 -0.124027 0)
(-0.167198 -0.119226 0)
(-0.151643 -0.113293 0)
(-0.136148 -0.106327 0)
(-0.120907 -0.0984614 0)
(-0.106109 -0.0898524 0)
(-0.0919368 -0.0806767 0)
(-0.0785516 -0.0711237 0)
(-0.0660918 -0.0613869 0)
(-0.0546661 -0.0516564 0)
(-0.0443513 -0.0421116 0)
(-0.0351913 -0.0329154 0)
(-0.0271987 -0.0242101 0)
(-0.0203576 -0.0161158 0)
(-0.0146271 -0.00872961 0)
(-0.00994568 -0.00212847 0)
(-0.0062358 0.00362824 0)
(-0.00340746 0.00849378 0)
(-0.00136173 0.0124288 0)
(6.50883e-06 0.0153952 0)
(0.000806468 0.0173505 0)
(0.00115012 0.0182421 0)
(0.00115127 0.0180029 0)
(0.00092411 0.0165477 0)
(0.000580773 0.0137727 0)
(0.000238713 0.00955717 0)
(4.18311e-05 0.00376396 0)
(-0.34303 -0.0737018 0)
(-0.339762 -0.082763 0)
(-0.335802 -0.0915582 0)
(-0.331098 -0.100011 0)
(-0.325602 -0.108036 0)
(-0.319262 -0.115543 0)
(-0.312032 -0.122433 0)
(-0.303868 -0.128599 0)
(-0.294735 -0.133932 0)
(-0.284609 -0.138323 0)
(-0.273485 -0.141662 0)
(-0.261375 -0.143849 0)
(-0.248316 -0.144793 0)
(-0.234372 -0.144422 0)
(-0.219636 -0.142688 0)
(-0.204232 -0.13957 0)
(-0.188312 -0.135082 0)
(-0.172055 -0.129273 0)
(-0.15566 -0.122232 0)
(-0.13934 -0.114087 0)
(-0.123316 -0.104996 0)
(-0.107802 -0.0951505 0)
(-0.0929979 -0.0847589 0)
(-0.0790824 -0.0740426 0)
(-0.0662019 -0.063224 0)
(-0.0544679 -0.0525172 0)
(-0.0439532 -0.0421201 0)
(-0.0346929 -0.0322081 0)
(-0.0266863 -0.0229308 0)
(-0.0199013 -0.0144111 0)
(-0.0142798 -0.00674603 0)
(-0.0097426 -1.10965e-05 0)
(-0.00619503 0.00573535 0)
(-0.00353135 0.0104457 0)
(-0.00163861 0.0140767 0)
(-0.000399456 0.0165824 0)
(0.000305767 0.0179084 0)
(0.000597702 0.0179868 0)
(0.000596425 0.0167326 0)
(0.000419132 0.0140434 0)
(0.000185767 0.00980137 0)
(3.53784e-05 0.00387602 0)
(-0.353077 -0.0763105 0)
(-0.350535 -0.086011 0)
(-0.347374 -0.0954957 0)
(-0.343536 -0.104692 0)
(-0.338961 -0.113518 0)
(-0.333586 -0.121882 0)
(-0.327346 -0.129685 0)
(-0.320177 -0.136814 0)
(-0.312021 -0.143152 0)
(-0.302828 -0.148576 0)
(-0.292562 -0.15296 0)
(-0.281206 -0.15618 0)
(-0.268765 -0.15812 0)
(-0.255272 -0.15868 0)
(-0.240794 -0.157777 0)
(-0.225431 -0.15536 0)
(-0.209319 -0.15141 0)
(-0.19263 -0.145949 0)
(-0.175566 -0.139043 0)
(-0.158355 -0.130804 0)
(-0.141239 -0.121388 0)
(-0.124467 -0.110991 0)
(-0.10828 -0.0998378 0)
(-0.0928992 -0.0881772 0)
(-0.078518 -0.0762651 0)
(-0.065291 -0.0643548 0)
(-0.0533296 -0.0526854 0)
(-0.0427005 -0.0414727 0)
(-0.0334262 -0.0309035 0)
(-0.0254901 -0.0211329 0)
(-0.0188413 -0.0122847 0)
(-0.0134021 -0.00445464 0)
(-0.00907426 0.00228391 0)
(-0.00574538 0.00787327 0)
(-0.00329381 0.0122638 0)
(-0.00159287 0.0154063 0)
(-0.000513685 0.0172452 0)
(7.29164e-05 0.0177125 0)
(0.000294681 0.0167246 0)
(0.000275884 0.0141814 0)
(0.000141695 0.00996891 0)
(3.09465e-05 0.00396371 0)
(-0.359373 -0.0782244 0)
(-0.357557 -0.0884792 0)
(-0.355212 -0.098573 0)
(-0.352276 -0.10844 0)
(-0.348683 -0.118004 0)
(-0.34436 -0.127178 0)
(-0.339228 -0.135862 0)
(-0.333206 -0.143945 0)
(-0.326214 -0.151303 0)
(-0.318177 -0.157803 0)
(-0.309028 -0.163306 0)
(-0.298718 -0.167667 0)
(-0.287215 -0.170747 0)
(-0.274517 -0.172411 0)
(-0.260654 -0.172546 0)
(-0.245693 -0.171059 0)
(-0.229744 -0.167893 0)
(-0.212958 -0.163033 0)
(-0.195529 -0.156512 0)
(-0.177687 -0.148416 0)
(-0.15969 -0.138884 0)
(-0.141815 -0.128108 0)
(-0.124341 -0.116323 0)
(-0.107538 -0.1038 0)
(-0.0916491 -0.0908269 0)
(-0.0768824 -0.0777001 0)
(-0.063398 -0.0647054 0)
(-0.0513045 -0.0521068 0)
(-0.0406584 -0.0401372 0)
(-0.0314666 -0.0289926 0)
(-0.0236928 -0.0188313 0)
(-0.0172652 -0.00977597 0)
(-0.0120846 -0.00191979 0)
(-0.0080329 0.00466635 0)
(-0.00497957 0.00992483 0)
(-0.0027875 0.0138026 0)
(-0.00131697 0.0162429 0)
(-0.000428365 0.0171787 0)
(1.5888e-05 0.0165285 0)
(0.000149509 0.014195 0)
(0.000105906 0.0100685 0)
(2.84152e-05 0.00403195 0)
(-0.361923 -0.0794679 0)
(-0.360796 -0.0901787 0)
(-0.359241 -0.100785 0)
(-0.357198 -0.11123 0)
(-0.354596 -0.121445 0)
(-0.351357 -0.131351 0)
(-0.347393 -0.140854 0)
(-0.34261 -0.149845 0)
(-0.336911 -0.1582 0)
(-0.330198 -0.165782 0)
(-0.322377 -0.172439 0)
(-0.313364 -0.178014 0)
(-0.303092 -0.182342 0)
(-0.291517 -0.185262 0)
(-0.278627 -0.186622 0)
(-0.264447 -0.186289 0)
(-0.249048 -0.184161 0)
(-0.232548 -0.180176 0)
(-0.215119 -0.174323 0)
(-0.196979 -0.166649 0)
(-0.178388 -0.157263 0)
(-0.159642 -0.14634 0)
(-0.141053 -0.134114 0)
(-0.122935 -0.120866 0)
(-0.105588 -0.106916 0)
(-0.0892768 -0.0926008 0)
(-0.0742215 -0.0782581 0)
(-0.0605848 -0.0642073 0)
(-0.0484686 -0.050737 0)
(-0.0379151 -0.0380947 0)
(-0.0289114 -0.026483 0)
(-0.0213986 -0.0160604 0)
(-0.0152812 -0.00694653 0)
(-0.0104376 0.000769494 0)
(-0.00672924 0.00701921 0)
(-0.00400783 0.0117442 0)
(-0.00212137 0.0148864 0)
(-0.000917748 0.01638 0)
(-0.000247201 0.016146 0)
(3.60986e-05 0.0140905 0)
(7.68924e-05 0.0101075 0)
(2.75027e-05 0.00408506 0)
(-0.360929 -0.0800986 0)
(-0.360421 -0.0911606 0)
(-0.359591 -0.102173 0)
(-0.358383 -0.113088 0)
(-0.356728 -0.123849 0)
(-0.354546 -0.134388 0)
(-0.351746 -0.144617 0)
(-0.348228 -0.154437 0)
(-0.34388 -0.163728 0)
(-0.338589 -0.172353 0)
(-0.332237 -0.180157 0)
(-0.324711 -0.186971 0)
(-0.315907 -0.192614 0)
(-0.30574 -0.196898 0)
(-0.294152 -0.199638 0)
(-0.281119 -0.200659 0)
(-0.266663 -0.199812 0)
(-0.250858 -0.196979 0)
(-0.233837 -0.192097 0)
(-0.215789 -0.185158 0)
(-0.196963 -0.176228 0)
(-0.177657 -0.165448 0)
(-0.158203 -0.153032 0)
(-0.138956 -0.139264 0)
(-0.120266 -0.124483 0)
(-0.102463 -0.109062 0)
(-0.0858318 -0.0933925 0)
(-0.0706024 -0.0778546 0)
(-0.056935 -0.062802 0)
(-0.0449199 -0.0485455 0)
(-0.0345797 -0.0353442 0)
(-0.0258779 -0.0234033 0)
(-0.0187295 -0.0128785 0)
(-0.0130139 -0.00388403 0)
(-0.00858612 0.00349607 0)
(-0.00528702 0.00919536 0)
(-0.00295117 0.0131533 0)
(-0.00141205 0.015305 0)
(-0.000505304 0.0155743 0)
(-7.02252e-05 0.0138706 0)
(5.23686e-05 0.0100908 0)
(2.78051e-05 0.0041263 0)
(-0.356758 -0.0802007 0)
(-0.356774 -0.0915092 0)
(-0.356573 -0.102817 0)
(-0.356104 -0.114088 0)
(-0.355304 -0.125279 0)
(-0.354099 -0.136332 0)
(-0.352398 -0.147174 0)
(-0.350099 -0.157714 0)
(-0.347087 -0.167845 0)
(-0.343237 -0.177434 0)
(-0.338415 -0.186329 0)
(-0.332483 -0.194359 0)
(-0.325308 -0.20133 0)
(-0.316764 -0.207037 0)
(-0.306748 -0.211264 0)
(-0.295185 -0.213799 0)
(-0.282041 -0.214443 0)
(-0.267334 -0.213023 0)
(-0.251144 -0.209412 0)
(-0.233616 -0.203539 0)
(-0.214968 -0.195409 0)
(-0.19548 -0.18511 0)
(-0.175492 -0.17282 0)
(-0.15538 -0.158806 0)
(-0.135542 -0.143409 0)
(-0.116367 -0.127033 0)
(-0.0982134 -0.110114 0)
(-0.0813848 -0.0930994 0)
(-0.066114 -0.0764145 0)
(-0.0525539 -0.0604452 0)
(-0.0407766 -0.0455207 0)
(-0.0307803 -0.0319071 0)
(-0.0225 -0.0198078 0)
(-0.0158224 -0.00937194 0)
(-0.0106 -0.000706355 0)
(-0.00666412 0.00611013 0)
(-0.00383558 0.011012 0)
(-0.00193182 0.0139347 0)
(-0.000771609 0.0148042 0)
(-0.000176848 0.013533 0)
(2.94258e-05 0.01002 0)
(2.88794e-05 0.0041576 0)
(-0.349904 -0.0798761 0)
(-0.350334 -0.0913331 0)
(-0.350644 -0.102831 0)
(-0.35079 -0.114345 0)
(-0.350719 -0.125845 0)
(-0.350364 -0.137286 0)
(-0.349643 -0.148611 0)
(-0.348457 -0.159743 0)
(-0.346695 -0.170588 0)
(-0.344226 -0.181026 0)
(-0.340909 -0.190915 0)
(-0.336591 -0.200086 0)
(-0.331114 -0.208344 0)
(-0.324321 -0.215472 0)
(-0.316066 -0.221234 0)
(-0.306224 -0.225386 0)
(-0.294703 -0.227683 0)
(-0.28146 -0.227898 0)
(-0.266508 -0.225836 0)
(-0.249936 -0.221354 0)
(-0.231908 -0.214382 0)
(-0.212668 -0.204939 0)
(-0.19254 -0.193143 0)
(-0.171906 -0.179221 0)
(-0.151194 -0.163499 0)
(-0.130846 -0.146391 0)
(-0.111291 -0.128372 0)
(-0.0929129 -0.10995 0)
(-0.0760284 -0.091628 0)
(-0.0608675 -0.0738778 0)
(-0.0475676 -0.0571129 0)
(-0.0361762 -0.0416758 0)
(-0.0266608 -0.027833 0)
(-0.0189244 -0.0157815 0)
(-0.0128229 -0.00566036 0)
(-0.00818106 0.00243219 0)
(-0.00480651 0.00842181 0)
(-0.00249981 0.0122417 0)
(-0.00106089 0.0138195 0)
(-0.000291719 0.01307 0)
(5.07725e-06 0.00989307 0)
(3.01317e-05 0.00417928 0)
(-0.340934 -0.079234 0)
(-0.341666 -0.0907537 0)
(-0.342358 -0.102346 0)
(-0.34298 -0.113998 0)
(-0.343489 -0.125691 0)
(-0.343828 -0.137395 0)
(-0.343928 -0.149068 0)
(-0.343701 -0.160652 0)
(-0.343041 -0.172067 0)
(-0.341825 -0.183213 0)
(-0.33991 -0.193961 0)
(-0.337138 -0.204154 0)
(-0.333336 -0.213603 0)
(-0.328324 -0.222091 0)
(-0.321921 -0.229372 0)
(-0.313959 -0.235177 0)
(-0.30429 -0.239225 0)
(-0.292806 -0.241239 0)
(-0.279452 -0.240957 0)
(-0.264243 -0.238162 0)
(-0.247276 -0.232698 0)
(-0.228738 -0.224497 0)
(-0.208911 -0.213599 0)
(-0.188161 -0.200164 0)
(-0.166925 -0.184478 0)
(-0.145681 -0.16694 0)
(-0.124922 -0.148048 0)
(-0.105111 -0.128359 0)
(-0.0866568 -0.108456 0)
(-0.0698785 -0.0889008 0)
(-0.0549958 -0.0702066 0)
(-0.0421219 -0.0528089 0)
(-0.031272 -0.0370553 0)
(-0.0223773 -0.0232064 0)
(-0.0153054 -0.0114472 0)
(-0.00987944 -0.00190452 0)
(-0.00589614 0.00533203 0)
(-0.00313917 0.0101899 0)
(-0.0013882 0.0125965 0)
(-0.000423091 0.0124678 0)
(-2.38061e-05 0.00970345 0)
(3.10394e-05 0.00418998 0)
(-0.330436 -0.0783809 0)
(-0.33136 -0.0898933 0)
(-0.332309 -0.1015 0)
(-0.333265 -0.113198 0)
(-0.334196 -0.12498 0)
(-0.33506 -0.13683 0)
(-0.3358 -0.148723 0)
(-0.336343 -0.160615 0)
(-0.336599 -0.17245 0)
(-0.336453 -0.184145 0)
(-0.335772 -0.195592 0)
(-0.334401 -0.206653 0)
(-0.332164 -0.217154 0)
(-0.328867 -0.226885 0)
(-0.324307 -0.235602 0)
(-0.31828 -0.243025 0)
(-0.31059 -0.248848 0)
(-0.30107 -0.252752 0)
(-0.289593 -0.254418 0)
(-0.276097 -0.253552 0)
(-0.260597 -0.24991 0)
(-0.243206 -0.243327 0)
(-0.22414 -0.233742 0)
(-0.203723 -0.221226 0)
(-0.182374 -0.205993 0)
(-0.160586 -0.188404 0)
(-0.138897 -0.168947 0)
(-0.117844 -0.148216 0)
(-0.0979261 -0.126859 0)
(-0.0795643 -0.105534 0)
(-0.063074 -0.0848638 0)
(-0.0486525 -0.0653938 0)
(-0.0363794 -0.0475724 0)
(-0.0262292 -0.0317436 0)
(-0.0180923 -0.0181547 0)
(-0.0117976 -0.00697448 0)
(-0.00713483 0.00168332 0)
(-0.00387197 0.0077349 0)
(-0.00176795 0.0111043 0)
(-0.000578879 0.0117068 0)
(-6.01376e-05 0.00944082 0)
(3.11954e-05 0.00418666 0)
(-0.318963 -0.0774126 0)
(-0.319983 -0.0888657 0)
(-0.321076 -0.100425 0)
(-0.322232 -0.112095 0)
(-0.323434 -0.123879 0)
(-0.324653 -0.135774 0)
(-0.325847 -0.147767 0)
(-0.326962 -0.159836 0)
(-0.327922 -0.171941 0)
(-0.328632 -0.184023 0)
(-0.328973 -0.195997 0)
(-0.3288 -0.207749 0)
(-0.327945 -0.219127 0)
(-0.326214 -0.22994 0)
(-0.323392 -0.239955 0)
(-0.319252 -0.248893 0)
(-0.313562 -0.256439 0)
(-0.306103 -0.262245 0)
(-0.296685 -0.265944 0)
(-0.285164 -0.267177 0)
(-0.271472 -0.265611 0)
(-0.25563 -0.260979 0)
(-0.237771 -0.253107 0)
(-0.218149 -0.241954 0)
(-0.197138 -0.227635 0)
(-0.175217 -0.210433 0)
(-0.152943 -0.190801 0)
(-0.130913 -0.169335 0)
(-0.109709 -0.146736 0)
(-0.0898569 -0.12375 0)
(-0.07178 -0.101113 0)
(-0.0557769 -0.0794971 0)
(-0.0420103 -0.0594723 0)
(-0.0305157 -0.0414878 0)
(-0.0212201 -0.0258741 0)
(-0.0139684 -0.0128584 0)
(-0.00854925 -0.00259113 0)
(-0.00471789 0.00482469 0)
(-0.00221307 0.00930494 0)
(-0.000766128 0.010762 0)
(-0.000106618 0.00909112 0)
(3.00942e-05 0.0041648 0)
(-0.307003 -0.0764088 0)
(-0.30804 -0.0877685 0)
(-0.30918 -0.0992369 0)
(-0.310422 -0.110825 0)
(-0.311759 -0.122545 0)
(-0.313177 -0.134401 0)
(-0.31465 -0.146397 0)
(-0.31614 -0.158524 0)
(-0.317592 -0.170763 0)
(-0.31893 -0.183076 0)
(-0.320056 -0.195406 0)
(-0.320844 -0.207663 0)
(-0.321141 -0.219724 0)
(-0.320761 -0.231425 0)
(-0.319493 -0.242553 0)
(-0.3171 -0.252847 0)
(-0.313329 -0.261993 0)
(-0.307921 -0.269631 0)
(-0.300631 -0.275364 0)
(-0.291245 -0.278778 0)
(-0.279607 -0.279463 0)
(-0.265645 -0.27705 0)
(-0.249392 -0.271248 0)
(-0.23101 -0.261886 0)
(-0.210799 -0.248951 0)
(-0.189193 -0.23262 0)
(-0.16674 -0.213268 0)
(-0.144066 -0.191461 0)
(-0.121825 -0.167919 0)
(-0.100641 -0.143463 0)
(-0.0810527 -0.11894 0)
(-0.0634739 -0.095157 0)
(-0.0481701 -0.0728263 0)
(-0.0352566 -0.0525268 0)
(-0.0247146 -0.0346959 0)
(-0.0164173 -0.0196406 0)
(-0.0101612 -0.00756372 0)
(-0.00569349 0.00140107 0)
(-0.00273451 0.00715486 0)
(-0.000990808 0.00960336 0)
(-0.000165417 0.00863696 0)
(2.74212e-05 0.00411869 0)
(-0.294949 -0.0754303 0)
(-0.295946 -0.0866793 0)
(-0.297058 -0.0980321 0)
(-0.298294 -0.109504 0)
(-0.299655 -0.121112 0)
(-0.301139 -0.13287 0)
(-0.302736 -0.14479 0)
(-0.304424 -0.156879 0)
(-0.306168 -0.169135 0)
(-0.307914 -0.181542 0)
(-0.309587 -0.194065 0)
(-0.311085 -0.206646 0)
(-0.312275 -0.219192 0)
(-0.312993 -0.23157 0)
(-0.313039 -0.243599 0)
(-0.312181 -0.255044 0)
(-0.310158 -0.265608 0)
(-0.30669 -0.274936 0)
(-0.30149 -0.282619 0)
(-0.294286 -0.288205 0)
(-0.284844 -0.291223 0)
(-0.272996 -0.291212 0)
(-0.258671 -0.287765 0)
(-0.241925 -0.280574 0)
(-0.222957 -0.26948 0)
(-0.202125 -0.254519 0)
(-0.179934 -0.235951 0)
(-0.157008 -0.214267 0)
(-0.134046 -0.190172 0)
(-0.111756 -0.164526 0)
(-0.090791 -0.138278 0)
(-0.0716906 -0.112374 0)
(-0.0548399 -0.0876818 0)
(-0.0404546 -0.0649352 0)
(-0.0285892 -0.0447058 0)
(-0.0191616 -0.0274055 0)
(-0.011987 -0.0133103 0)
(-0.00681164 -0.0025988 0)
(-0.00334099 0.00460572 0)
(-0.00125768 0.00819712 0)
(-0.000238225 0.00805832 0)
(2.29476e-05 0.00404159 0)
(-0.283096 -0.0745184 0)
(-0.284013 -0.0856535 0)
(-0.285046 -0.0968819 0)
(-0.286207 -0.108221 0)
(-0.287507 -0.11969 0)
(-0.288954 -0.131311 0)
(-0.290548 -0.143101 0)
(-0.292286 -0.15508 0)
(-0.294148 -0.16726 0)
(-0.296104 -0.179643 0)
(-0.298101 -0.19222 0)
(-0.300065 -0.204958 0)
(-0.301888 -0.217798 0)
(-0.303432 -0.230642 0)
(-0.304521 -0.243346 0)
(-0.304938 -0.255709 0)
(-0.304428 -0.267467 0)
(-0.302706 -0.278285 0)
(-0.299462 -0.287758 0)
(-0.29438 -0.29542 0)