/*--------------------------------*- C++ -*----------------------------------*\
  =========                 |
  \\      /  F ield         | OpenFOAM: The Open Source CFD Toolbox
   \\    /   O peration     | Website:  https://openfoam.org
    \\  /    A nd           | Version:  9
     \\/     M anipulation  |
\*---------------------------------------------------------------------------*/
FoamFile
{
    format      ascii;
    class       volScalarField;
    location    "3.5";
    object      p;
}
// * * * * * * * * * * * * * * * * * * * * * * * * * * * * * * * * * * * * * //

dimensions      [0 2 -2 0 0 0 0];

internalField   nonuniform List<scalar> 
1240
(
-0.0753304
-0.0751662
-0.0748988
-0.0745288
-0.0740566
-0.0780337
-0.0778782
-0.0776208
-0.0772622
-0.076803
-0.0762432
-0.0546974
-0.0521962
-0.0495356
-0.0467203
-0.0437622
-0.0406828
-0.0375153
-0.0343059
-0.0311144
-0.0280118
-0.0250768
-0.0223893
-0.0200212
-0.018028
-0.0164405
-0.0152605
-0.0144608
-0.0139906
-0.0137845
-0.0137726
-0.0138891
-0.0140782
-0.0142967
-0.014513
-0.014705
-0.0148628
-0.0149897
-0.0806149
-0.0804668
-0.080218
-0.0798691
-0.0794207
-0.078873
-0.0782264
-0.0774807
-0.0766356
-0.0756903
-0.0746438
-0.0734942
-0.0722391
-0.0708756
-0.0693995
-0.0678059
-0.0660889
-0.0642417
-0.0622568
-0.0601259
-0.0578412
-0.0553957
-0.0527846
-0.0500071
-0.0470685
-0.0439825
-0.0407743
-0.0374823
-0.0341601
-0.030876
-0.0277106
-0.024751
-0.0220829
-0.0197797
-0.0178926
-0.0164427
-0.0154176
-0.0147743
-0.0144479
-0.0143625
-0.0144429
-0.0146224
-0.0148482
-0.0150808
-0.0152924
-0.0154705
-0.0156195
-0.0830815
-0.0829399
-0.0826985
-0.0823579
-0.0819185
-0.081381
-0.0807456
-0.0800124
-0.0791813
-0.0782519
-0.0772235
-0.0760947
-0.0748636
-0.0735277
-0.0720835
-0.0705265
-0.0688514
-0.0670516
-0.0651193
-0.063046
-0.0608227
-0.0584401
-0.0558905
-0.0531685
-0.0502734
-0.0472116
-0.0439998
-0.0406676
-0.0372602
-0.0338399
-0.0304851
-0.0272863
-0.024339
-0.0217327
-0.0195392
-0.0178013
-0.0165256
-0.015682
-0.0152101
-0.015031
-0.0150609
-0.0152222
-0.0154508
-0.0156982
-0.0159297
-0.0161295
-0.0163027
-0.0854398
-0.0853041
-0.0850692
-0.0847356
-0.084304
-0.0837749
-0.0831487
-0.0824258
-0.0816062
-0.0806898
-0.0796761
-0.0785644
-0.0773532
-0.0760406
-0.0746236
-0.0730985
-0.0714606
-0.0697038
-0.0678207
-0.0658029
-0.0636407
-0.0613238
-0.0588423
-0.0561873
-0.0533531
-0.0503396
-0.0471552
-0.0438203
-0.0403706
-0.0368596
-0.0333602
-0.0299618
-0.0267653
-0.0238732
-0.0213763
-0.0193401
-0.0177936
-0.0167242
-0.0160814
-0.0157869
-0.0157502
-0.0158827
-0.0161085
-0.0163686
-0.0166198
-0.0168423
-0.0170418
-0.0876947
-0.0875644
-0.0873353
-0.0870079
-0.0865829
-0.0860609
-0.0854424
-0.0847279
-0.0839176
-0.0830117
-0.0820101
-0.0809122
-0.0797173
-0.0784238
-0.0770296
-0.0755316
-0.0739259
-0.072207
-0.0703684
-0.068402
-0.0662983
-0.0640465
-0.0616353
-0.0590534
-0.0562914
-0.0533436
-0.0502111
-0.0469052
-0.0434514
-0.0398932
-0.0362945
-0.0327401
-0.0293319
-0.0261805
-0.0233931
-0.0210571
-0.0192261
-0.0179095
-0.0170713
-0.0166388
-0.0165175
-0.0166091
-0.0168252
-0.0170948
-0.0173651
-0.0176112
-0.0178391
-0.0898759
-0.0898498
-0.0897245
-0.0895006
-0.0891787
-0.0887595
-0.0882437
-0.0876317
-0.0869242
-0.0861215
-0.0852241
-0.0842321
-0.0831454
-0.0819636
-0.0806857
-0.0793102
-0.0778349
-0.0762564
-0.0745704
-0.0727711
-0.070851
-0.0688013
-0.0666114
-0.0642694
-0.0617626
-0.0590788
-0.0562081
-0.0531453
-0.0498935
-0.0464682
-0.0429018
-0.0392478
-0.0355826
-0.0320045
-0.028628
-0.0255721
-0.0229444
-0.0208232
-0.0192429
-0.0181874
-0.0175944
-0.0173696
-0.0174066
-0.0176047
-0.0178798
-0.018168
-0.0184383
-0.0186964
-0.091929
-0.0919073
-0.0917867
-0.0915677
-0.0912508
-0.0908369
-0.0903264
-0.08972
-0.0890184
-0.0882221
-0.0873317
-0.0863475
-0.0852698
-0.0840985
-0.0828332
-0.081473
-0.0800163
-0.0784606
-0.0768024
-0.075037
-0.0731578
-0.0711569
-0.0690242
-0.0667479
-0.0643148
-0.0617111
-0.0589237
-0.0559424
-0.0527633
-0.0493926
-0.0458519
-0.0421826
-0.0384506
-0.0347469
-0.0311849
-0.0278907
-0.0249882
-0.0225795
-0.0207257
-0.0194347
-0.01866
-0.0183123
-0.0182799
-0.0184505
-0.018726
-0.0190304
-0.0193249
-0.019615
-0.0933406
-0.0936225
-0.0938042
-0.0938862
-0.0938688
-0.0937526
-0.0935381
-0.0932259
-0.0928167
-0.092311
-0.0917096
-0.0910131
-0.0902222
-0.0893376
-0.0883599
-0.0872896
-0.0861268
-0.0848717
-0.0835239
-0.0820823
-0.0805455
-0.0789106
-0.077174
-0.0753303
-0.0733724
-0.0712913
-0.0690759
-0.066713
-0.064188
-0.0614858
-0.0585927
-0.0554989
-0.0522027
-0.0487151
-0.0450658
-0.0413081
-0.0375229
-0.0338179
-0.0303216
-0.0271695
-0.0244845
-0.0223547
-0.0208151
-0.0198402
-0.0193506
-0.0192331
-0.0193653
-0.0196354
-0.0199534
-0.0202721
-0.0205957
-0.0951912
-0.0954766
-0.0956621
-0.095748
-0.0957347
-0.0956227
-0.0954125
-0.0951047
-0.0946998
-0.0941985
-0.0936016
-0.0929097
-0.0921236
-0.091244
-0.0902718
-0.0892075
-0.0880518
-0.086805
-0.0854672
-0.0840381
-0.0825167
-0.0809013
-0.079189
-0.0773756
-0.0754552
-0.0734199
-0.0712596
-0.0689618
-0.0665118
-0.0638937
-0.0610913
-0.0580903
-0.0548823
-0.0514692
-0.047869
-0.0441223
-0.0402974
-0.0364929
-0.0328347
-0.0294647
-0.0265227
-0.0241223
-0.0223272
-0.0211369
-0.0204876
-0.0202692
-0.0203516
-0.0206093
-0.0209378
-0.02128
-0.0216384
-0.0969468
-0.0972356
-0.0974247
-0.0975144
-0.097505
-0.0973971
-0.0971909
-0.0968872
-0.0964864
-0.0959893
-0.0953965
-0.0947088
-0.093927
-0.0930519
-0.0920844
-0.0910253
-0.0898755
-0.0886356
-0.0873061
-0.0858872
-0.0843786
-0.0827793
-0.0810873
-0.0792997
-0.0774116
-0.0754164
-0.0733053
-0.0710667
-0.0686868
-0.0661493
-0.0634365
-0.0605315
-0.0574204
-0.0540973
-0.0505695
-0.046865
-0.0430384
-0.0391766
-0.0353983
-0.031847
-0.0286744
-0.0260164
-0.0239653
-0.0225492
-0.0217249
-0.0213901
-0.0214105
-0.0216482
-0.0219833
-0.022348
-0.022742
-0.0986071
-0.0988992
-0.0990918
-0.0991851
-0.0991794
-0.0990753
-0.098873
-0.0985731
-0.0981762
-0.097683
-0.097094
-0.0964102
-0.0956324
-0.0947614
-0.0937982
-0.0927438
-0.0915991
-0.0903651
-0.0890426
-0.0876322
-0.0861342
-0.0845483
-0.0828734
-0.0811075
-0.079247
-0.0772867
-0.0752189
-0.0730336
-0.0707178
-0.0682558
-0.0656296
-0.0628203
-0.0598103
-0.0565872
-0.0531493
-0.0495124
-0.0457175
-0.0418376
-0.037981
-0.0342877
-0.0309163
-0.0280205
-0.0257201
-0.0240731
-0.0230613
-0.0225958
-0.0225422
-0.0227516
-0.0230889
-0.0234744
-0.0239047
-0.100171
-0.100467
-0.100663
-0.100759
-0.100757
-0.100657
-0.100458
-0.100162
-0.0997685
-0.0992789
-0.0986936
-0.0980135
-0.0972394
-0.0963722
-0.095413
-0.0943628
-0.0932228
-0.091994
-0.0906775
-0.0892744
-0.0877854
-0.0862107
-0.0845502
-0.0828027
-0.0809658
-0.0790355
-0.0770056
-0.0748676
-0.0726098
-0.0702175
-0.0676731
-0.0649567
-0.0620485
-0.058931
-0.0555951
-0.0520456
-0.0483101
-0.0444473
-0.0405523
-0.0367575
-0.0332227
-0.030115
-0.0275784
-0.0257011
-0.0244934
-0.0238849
-0.0237453
-0.0239177
-0.0242523
-0.0246566
-0.0251233
-0.101639
-0.101937
-0.102136
-0.102236
-0.102238
-0.10214
-0.101945
-0.101652
-0.101262
-0.100776
-0.100194
-0.0995178
-0.0987473
-0.0978837
-0.0969283
-0.095882
-0.0947462
-0.0935221
-0.0922111
-0.0908143
-0.089333
-0.087768
-0.0861197
-0.0843879
-0.0825711
-0.0806666
-0.0786698
-0.0765735
-0.0743675
-0.0720387
-0.0695703
-0.0669425
-0.064134
-0.0611241
-0.0578974
-0.0544497
-0.0507961
-0.0469807
-0.043084
-0.0392271
-0.0355666
-0.0322774
-0.0295236
-0.0274226
-0.026015
-0.0252534
-0.0250169
-0.0251437
-0.0254702
-0.0258908
-0.0263937
-0.10301
-0.103311
-0.103512
-0.103615
-0.103619
-0.103525
-0.103333
-0.103043
-0.102657
-0.102174
-0.101595
-0.100922
-0.100155
-0.0992949
-0.098343
-0.0973005
-0.0961686
-0.0949489
-0.0936428
-0.0922518
-0.0907773
-0.0892207
-0.0875829
-0.0858645
-0.084065
-0.0821829
-0.0802147
-0.0781549
-0.0759952
-0.0737236
-0.071325
-0.0687802
-0.0660675
-0.0631642
-0.0600502
-0.0567138
-0.0531592
-0.0494162
-0.0455503
-0.0416689
-0.0379207
-0.0344835
-0.0315365
-0.0292237
-0.027617
-0.0266955
-0.0263524
-0.0264252
-0.0267378
-0.0271719
-0.0277102
-0.104282
-0.104585
-0.10479
-0.104895
-0.104902
-0.104811
-0.104622
-0.104335
-0.103951
-0.103471
-0.102896
-0.102225
-0.101461
-0.100605
-0.0996561
-0.0986171
-0.0974891
-0.0962735
-0.0949719
-0.0935861
-0.0921177
-0.0905685
-0.08894
-0.0872333
-0.0854487
-0.0835859
-0.0816426
-0.0796149
-0.077496
-0.0752758
-0.0729406
-0.0704727
-0.0678506
-0.0650507
-0.0620498
-0.0588302
-0.0553866
-0.0517361
-0.0479288
-0.044057
-0.0402583
-0.0367081
-0.0335958
-0.0310882
-0.0292877
-0.0282029
-0.0277455
-0.0277563
-0.0280494
-0.0284936
-0.0290663
-0.105455
-0.105761
-0.105968
-0.106076
-0.106085
-0.105996
-0.105809
-0.105525
-0.105144
-0.104667
-0.104094
-0.103427
-0.102666
-0.101812
-0.100867
-0.0998309
-0.0987064
-0.0974946
-0.0961973
-0.0948163
-0.0933535
-0.091811
-0.0901906
-0.0884941
-0.0867226
-0.0848766
-0.0829551
-0.0809554
-0.0788725
-0.0766981
-0.0744203
-0.0720229
-0.0694854
-0.0667843
-0.0638944
-0.0607935
-0.0574688
-0.0539259
-0.0502002
-0.0463681
-0.0425538
-0.0389258
-0.0356786
-0.0329973
-0.0310131
-0.0297652
-0.0291879
-0.0291295
-0.0293974
-0.0298485
-0.0304538
-0.106528
-0.106836
-0.107045
-0.107155
-0.107167
-0.10708
-0.106896
-0.106614
-0.106235
-0.105761
-0.10519
-0.104525
-0.103767
-0.102916
-0.101973
-0.100941
-0.0998193
-0.0986111
-0.0973177
-0.0959411
-0.0944834
-0.0929469
-0.0913339
-0.0896464
-0.0878864
-0.0860551
-0.0841526
-0.0821775
-0.0801264
-0.0779928
-0.0757665
-0.0734333
-0.0709742
-0.0683662
-0.0655834
-0.0626006
-0.0593988
-0.055974
-0.0523482
-0.0485817
-0.0447836
-0.041112
-0.0377616
-0.0349309
-0.032777
-0.0313698
-0.0306695
-0.0305362
-0.0307735
-0.0312277
-0.0318638
-0.107501
-0.107811
-0.108022
-0.108134
-0.108148
-0.108063
-0.107881
-0.107601
-0.107224
-0.106751
-0.106183
-0.10552
-0.104764
-0.103915
-0.102975
-0.101945
-0.100827
-0.0996217
-0.0983319
-0.0969593
-0.0955062
-0.0939751
-0.0923686
-0.0906893
-0.0889394
-0.087121
-0.0852351
-0.0832817
-0.0812586
-0.0791612
-0.0769811
-0.074706
-0.0723189
-0.0697977
-0.0671169
-0.0642494
-0.0611717
-0.0578717
-0.0543593
-0.0506798
-0.046926
-0.0432431
-0.0398213
-0.0368678
-0.0345615
-0.0330024
-0.0321786
-0.0319658
-0.0321676
-0.0326214
-0.0332859
-0.108374
-0.108685
-0.108898
-0.109012
-0.109027
-0.108944
-0.108763
-0.108485
-0.108109
-0.107638
-0.107072
-0.106411
-0.105656
-0.104809
-0.103871
-0.102843
-0.101728
-0.100525
-0.0992385
-0.0978694
-0.0964205
-0.0948942
-0.0932935
-0.0916213
-0.0898803
-0.0880733
-0.0862021
-0.0842677
-0.0822694
-0.080204
-0.0780651
-0.0758426
-0.0735211
-0.0710804
-0.0684956
-0.0657391
-0.0627841
-0.0596121
-0.0562228
-0.0526472
-0.0489618
-0.045297
-0.0418349
-0.0387863
-0.0363476
-0.0346471
-0.0337018
-0.0334067
-0.0335688
-0.0340186
-0.0347088
-0.109145
-0.109458
-0.109672
-0.109787
-0.109804
-0.109722
-0.109542
-0.109265
-0.108891
-0.108421
-0.107856
-0.107196
-0.106443
-0.105597
-0.104661
-0.103635
-0.102521
-0.101321
-0.100036
-0.0986703
-0.0972248
-0.0957027
-0.0941071
-0.092441
-0.0907079
-0.0889108
-0.0870525
-0.0851348
-0.0831583
-0.0811213
-0.0790192
-0.0768438
-0.0745819
-0.0722153
-0.0697202
-0.0670692
-0.0642338
-0.0611904
-0.05793
-0.0544711
-0.0508742
-0.0472537
-0.0437806
-0.0406647
-0.0381156
-0.0362868
-0.0352246
-0.034846
-0.034965
-0.0354072
-0.0361204
-0.109814
-0.110128
-0.110344
-0.11046
-0.110478
-0.110398
-0.110219
-0.109943
-0.109569
-0.1091
-0.108535
-0.107876
-0.107124
-0.106279
-0.105343
-0.104318
-0.103206
-0.102007
-0.100725
-0.0993607
-0.097918
-0.0963992
-0.0948078
-0.093147
-0.0914206
-0.0896322
-0.087785
-0.0858819
-0.0839245
-0.0819126
-0.0798432
-0.0777101
-0.0755021
-0.0732032
-0.0707913
-0.0682397
-0.0655192
-0.0626027
-0.0594742
-0.056141
-0.0526485
-0.049095
-0.0456378
-0.0424819
-0.0398455
-0.0379038
-0.0367316
-0.0362699
-0.0363431
-0.0367747
-0.0375078
-0.110381
-0.110697
-0.110914
-0.111032
-0.11105
-0.11097
-0.110792
-0.110516
-0.110144
-0.109674
-0.10911
-0.108451
-0.107698
-0.106854
-0.105918
-0.104894
-0.103782
-0.102584
-0.101302
-0.0999396
-0.0984987
-0.0969824
-0.0953942
-0.0937377
-0.0920168
-0.0902356
-0.0883981
-0.0865076
-0.0845669
-0.082577
-0.0805366
-0.0784412
-0.0762819
-0.0740445
-0.0717092
-0.0692506
-0.0666394
-0.0638464
-0.0608501
-0.0576481
-0.0542723
-0.0508048
-0.0473877
-0.0442178
-0.0415174
-0.0394796
-0.0382063
-0.0376638
-0.0376896
-0.0381078
-0.0388578
-0.110847
-0.111164
-0.111382
-0.1115
-0.11152
-0.11144
-0.111263
-0.110987
-0.110614
-0.110144
-0.109579
-0.10892
-0.108167
-0.107322
-0.106386
-0.10536
-0.104248
-0.103049
-0.101768
-0.100406
-0.0989658
-0.097451
-0.0958649
-0.0942115
-0.092495
-0.0907197
-0.0888901
-0.0870104
-0.0850841
-0.0831134
-0.0810985
-0.0790366
-0.0769208
-0.0747392
-0.0724742
-0.0701018
-0.0675937
-0.0649194
-0.0620534
-0.0589855
-0.0557352
-0.0523689
-0.049013
-0.0458534
-0.043112
-0.0409961
-0.0396323
-0.0390125
-0.0389903
-0.0393927
-0.0401564
-0.11121
-0.111529
-0.111748
-0.111867
-0.111887
-0.111808
-0.11163
-0.111354
-0.11098
-0.11051
-0.109944
-0.109283
-0.108529
-0.107682
-0.106745
-0.105718
-0.104604
-0.103404
-0.102122
-0.100759
-0.0993186
-0.097804
-0.0962188
-0.0945672
-0.0928535
-0.0910826
-0.0892593
-0.0873884
-0.0854743
-0.0835202
-0.0815275
-0.0794952
-0.0774183
-0.0752871
-0.0730859
-0.0707932
-0.0683815
-0.0658202
-0.0630812
-0.0601475
-0.0570283
-0.0537752
-0.0504985
-0.0473709
-0.0446108
-0.0424351
-0.0409926
-0.0403006
-0.0402307
-0.0406154
-0.04139
-0.111472
-0.111792
-0.112012
-0.112132
-0.112152
-0.112073
-0.111895
-0.111618
-0.111243
-0.110772
-0.110204
-0.109541
-0.108785
-0.107936
-0.106996
-0.105966
-0.10485
-0.103648
-0.102363
-0.100998
-0.0995562
-0.0980404
-0.0964548
-0.0948034
-0.0930911
-0.091323
-0.0895042
-0.0876402
-0.085736
-0.0837958
-0.0818223
-0.0798159
-0.0777734
-0.0756873
-0.0735441
-0.0713243
-0.0690022
-0.0665477
-0.0639307
-0.0611297
-0.0581444
-0.0550133
-0.0518304
-0.0487544
-0.0459963
-0.0437792
-0.0422707
-0.0415128
-0.0413965
-0.0417621
-0.0425446
)
;

boundaryField
{
    movingWall
    {
        type            zeroGradient;
    }
    fixedWalls
    {
        type            zeroGradient;
    }
    frontAndBack
    {
        type            empty;
    }
    procBoundary6to1
    {
        type            processor;
        value           nonuniform List<scalar> 
26
(
-0.0724963
-0.0723218
-0.0720426
-0.0716591
-0.0711715
-0.0753908
-0.0780868
-0.0806615
-0.0831224
-0.0854754
-0.0877255
-0.0877255
-0.0898022
-0.0913947
-0.0916732
-0.0918511
-0.0918511
-0.0929579
-0.0948055
-0.096558
-0.0982152
-0.0997766
-0.101242
-0.102609
-0.103879
-0.10505
)
;
    }
    procBoundary6to3
    {
        type            processor;
        value           nonuniform List<scalar> 9(-0.106121 -0.107093 -0.107963 -0.108733 -0.1094 -0.109966 -0.11043 -0.110792 -0.111052);
    }
    procBoundary6to4
    {
        type            processor;
        value           nonuniform List<scalar> 
30
(
-0.0981596
-0.0965718
-0.0949192
-0.0932066
-0.0914393
-0.0896232
-0.0877641
-0.0858675
-0.0839386
-0.0819813
-0.0799972
-0.077985
-0.0759389
-0.0738479
-0.0716947
-0.0694553
-0.0671008
-0.0646002
-0.0619284
-0.0590776
-0.0560742
-0.052997
-0.0499891
-0.0472524
-0.0450118
-0.0434505
-0.0426338
-0.0424732
-0.0428188
-0.0436067
)
;
    }
    procBoundary6to5
    {
        type            processor;
        value           nonuniform List<scalar> 
21
(
-0.111632
-0.111953
-0.112174
-0.112295
-0.112315
-0.112236
-0.112057
-0.111779
-0.111403
-0.11093
-0.11036
-0.109694
-0.108935
-0.108082
-0.107139
-0.106106
-0.104986
-0.10378
-0.102492
-0.101123
-0.0996781
)
;
    }
    procBoundary6to7
    {
        type            processor;
        value           nonuniform List<scalar> 
45
(
-0.0734823
-0.0734823
-0.0513981
-0.048854
-0.0461622
-0.0433335
-0.0403866
-0.0373507
-0.0342659
-0.0311844
-0.0281689
-0.0252898
-0.0226201
-0.0202283
-0.0181707
-0.0164841
-0.0151806
-0.0142462
-0.0136435
-0.0133186
-0.0132091
-0.0132525
-0.0133929
-0.0135845
-0.0137925
-0.0139917
-0.0141647
-0.0143036
-0.0144107
-0.075583
-0.075583
-0.0748222
-0.07396
-0.0729955
-0.0719271
-0.0707527
-0.0694694
-0.0680737
-0.0665613
-0.0649267
-0.0631642
-0.0612668
-0.0592277
-0.0570399
-0.0570399
)
;
    }
}


// ************************************************************************* //
