/*--------------------------------*- C++ -*----------------------------------*\
  =========                 |
  \\      /  F ield         | OpenFOAM: The Open Source CFD Toolbox
   \\    /   O peration     | Website:  https://openfoam.org
    \\  /    A nd           | Version:  9
     \\/     M anipulation  |
\*---------------------------------------------------------------------------*/
FoamFile
{
    format      ascii;
    class       volScalarField;
    location    "2.75";
    object      p;
}
// * * * * * * * * * * * * * * * * * * * * * * * * * * * * * * * * * * * * * //

dimensions      [0 2 -2 0 0 0 0];

internalField   nonuniform List<scalar> 
1250
(
-0.0153478
-0.0155043
-0.0166706
-0.0168003
-0.0169715
-0.0172338
-0.0176258
-0.0181722
-0.0188924
-0.0198019
-0.0209135
-0.0222374
-0.0237809
-0.0255473
-0.0275349
-0.0297366
-0.0321394
-0.0347248
-0.0374693
-0.0403457
-0.043324
-0.0463727
-0.0494606
-0.0525576
-0.0556361
-0.0586717
-0.0616439
-0.0645361
-0.0673355
-0.0700332
-0.0726232
-0.0751024
-0.0774694
-0.0797246
-0.0818692
-0.0839051
-0.0179711
-0.0180736
-0.0182321
-0.0184905
-0.0188844
-0.0194379
-0.0201693
-0.0210933
-0.0222215
-0.0235636
-0.025126
-0.0269112
-0.0289169
-0.0311349
-0.0335518
-0.0361482
-0.0389002
-0.0417802
-0.0447578
-0.0478018
-0.0508809
-0.0539656
-0.0570288
-0.0600468
-0.0629998
-0.0658719
-0.0686512
-0.0713291
-0.0739005
-0.0763623
-0.0787137
-0.0809552
-0.083088
-0.0851142
-0.0870355
-0.0888541
-0.0905714
-0.092189
-0.0937078
-0.0951284
-0.0964511
-0.097676
-0.0988029
-0.0192396
-0.0193145
-0.0194592
-0.0197123
-0.0201063
-0.0206646
-0.0214045
-0.0223398
-0.0234813
-0.0248376
-0.0264144
-0.0282136
-0.030232
-0.032461
-0.0348863
-0.0374882
-0.0402424
-0.0431209
-0.0460934
-0.0491287
-0.0521958
-0.0552656
-0.0583117
-0.0613109
-0.0642441
-0.0670962
-0.0698556
-0.0725146
-0.0750681
-0.0775138
-0.0798508
-0.0820797
-0.084202
-0.0862194
-0.0881339
-0.0899472
-0.0916609
-0.0932761
-0.0947937
-0.096214
-0.0975374
-0.0987635
-0.0998922
-0.100923
-0.101855
-0.102688
-0.103421
-0.104054
-0.104586
-0.0204677
-0.0205136
-0.020644
-0.0208905
-0.0212826
-0.0218433
-0.0225892
-0.0235328
-0.024684
-0.0260507
-0.0276377
-0.0294462
-0.0314725
-0.0337073
-0.036136
-0.0387384
-0.04149
-0.0443627
-0.0473262
-0.0503494
-0.0534018
-0.0564548
-0.0594823
-0.062462
-0.0653753
-0.0682075
-0.0709478
-0.0735887
-0.0761256
-0.0785562
-0.08088
-0.0830976
-0.0852105
-0.0872202
-0.0891287
-0.0909376
-0.0926482
-0.0942616
-0.0957784
-0.0971988
-0.098523
-0.0997506
-0.100881
-0.101914
-0.102848
-0.103684
-0.10442
-0.105055
-0.10559
-0.0216455
-0.0216637
-0.0217789
-0.0220169
-0.0224052
-0.0229661
-0.0237152
-0.0246641
-0.0258218
-0.0271952
-0.0287884
-0.0306019
-0.0326314
-0.0348674
-0.0372948
-0.0398932
-0.0426379
-0.0455009
-0.048452
-0.0514604
-0.054496
-0.0575306
-0.0605387
-0.0634985
-0.0663919
-0.0692048
-0.0719267
-0.0745506
-0.077072
-0.0794889
-0.0818007
-0.0840082
-0.0861127
-0.0881158
-0.0900191
-0.0918243
-0.0935325
-0.0951445
-0.0966609
-0.0980817
-0.0994069
-0.100636
-0.101768
-0.102803
-0.10374
-0.104578
-0.105316
-0.105954
-0.106491
-0.0227661
-0.0227566
-0.0228564
-0.0230848
-0.023467
-0.0240257
-0.0247755
-0.0257268
-0.0268878
-0.0282643
-0.0298598
-0.0316742
-0.0337028
-0.0359356
-0.0383573
-0.0409476
-0.0436817
-0.0465316
-0.0494674
-0.0524587
-0.0554758
-0.0584908
-0.0614789
-0.0644187
-0.0672926
-0.0700869
-0.0727914
-0.0753994
-0.0779065
-0.0803109
-0.082612
-0.0848106
-0.0869078
-0.0889051
-0.0908042
-0.0926064
-0.0943127
-0.0959239
-0.0974402
-0.0988616
-0.100188
-0.101419
-0.102553
-0.10359
-0.104529
-0.10537
-0.10611
-0.106751
-0.10729
-0.0238232
-0.0237865
-0.0238698
-0.0240872
-0.0244621
-0.0250161
-0.0257639
-0.0267147
-0.0278757
-0.029252
-0.0308462
-0.0326577
-0.0346813
-0.036907
-0.0393192
-0.0418977
-0.0446177
-0.0474515
-0.0503695
-0.0533417
-0.0563388
-0.0593334
-0.0623012
-0.0652212
-0.0680761
-0.0708526
-0.0735408
-0.076134
-0.0786282
-0.0810214
-0.083313
-0.0855038
-0.0875947
-0.0895873
-0.0914829
-0.0932828
-0.0949878
-0.0965986
-0.0981152
-0.0995376
-0.100865
-0.102098
-0.103234
-0.104274
-0.105215
-0.106058
-0.106801
-0.107444
-0.107985
-0.0248111
-0.024748
-0.0248143
-0.0250194
-0.0253848
-0.0259322
-0.0266753
-0.0276227
-0.0287807
-0.0301534
-0.0317429
-0.0335478
-0.0355628
-0.0377776
-0.0401767
-0.0427399
-0.0454427
-0.0482578
-0.0511558
-0.0541073
-0.0570832
-0.0600569
-0.0630042
-0.0659046
-0.0687412
-0.0715008
-0.0741738
-0.0767536
-0.0792361
-0.0816193
-0.0839027
-0.0860868
-0.0881725
-0.0901613
-0.0920543
-0.0938525
-0.0955568
-0.0971676
-0.098685
-0.100109
-0.101438
-0.102672
-0.103811
-0.104853
-0.105797
-0.106642
-0.107387
-0.108032
-0.108576
-0.0257251
-0.0256366
-0.0256856
-0.0258771
-0.0262313
-0.0267695
-0.0275054
-0.0284466
-0.0295986
-0.0309646
-0.032546
-0.0343409
-0.0363437
-0.0385442
-0.0409268
-0.0434715
-0.0461543
-0.0489482
-0.0518244
-0.0547536
-0.0577075
-0.0606597
-0.0635865
-0.0664678
-0.0692867
-0.0720305
-0.0746894
-0.077257
-0.079729
-0.0821036
-0.08438
-0.0865585
-0.0886401
-0.090626
-0.0925171
-0.0943145
-0.0960187
-0.09763
-0.0991485
-0.100574
-0.101905
-0.103142
-0.104283
-0.105327
-0.106273
-0.107121
-0.107869
-0.108516
-0.109062
-0.0265617
-0.026449
-0.0264805
-0.0266574
-0.0269984
-0.0275253
-0.0282512
-0.0291835
-0.0303264
-0.0316826
-0.0332526
-0.0350342
-0.0370214
-0.0392043
-0.0415672
-0.0440906
-0.0467508
-0.0495212
-0.0523736
-0.0552792
-0.0582103
-0.0611406
-0.0640471
-0.0669095
-0.0697116
-0.0724405
-0.0750865
-0.077643
-0.0801059
-0.0824731
-0.0847437
-0.0869179
-0.0889964
-0.0909803
-0.0928704
-0.0946676
-0.0963724
-0.0979849
-0.099505
-0.100932
-0.102266
-0.103505
-0.104649
-0.105695
-0.106645
-0.107495
-0.108245
-0.108895
-0.109443
-0.0273183
-0.0271828
-0.0271967
-0.0273579
-0.0276841
-0.0281974
-0.0289108
-0.0298311
-0.030962
-0.0323053
-0.0338607
-0.0356258
-0.0375944
-0.0397563
-0.0420964
-0.0445956
-0.0472306
-0.0499754
-0.0528023
-0.0556832
-0.0585905
-0.0614987
-0.0643847
-0.0672289
-0.0700148
-0.0727298
-0.0753639
-0.0779106
-0.0803657
-0.0827267
-0.0849927
-0.0871637
-0.0892403
-0.0912232
-0.0931132
-0.0949111
-0.0966171
-0.0982313
-0.0997536
-0.101183
-0.10252
-0.103762
-0.104908
-0.105958
-0.10691
-0.107763
-0.108516
-0.109168
-0.109718
-0.0279935
-0.0278365
-0.027833
-0.0279777
-0.0282874
-0.0287847
-0.029483
-0.0303886
-0.0315044
-0.0328315
-0.0343693
-0.0361147
-0.0380614
-0.0401992
-0.0425136
-0.0449858
-0.0475931
-0.0503102
-0.0531099
-0.0559646
-0.0588474
-0.061733
-0.0645987
-0.0674249
-0.0701953
-0.0728971
-0.0755205
-0.0780586
-0.0805071
-0.0828632
-0.0851259
-0.0872949
-0.0893705
-0.0913535
-0.0932444
-0.0950437
-0.0967518
-0.0983685
-0.0998935
-0.101326
-0.102666
-0.103911
-0.105061
-0.106114
-0.0285867
-0.0284099
-0.0283891
-0.0285165
-0.0288081
-0.0292874
-0.0299679
-0.0308557
-0.0319533
-0.0332613
-0.0347781
-0.0365005
-0.0384221
-0.0405329
-0.0428186
-0.045261
-0.0478381
-0.0505253
-0.053296
-0.0561232
-0.0589805
-0.061843
-0.0646882
-0.0674967
-0.0702522
-0.0729416
-0.0755552
-0.0780859
-0.0805289
-0.0828814
-0.085142
-0.0873101
-0.0893861
-0.0913702
-0.0932629
-0.0950647
-0.0967756
-0.0983956
-0.0999241
-0.10136
-0.102704
-0.103953
-0.105107
-0.106163
-0.0290981
-0.0289032
-0.0288656
-0.028975
-0.0292472
-0.0297063
-0.0303663
-0.0312334
-0.0323097
-0.0335951
-0.0350878
-0.036784
-0.0386773
-0.0407578
-0.0430117
-0.0454215
-0.0479658
-0.0506208
-0.0533606
-0.0561588
-0.0589895
-0.0618282
-0.0646527
-0.0674436
-0.0701845
-0.0728623
-0.0754671
-0.0779913
-0.08043
-0.0827801
-0.0850398
-0.0872084
-0.0892857
-0.0912721
-0.0931679
-0.0949731
-0.0966879
-0.098312
-0.0998448
-0.101286
-0.102633
-0.103887
-0.105045
-0.106106
-0.029529
-0.0293179
-0.029264
-0.029355
-0.0296064
-0.0300432
-0.03068
-0.0315233
-0.0325751
-0.0338347
-0.0352999
-0.0369665
-0.0388281
-0.040875
-0.043094
-0.0454682
-0.047977
-0.0505973
-0.053304
-0.0560715
-0.0588744
-0.0616884
-0.0644917
-0.0672649
-0.0699915
-0.0726583
-0.0752549
-0.0777737
-0.0802092
-0.082558
-0.0848181
-0.0869883
-0.0890684
-0.0910584
-0.0929582
-0.0947681
-0.0964878
-0.098117
-0.099655
-0.101101
-0.102454
-0.103713
-0.104876
-0.105942
-0.0298814
-0.029656
-0.0295864
-0.0296587
-0.0298881
-0.0303006
-0.0309117
-0.0317282
-0.032752
-0.0339823
-0.0354164
-0.0370499
-0.0388764
-0.0408863
-0.0430671
-0.0454025
-0.0478728
-0.0504557
-0.0531271
-0.055862
-0.0586354
-0.0614237
-0.064205
-0.0669601
-0.0696725
-0.0723286
-0.0749177
-0.0774318
-0.0798652
-0.082214
-0.0844757
-0.0866489
-0.088733
-0.0907278
-0.0926331
-0.0944487
-0.0961745
-0.09781
-0.0993544
-0.100807
-0.102166
-0.103431
-0.1046
-0.105672
-0.0301579
-0.0299202
-0.0298357
-0.0298892
-0.0300956
-0.0304821
-0.0310648
-0.0318513
-0.0328437
-0.0340411
-0.0354405
-0.0370372
-0.0388248
-0.0407942
-0.0429332
-0.0452264
-0.047655
-0.0501977
-0.0528311
-0.0555309
-0.0582731
-0.0610341
-0.0637925
-0.066529
-0.0692269
-0.0718724
-0.0744545
-0.0769648
-0.079397
-0.0817467
-0.0840113
-0.0861888
-0.0882783
-0.0902793
-0.0921914
-0.0940142
-0.0957474
-0.0973904
-0.0989424
-0.100402
-0.101769
-0.103041
-0.104217
-0.105295
-0.0303618
-0.0301139
-0.0300155
-0.0300502
-0.0302329
-0.0305915
-0.0311433
-0.0318968
-0.0328543
-0.0340149
-0.0353756
-0.0369316
-0.0386765
-0.0406015
-0.042695
-0.0449423
-0.0473257
-0.0498248
-0.0524172
-0.0550796
-0.0577882
-0.0605202
-0.0632543
-0.0659712
-0.0686542
-0.071289
-0.0738644
-0.0763714
-0.0788032
-0.0811551
-0.0834237
-0.0856069
-0.0877032
-0.0897119
-0.0916323
-0.0934638
-0.0952059
-0.0968578
-0.0984187
-0.0998874
-0.101263
-0.102543
-0.103727
-0.104813
-0.0304971
-0.0302409
-0.0301297
-0.0301459
-0.0303042
-0.0306334
-0.031152
-0.0318692
-0.0327882
-0.0339082
-0.0352262
-0.0367373
-0.0384353
-0.0403117
-0.0423556
-0.0445531
-0.0468875
-0.0493394
-0.0518875
-0.0545093
-0.0571818
-0.0598827
-0.0625907
-0.0652868
-0.067954
-0.0705779
-0.0731466
-0.0756507
-0.0780829
-0.0804379
-0.0827118
-0.084902
-0.0870066
-0.0890246
-0.0909548
-0.0927966
-0.0945492
-0.0962117
-0.0977829
-0.0992619
-0.100647
-0.101937
-0.10313
-0.104225
-0.0305679
-0.0303056
-0.0301827
-0.0301808
-0.0303144
-0.0306129
-0.0310961
-0.031774
-0.0326507
-0.033726
-0.034997
-0.0364588
-0.0381055
-0.0399288
-0.0419187
-0.044062
-0.0463432
-0.048744
-0.0512441
-0.0538219
-0.0564553
-0.0591223
-0.0618023
-0.064476
-0.0671263
-0.0697386
-0.0723004
-0.0748018
-0.077235
-0.0795939
-0.0818743
-0.0840728
-0.0861874
-0.0882162
-0.0901581
-0.0920119
-0.0937767
-0.0954514
-0.0970349
-0.0985257
-0.0999224
-0.101223
-0.102427
-0.103532
-0.030579
-0.0303125
-0.0301793
-0.0301598
-0.0302686
-0.0305355
-0.030981
-0.0316167
-0.0324476
-0.033474
-0.0346934
-0.0361013
-0.0376918
-0.0394574
-0.0413885
-0.043473
-0.0456964
-0.0480416
-0.0504895
-0.0530195
-0.0556103
-0.0582405
-0.0608898
-0.0635391
-0.0661711
-0.0687707
-0.0713252
-0.0738239
-0.0762585
-0.0786222
-0.0809101
-0.0831184
-0.0852444
-0.0872858
-0.0892411
-0.0911089
-0.0928879
-0.0945768
-0.0961742
-0.0976787
-0.0990887
-0.100403
-0.101619
-0.102735
-0.0305352
-0.0302666
-0.0301243
-0.0300882
-0.0301723
-0.0304067
-0.0308129
-0.0314036
-0.0321849
-0.0331581
-0.0343212
-0.0356702
-0.0371996
-0.0389022
-0.0407694
-0.04279
-0.0449507
-0.0472355
-0.0496266
-0.0521045
-0.0546487
-0.0572387
-0.0598544
-0.0624768
-0.0650885
-0.0676742
-0.0702206
-0.0727164
-0.0751526
-0.0775218
-0.0798183
-0.0820377
-0.0841766
-0.0862325
-0.0882031
-0.0900869
-0.091882
-0.0935872
-0.0952006
-0.0967209
-0.0981461
-0.0994747
-0.100705
-0.101834
-0.0304416
-0.0301729
-0.030023
-0.0299712
-0.030031
-0.0302324
-0.0305977
-0.0311408
-0.031869
-0.0327847
-0.0338867
-0.0351716
-0.0366344
-0.0382687
-0.0400664
-0.0420176
-0.0441101
-0.0463293
-0.0486585
-0.0510795
-0.0535729
-0.0561186
-0.0586973
-0.0612899
-0.0638791
-0.0664492
-0.0689864
-0.0714788
-0.0739166
-0.0762918
-0.0785978
-0.0808296
-0.0829831
-0.0850552
-0.0870433
-0.0889451
-0.0907587
-0.0924823
-0.0941141
-0.0956522
-0.0970949
-0.0984401
-0.099686
-0.100831
-0.0303034
-0.0300364
-0.0298803
-0.0298141
-0.0298503
-0.0300186
-0.0303418
-0.0308348
-0.0315065
-0.0323604
-0.0333964
-0.0346118
-0.0360023
-0.0375623
-0.0392847
-0.0411606
-0.0431791
-0.045327
-0.0475889
-0.0499478
-0.0523854
-0.0548825
-0.0574202
-0.0599798
-0.0625438
-0.0650962
-0.0676228
-0.070111
-0.0725502
-0.0749316
-0.077248
-0.0794934
-0.0816631
-0.0837533
-0.0857608
-0.0876829
-0.0895173
-0.0912618
-0.0929143
-0.0944728
-0.0959351
-0.0972994
-0.0985634
-0.0997252
-0.0301258
-0.0298623
-0.0297015
-0.0296221
-0.0296356
-0.0297709
-0.0300512
-0.0304922
-0.0311042
-0.0318921
-0.032857
-0.0339972
-0.0353094
-0.0367889
-0.0384297
-0.0402241
-0.0421623
-0.0442327
-0.0464214
-0.0487126
-0.0510891
-0.0535328
-0.0560251
-0.0585479
-0.0610836
-0.063616
-0.0661301
-0.068613
-0.0710532
-0.073441
-0.0757684
-0.0780285
-0.080216
-0.0823261
-0.0843552
-0.0863
-0.0881576
-0.0899256
-0.0916013
-0.0931827
-0.0946673
-0.096053
-0.0973375
-0.0985187
-0.0299138
-0.0296555
-0.0294916
-0.0294004
-0.0293923
-0.0294953
-0.0297321
-0.0301194
-0.0306688
-0.0313865
-0.0322752
-0.0333345
-0.0345621
-0.0359547
-0.0375072
-0.0392133
-0.0410646
-0.043051
-0.0451601
-0.0473775
-0.0496872
-0.0520722
-0.0545145
-0.0569964
-0.0595002
-0.0620096
-0.0645093
-0.0669854
-0.0694258
-0.0718199
-0.0741588
-0.0764347
-0.0786414
-0.0807734
-0.0828262
-0.084796
-0.0866795
-0.0884735
-0.0901753
-0.0917822
-0.0932919
-0.0947016
-0.0960092
-0.0972122
-0.0296725
-0.0294209
-0.0292554
-0.029154
-0.0291257
-0.029197
-0.0293903
-0.0297227
-0.0302067
-0.0308505
-0.0316579
-0.0326304
-0.0337671
-0.0350658
-0.036523
-0.0381337
-0.0398911
-0.0417866
-0.0438093
-0.0459465
-0.0481834
-0.050504
-0.0528911
-0.0553275
-0.0577956
-0.0602789
-0.0627616
-0.0652292
-0.0676688
-0.0700689
-0.0724195
-0.0747121
-0.0769393
-0.0790949
-0.0811737
-0.083171
-0.0850828
-0.0869057
-0.0886364
-0.0902719
-0.0918094
-0.0932461
-0.0945795
-0.095807
-0.0294065
-0.0291632
-0.0289975
-0.0288875
-0.0288406
-0.0288814
-0.0290314
-0.0293079
-0.0297244
-0.0302904
-0.0310118
-0.0318915
-0.0329306
-0.0341284
-0.0354829
-0.0369908
-0.0386469
-0.0404442
-0.0423736
-0.0444238
-0.0465814
-0.0488316
-0.0511582
-0.0535441
-0.0559723
-0.058426
)
;

boundaryField
{
    movingWall
    {
        type            zeroGradient;
    }
    fixedWalls
    {
        type            zeroGradient;
    }
    frontAndBack
    {
        type            empty;
    }
    procBoundary3to0
    {
        type            processor;
        value           nonuniform List<scalar> 
29
(
-0.0140132
-0.0141955
-0.015687
-0.015687
-0.0159516
-0.0163398
-0.016877
-0.0175834
-0.0184754
-0.0195667
-0.0208683
-0.0223883
-0.0241307
-0.0260948
-0.0282742
-0.0306569
-0.0332252
-0.0359563
-0.0388236
-0.0417973
-0.0448463
-0.0479389
-0.051045
-0.0541363
-0.0571878
-0.0601781
-0.0630899
-0.0659096
-0.0686275
)
;
    }
    procBoundary3to1
    {
        type            processor;
        value           nonuniform List<scalar> 
23
(
-0.071237
-0.0737345
-0.0761183
-0.0783884
-0.080546
-0.0825928
-0.0858344
-0.0858344
-0.087659
-0.0893808
-0.0910013
-0.0925218
-0.0939429
-0.0952653
-0.0964891
-0.0976142
-0.0998313
-0.0998313
-0.100761
-0.101591
-0.102321
-0.102951
-0.103481
)
;
    }
    procBoundary3to2
    {
        type            processor;
        value           nonuniform List<scalar> 
45
(
-0.0608889
-0.063346
-0.0657835
-0.068189
-0.0705514
-0.0728613
-0.0751103
-0.0772913
-0.0793981
-0.0814253
-0.0833683
-0.0852229
-0.0869855
-0.0886525
-0.0902208
-0.0916875
-0.0930496
-0.0943044
-0.0291205
-0.0288867
-0.0287223
-0.0286054
-0.0285415
-0.0285532
-0.0286605
-0.0288806
-0.0292277
-0.0297127
-0.0303433
-0.0311244
-0.0320591
-0.0331486
-0.0343928
-0.0357902
-0.0373373
-0.0390289
-0.0408576
-0.0428137
-0.0448855
-0.0470591
-0.0493193
-0.0516498
-0.0540335
-0.0608889
-0.0564537
)
;
    }
    procBoundary3to5
    {
        type            processor;
        value           nonuniform List<scalar> 
21
(
-0.107069
-0.107925
-0.108681
-0.109336
-0.109888
-0.107069
-0.107122
-0.107069
-0.10691
-0.106645
-0.106275
-0.105799
-0.105219
-0.104536
-0.10375
-0.102861
-0.101872
-0.100783
-0.0995943
-0.0983084
-0.0969262
)
;
    }
    procBoundary3to6
    {
        type            processor;
        value           nonuniform List<scalar> 9(-0.105016 -0.106023 -0.106927 -0.107728 -0.108425 -0.109018 -0.109506 -0.109888 -0.110166);
    }
}


// ************************************************************************* //
