/*--------------------------------*- C++ -*----------------------------------*\
  =========                 |
  \\      /  F ield         | OpenFOAM: The Open Source CFD Toolbox
   \\    /   O peration     | Website:  https://openfoam.org
    \\  /    A nd           | Version:  9
     \\/     M anipulation  |
\*---------------------------------------------------------------------------*/
FoamFile
{
    format      ascii;
    class       surfaceScalarField;
    location    "2.75";
    object      phi;
}
// * * * * * * * * * * * * * * * * * * * * * * * * * * * * * * * * * * * * * //

dimensions      [0 3 -1 0 0 0 0];

internalField   nonuniform List<scalar> 
2422
(
-5.56215e-09
3.49168e-07
9.17579e-07
-4.06572e-09
3.53234e-07
-1.83748e-08
9.31889e-07
-4.36782e-08
1.39497e-06
-7.92503e-08
1.75957e-06
-1.23316e-07
2.04624e-06
-1.73637e-07
2.2759e-06
-2.28001e-07
2.46667e-06
-2.84511e-07
2.63202e-06
-3.41683e-07
2.78039e-06
-3.98416e-07
2.91585e-06
-4.53896e-07
3.03932e-06
-5.075e-07
3.14985e-06
-5.58728e-07
3.24569e-06
-6.07167e-07
3.32492e-06
-6.52472e-07
3.38592e-06
-6.94374e-07
3.42754e-06
-7.32684e-07
3.44918e-06
-7.67305e-07
3.45086e-06
-7.98236e-07
3.43313e-06
-8.25571e-07
3.39706e-06
-8.49495e-07
3.34415e-06
-8.70271e-07
3.27625e-06
-8.88226e-07
3.19542e-06
-9.03732e-07
3.10385e-06
-9.17182e-07
3.00372e-06
-9.28974e-07
2.89712e-06
-9.39488e-07
2.78597e-06
-9.49077e-07
2.67194e-06
-9.5805e-07
2.55641e-06
-9.66666e-07
2.44048e-06
-9.75135e-07
2.32496e-06
-9.83615e-07
2.21041e-06
-9.92218e-07
2.09716e-06
1.98535e-06
-2.56718e-09
3.55801e-07
-1.33479e-08
9.42669e-07
-3.39246e-08
1.41555e-06
-6.42095e-08
1.78985e-06
-1.02837e-07
2.08487e-06
-1.4778e-07
2.32084e-06
-1.96894e-07
2.51578e-06
-2.48272e-07
2.6834e-06
-3.00398e-07
2.83252e-06
-3.52146e-07
2.9676e-06
-4.02698e-07
3.08987e-06
-4.51455e-07
3.19861e-06
-4.97956e-07
3.29219e-06
-5.41832e-07
3.3688e-06
-5.82792e-07
3.42688e-06
-6.20616e-07
3.46536e-06
-6.5516e-07
3.48373e-06
-6.86364e-07
3.48207e-06
-7.14253e-07
3.46102e-06
-7.38939e-07
3.42175e-06
-7.6061e-07
3.36583e-06
-7.79523e-07
3.29516e-06
-7.95988e-07
3.21188e-06
-8.10346e-07
3.1182e-06
-8.22957e-07
3.01633e-06
-8.34175e-07
2.90834e-06
-8.44338e-07
2.79614e-06
-8.53751e-07
2.68135e-06
-8.6268e-07
2.56534e-06
-8.71347e-07
2.44914e-06
-8.79923e-07
2.33354e-06
-8.88539e-07
2.21903e-06
-8.97282e-07
2.1059e-06
-9.06205e-07
1.99427e-06
-9.15329e-07
1.88409e-06
-9.24656e-07
1.77524e-06
-9.34171e-07
1.66754e-06
-9.43848e-07
1.56077e-06
-9.53655e-07
1.45469e-06
-9.63561e-07
1.34911e-06
-9.73533e-07
1.24382e-06
-9.83546e-07
1.13868e-06
1.03353e-06
-1.09533e-09
3.56896e-07
-8.31088e-09
9.49885e-07
-2.40738e-08
1.43131e-06
-4.89289e-08
1.81471e-06
-8.19443e-08
2.11789e-06
-1.21331e-07
2.36023e-06
-1.65037e-07
2.55948e-06
-2.11159e-07
2.72952e-06
-2.58153e-07
2.87952e-06
-3.04868e-07
3.01431e-06
-3.50483e-07
3.13548e-06
-3.94415e-07
3.24254e-06
-4.36238e-07
3.33401e-06
-4.75631e-07
3.40819e-06
-5.12349e-07
3.4636e-06
-5.46219e-07
3.49923e-06
-5.77138e-07
3.51465e-06
-6.05077e-07
3.51e-06
-6.30084e-07
3.48603e-06
-6.5228e-07
3.44394e-06
-6.71853e-07
3.3854e-06
-6.89048e-07
3.31236e-06
-7.04149e-07
3.22699e-06
-7.17467e-07
3.13152e-06
-7.29321e-07
3.02818e-06
-7.40023e-07
2.91904e-06
-7.49866e-07
2.80598e-06
-7.59111e-07
2.6906e-06
-7.67981e-07
2.57421e-06
-7.76661e-07
2.45782e-06
-7.85291e-07
2.34217e-06
-7.93976e-07
2.22771e-06
-8.02781e-07
2.11471e-06
-8.11747e-07
2.00323e-06
-8.20887e-07
1.89323e-06
-8.30199e-07
1.78456e-06
-8.39667e-07
1.67701e-06
-8.49268e-07
1.57037e-06
-8.58976e-07
1.4644e-06
-8.68766e-07
1.3589e-06
-8.78614e-07
1.25367e-06
-8.88499e-07
1.14856e-06
-8.98405e-07
1.04344e-06
-9.08322e-07
9.38199e-07
-9.18242e-07
8.32776e-07
-9.28163e-07
7.2712e-07
-9.38087e-07
6.21199e-07
-9.48015e-07
5.15e-07
4.08518e-07
3.91974e-10
3.56504e-07
-3.29655e-09
9.53573e-07
-1.42083e-08
1.44222e-06
-3.35281e-08
1.83403e-06
-6.07872e-08
2.14515e-06
-9.44653e-08
2.39391e-06
-1.32625e-07
2.59764e-06
-1.73384e-07
2.77028e-06
-2.15176e-07
2.92131e-06
-2.56824e-07
3.05596e-06
-2.97501e-07
3.17616e-06
-3.36637e-07
3.28168e-06
-3.73838e-07
3.37121e-06
-4.08824e-07
3.44318e-06
-4.41398e-07
3.49617e-06
-4.71428e-07
3.52926e-06
-4.98847e-07
3.54207e-06
-5.23655e-07
3.53481e-06
-5.45916e-07
3.50829e-06
-5.65756e-07
3.46378e-06
-5.83357e-07
3.403e-06
-5.98946e-07
3.32795e-06
-6.1278e-07
3.24082e-06
-6.25134e-07
3.14388e-06
-6.36287e-07
3.03933e-06
-6.46506e-07
2.92926e-06
-6.56039e-07
2.81551e-06
-6.65105e-07
2.69966e-06
-6.73886e-07
2.58299e-06
-6.82532e-07
2.46647e-06
-6.91156e-07
2.35079e-06
-6.99837e-07
2.23639e-06
-7.08628e-07
2.1235e-06
-7.17555e-07
2.01216e-06
-7.26627e-07
1.9023e-06
-7.3584e-07
1.79377e-06
-7.4518e-07
1.68635e-06
-7.54628e-07
1.57981e-06
-7.64166e-07
1.47394e-06
-7.73773e-07
1.36851e-06
-7.83435e-07
1.26333e-06
-7.93137e-07
1.15826e-06
-8.02872e-07
1.05317e-06
-8.12635e-07
9.47961e-07
-8.22424e-07
8.42565e-07
-8.32243e-07
7.36938e-07
-8.42097e-07
6.31053e-07
-8.51992e-07
5.24895e-07
4.18463e-07
1.79579e-09
3.54708e-07
1.63174e-09
9.53737e-07
-4.40465e-09
1.44826e-06
-1.81246e-08
1.84775e-06
-3.95134e-08
2.16653e-06
-6.73537e-08
2.42175e-06
-9.98478e-08
2.63014e-06
-1.35151e-07
2.80558e-06
-1.71682e-07
2.95784e-06
-2.0824e-07
3.09252e-06
-2.43986e-07
3.21191e-06
-2.7836e-07
3.31605e-06
-3.10996e-07
3.40385e-06
-3.41652e-07
3.47383e-06
-3.70171e-07
3.52469e-06
-3.96462e-07
3.55555e-06
-4.20491e-07
3.5661e-06
-4.42281e-07
3.5566e-06
-4.61908e-07
3.52792e-06
-4.79499e-07
3.48137e-06
-4.95227e-07
3.41873e-06
-5.09294e-07
3.34202e-06
-5.2193e-07
3.25345e-06
-5.33371e-07
3.15532e-06
-5.43854e-07
3.04982e-06
-5.53601e-07
2.93901e-06
-5.62816e-07
2.82473e-06
-5.71676e-07
2.70852e-06
-5.80328e-07
2.59164e-06
-5.88887e-07
2.47503e-06
-5.9744e-07
2.35934e-06
-6.06048e-07
2.245e-06
-6.14748e-07
2.1322e-06
-6.23558e-07
2.02097e-06
-6.32484e-07
1.91123e-06
-6.41521e-07
1.80281e-06
-6.5066e-07
1.69549e-06
-6.59887e-07
1.58904e-06
-6.69189e-07
1.48324e-06
-6.78555e-07
1.37787e-06
-6.87977e-07
1.27276e-06
-6.97449e-07
1.16774e-06
-7.06969e-07
1.06269e-06
-7.16538e-07
9.57531e-07
-7.26163e-07
8.5219e-07
-7.35849e-07
7.46625e-07
-7.45606e-07
6.4081e-07
-7.55445e-07
5.34734e-07
4.28394e-07
3.15887e-09
3.51549e-07
6.41826e-09
9.50478e-07
5.2402e-09
1.44944e-06
-2.82211e-09
1.85581e-06
-1.8266e-08
2.18198e-06
-4.01634e-08
2.44365e-06
-6.68903e-08
2.65686e-06
-9.66571e-08
2.83535e-06
-1.27878e-07
2.98906e-06
-1.5933e-07
3.12397e-06
-1.90158e-07
3.24273e-06
-2.19807e-07
3.3457e-06
-2.47934e-07
3.43197e-06
-2.74329e-07
3.50023e-06
-2.98876e-07
3.54924e-06
-3.21517e-07
3.57819e-06
-3.42248e-07
3.58683e-06
-3.61112e-07
3.57547e-06
-3.78195e-07
3.545e-06
-3.9362e-07
3.4968e-06
-4.07545e-07
3.43265e-06
-4.20151e-07
3.35462e-06
-4.31631e-07
3.26494e-06
-4.42186e-07
3.16587e-06
-4.52008e-07
3.05964e-06
-4.61277e-07
2.94828e-06
-4.70152e-07
2.8336e-06
-4.78771e-07
2.71714e-06
-4.87244e-07
2.60011e-06
-4.95659e-07
2.48344e-06
-5.04077e-07
2.36776e-06
-5.12541e-07
2.25347e-06
-5.21077e-07
2.14074e-06
-5.29697e-07
2.02959e-06
-5.38405e-07
1.91994e-06
-5.47198e-07
1.8116e-06
-5.5607e-07
1.70436e-06
-5.65013e-07
1.59799e-06
-5.74023e-07
1.49225e-06
-5.83095e-07
1.38695e-06
-5.92229e-07
1.28189e-06
-6.01427e-07
1.17693e-06
-6.10694e-07
1.07196e-06
-6.20036e-07
9.66874e-07
-6.29465e-07
8.61619e-07
-6.38992e-07
7.56151e-07
-6.48629e-07
6.50447e-07
-6.58389e-07
5.44494e-07
4.38292e-07
4.4603e-09
3.47089e-07
1.10648e-08
9.43873e-07
1.46652e-08
1.44584e-06
1.22403e-08
1.85824e-06
2.81654e-09
2.1914e-06
-1.30565e-08
2.45952e-06
-3.39314e-08
2.67774e-06
-5.80929e-08
2.85951e-06
-8.39635e-08
3.01493e-06
-1.10298e-07
3.15031e-06
-1.36224e-07
3.26866e-06
-1.61186e-07
3.37066e-06
-1.84857e-07
3.45564e-06
-2.07057e-07
3.52243e-06
-2.27701e-07
3.56989e-06
-2.46768e-07
3.59726e-06
-2.64277e-07
3.60434e-06
-2.80288e-07
3.59148e-06
-2.94892e-07
3.5596e-06
-3.08209e-07
3.51012e-06
-3.2038e-07
3.44482e-06
-3.31558e-07
3.3658e-06
-3.41905e-07
3.27528e-06
-3.51579e-07
3.17555e-06
-3.60733e-07
3.06879e-06
-3.69501e-07
2.95705e-06
-3.78002e-07
2.84211e-06
-3.86335e-07
2.72547e-06
-3.94577e-07
2.60835e-06
-4.02786e-07
2.49165e-06
-4.11004e-07
2.37598e-06
-4.19257e-07
2.26172e-06
-4.27562e-07
2.14904e-06
-4.35926e-07
2.03795e-06
-4.4435e-07
1.92836e-06
-4.52836e-07
1.82008e-06
-4.61381e-07
1.7129e-06
-4.69986e-07
1.60659e-06
-4.78653e-07
1.50092e-06
-4.87385e-07
1.39568e-06
-4.96189e-07
1.29069e-06
-5.05074e-07
1.18582e-06
-5.14052e-07
1.08094e-06
-5.23136e-07
9.75958e-07
-5.32341e-07
8.70824e-07
-5.41682e-07
7.65493e-07
-5.51176e-07
6.59941e-07
-5.60839e-07
5.54157e-07
4.48139e-07
5.68951e-09
3.414e-07
1.552e-08
9.34043e-07
2.38123e-08
1.43754e-06
2.69915e-08
1.85506e-06
2.35893e-08
2.1948e-06
1.38064e-08
2.4693e-06
-1.14164e-09
2.69269e-06
-1.96418e-08
2.87801e-06
-4.01272e-08
3.03542e-06
-6.13369e-08
3.17152e-06
-8.23789e-08
3.2897e-06
-1.0269e-07
3.39097e-06
-1.21954e-07
3.47491e-06
-1.40016e-07
3.54049e-06
-1.56821e-07
3.58669e-06
-1.72373e-07
3.61281e-06
-1.86718e-07
3.61868e-06
-1.99929e-07
3.60469e-06
-2.12101e-07
3.57177e-06
-2.23346e-07
3.52136e-06
-2.33786e-07
3.45526e-06
-2.4355e-07
3.37556e-06
-2.52763e-07
3.2845e-06
-2.61545e-07
3.18433e-06
-2.70006e-07
3.07725e-06
-2.78239e-07
2.96528e-06
-2.86322e-07
2.85019e-06
-2.94318e-07
2.73347e-06
-3.02271e-07
2.61631e-06
-3.10214e-07
2.49959e-06
-3.18169e-07
2.38393e-06
-3.26148e-07
2.2697e-06
-3.34158e-07
2.15705e-06
-3.42203e-07
2.046e-06
-3.50285e-07
1.93644e-06
-3.58408e-07
1.82821e-06
-3.66574e-07
1.72107e-06
-3.74792e-07
1.61481e-06
-3.8307e-07
1.50919e-06
-3.91419e-07
1.40403e-06
-3.99855e-07
1.29913e-06
-4.08392e-07
1.19436e-06
-4.1705e-07
1.08959e-06
-4.25846e-07
9.84754e-07
-4.348e-07
8.79778e-07
-4.43932e-07
7.74625e-07
-4.53262e-07
6.6927e-07
-4.62807e-07
5.63702e-07
4.57917e-07
6.83786e-09
3.34562e-07
1.97522e-08
9.21129e-07
3.26099e-08
1.42469e-06
4.13234e-08
1.84634e-06
4.39394e-08
2.19219e-06
4.02744e-08
2.47297e-06
3.13006e-08
2.70166e-06
1.85156e-08
2.8908e-06
3.44658e-09
3.05049e-06
-1.26325e-08
3.1876e-06
-2.88072e-08
3.30588e-06
-4.45026e-08
3.40667e-06
-5.94041e-08
3.48981e-06
-7.33789e-08
3.55447e-06
-8.63939e-08
3.5997e-06
-9.848e-08
3.6249e-06
-1.09703e-07
3.6299e-06
-1.20148e-07
3.61513e-06
-1.29913e-07
3.58154e-06
-1.391e-07
3.53055e-06
-1.47814e-07
3.46398e-06
-1.56155e-07
3.3839e-06
-1.64216e-07
3.29256e-06
-1.72077e-07
3.19219e-06
-1.79807e-07
3.08498e-06
-1.87459e-07
2.97293e-06
-1.95073e-07
2.8578e-06
-2.02674e-07
2.74107e-06
-2.10278e-07
2.62391e-06
-2.17895e-07
2.50721e-06
-2.25525e-07
2.39156e-06
-2.33169e-07
2.27734e-06
-2.40826e-07
2.16471e-06
-2.48496e-07
2.05367e-06
-2.56183e-07
1.94413e-06
-2.63892e-07
1.83592e-06
-2.71633e-07
1.72881e-06
-2.79419e-07
1.62259e-06
-2.87268e-07
1.51704e-06
-2.95197e-07
1.41196e-06
-3.03229e-07
1.30716e-06
-3.11387e-07
1.20251e-06
-3.19694e-07
1.0979e-06
-3.28175e-07
9.93235e-07
-3.36853e-07
8.88457e-07
-3.45752e-07
7.83524e-07
-3.54895e-07
6.78413e-07
-3.64302e-07
5.73109e-07
4.67608e-07
7.89809e-09
3.26664e-07
2.37328e-08
9.05294e-07
4.0998e-08
1.40742e-06
5.51403e-08
1.8322e-06
6.37331e-08
2.1836e-06
6.61987e-08
2.4705e-06
6.32393e-08
2.70462e-06
5.62065e-08
2.89783e-06
4.65794e-08
3.06011e-06
3.56362e-08
3.19854e-06
2.43133e-08
3.3172e-06
1.32016e-08
3.41778e-06
2.61477e-09
3.5004e-06
-7.31201e-09
3.56439e-06
-1.65745e-08
3.60897e-06
-2.52273e-08
3.63355e-06
-3.33534e-08
3.63803e-06
-4.10487e-08
3.62283e-06
-4.84115e-08
3.5889e-06
-5.5536e-08
3.53767e-06
-6.25076e-08
3.47095e-06
-6.94001e-08
3.3908e-06
-7.62727e-08
3.29943e-06
-8.3169e-08
3.19909e-06
-9.01167e-08
3.09193e-06
-9.71338e-08
2.97995e-06
-1.04218e-07
2.86489e-06
-1.11363e-07
2.74822e-06
-1.18558e-07
2.63111e-06
-1.25785e-07
2.51444e-06
-1.33031e-07
2.39881e-06
-1.40283e-07
2.28459e-06
-1.47533e-07
2.17196e-06
-1.54777e-07
2.06091e-06
-1.6202e-07
1.95137e-06
-1.69271e-07
1.84317e-06
-1.76544e-07
1.73609e-06
-1.8386e-07
1.62991e-06
-1.91243e-07
1.52443e-06
-1.98718e-07
1.41943e-06
-2.06315e-07
1.31476e-06
-2.14063e-07
1.21026e-06
-2.21991e-07
1.10583e-06
-2.3013e-07
1.00137e-06
-2.38507e-07
8.96834e-07
-2.4715e-07
7.92167e-07
-2.56084e-07
6.87347e-07
-2.65334e-07
5.82358e-07
4.77194e-07
8.86433e-09
3.17799e-07
2.74369e-08
8.86721e-07
4.89219e-08
1.38594e-06
6.8353e-08
1.81277e-06
8.28497e-08
2.1691e-06
9.14313e-08
2.46192e-06
9.45069e-08
2.70155e-06
9.32583e-08
2.89908e-06
8.90965e-08
3.06427e-06
8.3295e-08
3.20434e-06
7.68123e-08
3.32368e-06
7.02624e-08
3.42433e-06
6.39706e-08
3.50669e-06
5.80535e-08
3.57031e-06
5.25082e-08
3.61451e-06
4.7264e-08
3.63879e-06
4.2221e-08
3.64307e-06
3.72736e-08
3.62778e-06
3.23228e-08
3.59385e-06
2.7283e-08
3.54271e-06
2.20865e-08
3.47615e-06
1.66852e-08
3.3962e-06
1.10513e-08
3.30506e-06
5.17592e-09
3.20496e-06
-9.31906e-10
3.09804e-06
-7.24066e-09
2.98626e-06
-1.37274e-08
2.87137e-06
-2.03513e-08
2.75484e-06
-2.70713e-08
2.63783e-06
-3.38493e-08
2.52121e-06
-4.0653e-08
2.40561e-06
-4.7458e-08
2.2914e-06
-5.4249e-08
2.17875e-06
-6.10203e-08
2.06769e-06
-6.77758e-08
1.95813e-06
-7.45279e-08
1.84992e-06
-8.12964e-08
1.74285e-06
-8.81072e-08
1.63672e-06
-9.49909e-08
1.53131e-06
-1.01981e-07
1.42642e-06
-1.09113e-07
1.32189e-06
-1.16422e-07
1.21757e-06
-1.23945e-07
1.11335e-06
-1.31716e-07
1.00914e-06
-1.39768e-07
-1.48131e-07
-1.56835e-07
-1.65905e-07
9.73203e-09
3.08067e-07
3.08429e-08
8.6561e-07
5.63318e-08
1.36045e-06
8.08781e-08
1.78822e-06
1.01173e-07
2.1488e-06
1.15829e-07
2.44726e-06
1.24943e-07
2.69243e-06
1.295e-07
2.89452e-06
1.30824e-07
3.06295e-06
1.30171e-07
3.20499e-06
1.2852e-07
3.32533e-06
1.26508e-07
3.42634e-06
1.24477e-07
3.50872e-06
1.22546e-07
3.57224e-06
1.20702e-07
3.61636e-06
1.18859e-07
3.64064e-06
1.16904e-07
3.64503e-06
1.14721e-07
3.62996e-06
1.12212e-07
3.59636e-06
1.09298e-07
3.54563e-06
1.05929e-07
3.47952e-06
1.02079e-07
3.40005e-06
9.7751e-08
3.30939e-06
9.29709e-08
3.20974e-06
8.77834e-08
3.10323e-06
8.22441e-08
2.9918e-06
7.64236e-08
2.87719e-06
7.03906e-08
2.76087e-06
6.42114e-08
2.64401e-06
5.79454e-08
2.52748e-06
5.16414e-08
2.41192e-06
4.53358e-08
2.2977e-06
3.90512e-08
2.18503e-06
3.27967e-08
2.07394e-06
2.65685e-08
1.96436e-06
2.03518e-08
1.85614e-06
1.41223e-08
1.74908e-06
7.84851e-09
1.643e-06
1.49353e-09
1.53766e-06
-4.98274e-09
1.4329e-06
-1.16222e-08
1.32853e-06
-1.8467e-08
1.22442e-06
-2.55586e-08
1.12044e-06
1.01652e-06
1.04978e-08
2.9757e-07
3.39328e-08
8.42175e-07
6.31833e-08
1.3312e-06
9.26377e-08
1.75877e-06
1.18591e-07
2.12285e-06
1.39253e-07
2.4266e-06
1.54388e-07
2.6773e-06
1.64763e-07
2.88415e-06
1.71589e-07
3.05612e-06
1.76093e-07
3.20049e-06
1.79268e-07
3.32216e-06
1.8178e-07
3.42383e-06
1.83989e-07
3.50651e-06
1.86026e-07
3.5702e-06
1.87872e-07
3.61451e-06
1.89431e-07
3.63908e-06
1.90578e-07
3.64388e-06
1.91189e-07
3.62935e-06
1.91164e-07
3.59639e-06
1.90432e-07
3.54636e-06
1.88955e-07
3.48099e-06
1.86732e-07
3.40227e-06
1.8379e-07
3.31233e-06
1.80187e-07
3.21335e-06
1.76e-07
3.10741e-06
1.71322e-07
2.99648e-06
1.6625e-07
2.88227e-06
1.60884e-07
2.76624e-06
1.55315e-07
2.64957e-06
1.49625e-07
2.53317e-06
1.43879e-07
2.41766e-06
1.38124e-07
2.30346e-06
1.32393e-07
2.19076e-06
1.26696e-07
2.07964e-06
1.21032e-07
1.97002e-06
1.15385e-07
1.86178e-06
1.09725e-07
1.75474e-06
1.04018e-07
1.6487e-06
9.82189e-08
1.54346e-06
9.22829e-08
1.43883e-06
8.61615e-08
1.33465e-06
7.98066e-08
1.23077e-06
7.31714e-08
1.12708e-06
1.02348e-06
1.11595e-08
2.8641e-07
3.66919e-08
8.16643e-07
6.94375e-08
1.29845e-06
1.0356e-07
1.72465e-06
1.34999e-07
2.09141e-06
1.61567e-07
2.40003e-06
1.82685e-07
2.65618e-06
1.98876e-07
2.86795e-06
2.11217e-07
3.04378e-06
2.20888e-07
3.19082e-06
2.28889e-07
3.31416e-06
2.35914e-07
3.4168e-06
2.42351e-07
3.50007e-06
2.48345e-07
3.56421e-06
2.53879e-07
3.60898e-06
2.58851e-07
3.63411e-06
2.63125e-07
3.63961e-06
2.66573e-07
3.6259e-06
2.6909e-07
3.59387e-06
2.70609e-07
3.54484e-06
2.71107e-07
3.48049e-06
2.70599e-07
3.40278e-06
2.69138e-07
3.31379e-06
2.66809e-07
3.21567e-06
2.6372e-07
3.1105e-06
2.59994e-07
3.0002e-06
2.55759e-07
2.8865e-06
2.51141e-07
2.77086e-06
2.46258e-07
2.65446e-06
2.41211e-07
2.53822e-06
2.36082e-07
2.42279e-06
2.30931e-07
2.30861e-06
2.25798e-07
2.1959e-06
2.207e-07
2.08474e-06
2.15636e-07
1.97508e-06
2.10589e-07
1.86683e-06
2.05529e-07
1.7598e-06
2.00414e-07
1.65382e-06
1.95197e-07
1.54868e-06
1.89826e-07
1.4442e-06
1.84247e-07
1.34023e-06
1.78406e-07
1.23661e-06
1.72251e-07
1.13323e-06
1.03e-06
1.1716e-08
2.74694e-07
3.9109e-08
7.8925e-07
7.50611e-08
1.2625e-06
1.13581e-07
1.68613e-06
1.50295e-07
2.0547e-06
1.82638e-07
2.36769e-06
2.09677e-07
2.62914e-06
2.31669e-07
2.84596e-06
2.49531e-07
3.02592e-06
2.6438e-07
3.17597e-06
2.77211e-07
3.30133e-06
2.88747e-07
3.40527e-06
2.99405e-07
3.48942e-06
3.09352e-07
3.55426e-06
3.1858e-07
3.59975e-06
3.26984e-07
3.6257e-06
3.34423e-07
3.63217e-06
3.4076e-07
3.61956e-06
3.45888e-07
3.58874e-06
3.49744e-07
3.54098e-06
3.52311e-07
3.47793e-06
3.53621e-07
3.40147e-06
3.53749e-07
3.31367e-06
3.52803e-07
3.21662e-06
3.5092e-07
3.11238e-06
3.48249e-07
3.00287e-06
3.44948e-07
2.8898e-06
3.41169e-07
2.77464e-06
3.37052e-07
2.65857e-06
3.3272e-07
2.54255e-06
3.2827e-07
2.42724e-06
3.23777e-07
2.3131e-06
3.19289e-07
2.20039e-06
3.1483e-07
2.08919e-06
3.10401e-07
1.97951e-06
3.05986e-07
1.87125e-06
3.01552e-07
1.76424e-06
2.97055e-07
1.65831e-06
2.92444e-07
1.55329e-06
2.87661e-07
1.44899e-06
2.82647e-07
1.34524e-06
2.77343e-07
1.24192e-06
2.71692e-07
1.13888e-06
1.03606e-06
1.21671e-08
2.62527e-07
4.11761e-08
7.60241e-07
8.00265e-08
1.22365e-06
1.22643e-07
1.64351e-06
1.64388e-07
2.01295e-06
2.02341e-07
2.32974e-06
2.35212e-07
2.59627e-06
2.62971e-07
2.8182e-06
2.86353e-07
3.00254e-06
3.06389e-07
3.15593e-06
3.24058e-07
3.28366e-06
3.40106e-07
3.38922e-06
3.54985e-07
3.47454e-06
3.68889e-07
3.54036e-06
3.81824e-07
3.58681e-06
3.93688e-07
3.61384e-06
4.04337e-07
3.62152e-06
4.13627e-07
3.61027e-06
4.21447e-07
3.58092e-06
4.27735e-07
3.5347e-06
4.3248e-07
3.47318e-06
4.35726e-07
3.39822e-06
4.37563e-07
3.31183e-06
4.38123e-07
3.21606e-06
4.37565e-07
3.11294e-06
4.36064e-07
3.00437e-06
4.33804e-07
2.89206e-06
4.30962e-07
2.77748e-06
4.277e-07
2.66184e-06
4.2416e-07
2.54609e-06
4.20457e-07
2.43095e-06
4.1668e-07
2.31688e-06
4.12887e-07
2.20418e-06
4.09108e-07
2.09297e-06
4.0535e-07
1.98327e-06
4.01598e-07
1.875e-06
3.97818e-07
1.76802e-06
3.93964e-07
1.66217e-06
3.89981e-07
1.55727e-06
3.85809e-07
1.45316e-06
3.81383e-07
1.34967e-06
3.76638e-07
1.24666e-06
3.71513e-07
1.14401e-06
1.04162e-06
1.2514e-08
2.50013e-07
4.28888e-08
7.29866e-07
8.43123e-08
1.18223e-06
1.30694e-07
1.59713e-06
1.7719e-07
1.96646e-06
2.20553e-07
2.28638e-06
2.59136e-07
2.55769e-06
2.9261e-07
2.78473e-06
3.215e-07
2.97365e-06
3.46729e-07
3.1307e-06
3.69248e-07
3.26114e-06
3.89816e-07
3.36865e-06
4.08923e-07
3.45543e-06
4.26792e-07
3.52249e-06
4.43454e-07
3.57015e-06
4.58813e-07
3.59848e-06
4.72724e-07
3.60761e-06
4.85039e-07
3.59796e-06
4.95643e-07
3.57032e-06
5.04469e-07
3.52587e-06
5.11512e-07
3.46614e-06
5.16822e-07
3.39291e-06
5.20504e-07
3.30815e-06
5.22705e-07
3.21386e-06
5.23604e-07
3.11204e-06
5.23402e-07
3.00458e-06
5.22302e-07
2.89316e-06
5.20504e-07
2.77927e-06
5.18194e-07
2.66415e-06
5.15533e-07
2.54875e-06
5.12653e-07
2.43383e-06
5.09655e-07
2.31988e-06
5.06611e-07
2.20722e-06
5.03558e-07
2.09603e-06
5.00509e-07
1.98632e-06
4.97452e-07
1.87806e-06
4.94354e-07
1.77112e-06
4.91168e-07
1.66535e-06
4.87838e-07
1.5606e-06
4.84298e-07
1.4567e-06
4.8048e-07
1.35349e-06
4.76317e-07
1.25082e-06
4.71739e-07
1.14859e-06
1.04668e-06
1.27584e-08
2.37255e-07
4.42462e-08
6.98378e-07
8.79034e-08
1.13857e-06
1.37694e-07
1.54734e-06
1.88626e-07
1.91553e-06
2.37158e-07
2.23784e-06
2.81302e-07
2.51354e-06
3.20412e-07
2.74562e-06
3.54785e-07
2.93928e-06
3.85209e-07
3.10028e-06
4.12588e-07
3.23376e-06
4.3769e-07
3.34355e-06
4.61036e-07
3.43208e-06
4.82888e-07
3.50064e-06
5.03301e-07
3.54974e-06
5.22195e-07
3.57959e-06
5.39427e-07
3.59038e-06
5.54847e-07
3.58254e-06
5.68334e-07
3.55683e-06
5.79816e-07
3.51439e-06
5.89288e-07
3.45667e-06
5.96804e-07
3.3854e-06
6.02477e-07
3.30247e-06
6.06467e-07
3.20987e-06
6.08972e-07
3.10954e-06
6.10207e-07
3.00334e-06
6.10399e-07
2.89297e-06
6.09768e-07
2.77991e-06
6.08519e-07
2.6654e-06
6.06832e-07
2.55044e-06
6.04858e-07
2.4358e-06
6.02712e-07
2.32202e-06
6.00477e-07
2.20946e-06
5.98201e-07
2.0983e-06
5.95904e-07
1.98862e-06
5.93578e-07
1.88038e-06
5.91192e-07
1.7735e-06
5.88702e-07
1.66784e-06
5.86047e-07
1.56326e-06
5.83162e-07
1.45959e-06
5.79975e-07
1.35667e-06
5.76413e-07
1.25439e-06
5.72404e-07
1.1526e-06
1.0512e-06
1.29033e-08
2.24351e-07
4.52505e-08
6.66031e-07
9.07909e-08
1.09303e-06
1.43609e-07
1.49452e-06
1.98625e-07
1.86051e-06
2.5205e-07
2.18442e-06
3.01566e-07
2.46403e-06
3.46206e-07
2.70098e-06
3.86016e-07
2.89946e-06
4.21629e-07
3.06467e-06
4.53879e-07
3.20151e-06
4.83531e-07
3.3139e-06
5.11134e-07
3.40448e-06
5.3699e-07
3.47478e-06
5.61184e-07
3.52554e-06
5.83659e-07
3.55711e-06
6.04277e-07
3.56976e-06
6.22888e-07
3.56393e-06
6.39363e-07
3.54036e-06
6.53627e-07
3.50012e-06
6.65669e-07
3.44463e-06
6.75543e-07
3.37552e-06
6.83368e-07
3.29465e-06
6.8931e-07
3.20393e-06
6.9358e-07
3.10527e-06
6.96408e-07
3.00051e-06
6.98038e-07
2.89134e-06
6.98708e-07
2.77924e-06
6.98643e-07
2.66546e-06
6.9804e-07
2.55104e-06
6.97066e-07
2.43677e-06
6.95853e-07
2.32323e-06
6.94497e-07
2.21081e-06
6.93057e-07
2.09974e-06
6.91561e-07
1.99011e-06
6.90006e-07
1.88194e-06
6.88368e-07
1.77514e-06
6.86602e-07
1.66961e-06
6.84649e-07
1.56521e-06
6.82442e-07
1.46179e-06
6.79907e-07
1.35921e-06
6.76969e-07
1.25732e-06
6.73551e-07
1.15601e-06
1.05517e-06
1.29525e-08
2.11399e-07
4.59073e-08
6.33076e-07
9.29727e-08
1.04596e-06
1.48415e-07
1.43908e-06
2.07132e-07
1.80179e-06
2.65131e-07
2.12642e-06
3.19789e-07
2.40937e-06
3.6982e-07
2.65095e-06
4.15001e-07
2.85428e-06
4.55784e-07
3.02388e-06
4.92912e-07
3.16438e-06
5.27131e-07
3.27968e-06
5.59013e-07
3.3726e-06
5.88899e-07
3.4449e-06
6.1691e-07
3.49753e-06
6.43015e-07
3.53101e-06
6.67087e-07
3.54569e-06
6.88978e-07
3.54204e-06
7.08554e-07
3.52078e-06
7.25732e-07
3.48294e-06
7.40495e-07
3.42986e-06
7.52892e-07
3.36313e-06
7.63039e-07
3.2845e-06
7.7111e-07
3.19585e-06
7.7732e-07
3.09906e-06
7.81911e-07
2.99592e-06
7.85141e-07
2.88811e-06
7.87264e-07
2.77711e-06
7.88519e-07
2.66421e-06
7.89123e-07
2.55044e-06
7.89259e-07
2.43664e-06
7.89075e-07
2.32342e-06
7.88678e-07
2.21121e-06
7.88143e-07
2.10028e-06
7.87504e-07
1.99075e-06
7.8677e-07
1.88267e-06
7.85919e-07
1.77599e-06
7.84911e-07
1.67062e-06
7.8369e-07
1.56643e-06
7.82188e-07
1.4633e-06
7.80329e-07
1.36107e-06
7.78036e-07
1.25962e-06
7.75231e-07
1.15882e-06
1.05856e-06
1.29103e-08
1.98488e-07
4.62255e-08
5.99761e-07
9.44532e-08
9.97734e-07
1.521e-07
1.38143e-06
2.141e-07
1.73979e-06
2.76314e-07
2.06421e-06
3.35843e-07
2.34984e-06
3.91088e-07
2.5957e-06
4.41545e-07
2.80383e-06
4.87461e-07
2.97797e-06
5.29467e-07
3.12238e-06
5.6827e-07
3.24088e-06
6.04456e-07
3.33641e-06
6.38401e-07
3.41095e-06
6.70269e-07
3.46566e-06
7.00056e-07
3.50122e-06
7.27655e-07
3.51809e-06
7.52919e-07
3.51677e-06
7.75713e-07
3.49799e-06
7.95944e-07
3.46271e-06
8.13585e-07
3.41222e-06
8.28677e-07
3.34803e-06
8.41331e-07
3.27185e-06
8.5172e-07
3.18547e-06
8.6006e-07
3.09072e-06
8.66601e-07
2.98938e-06
8.71609e-07
2.8831e-06
8.75352e-07
2.77337e-06
8.78084e-07
2.66147e-06
8.80036e-07
2.54849e-06
8.81406e-07
2.43527e-06
8.82359e-07
2.32247e-06
8.83018e-07
2.21055e-06
8.83467e-07
2.09983e-06
8.83755e-07
1.99046e-06
8.83898e-07
1.88253e-06
8.83883e-07
1.77601e-06
8.83675e-07
1.67083e-06
8.8322e-07
1.56689e-06
8.82452e-07
1.46406e-06
8.81296e-07
1.36222e-06
8.79674e-07
1.26124e-06
8.77505e-07
1.16099e-06
1.06136e-06
1.2782e-08
1.85706e-07
4.62166e-08
5.66327e-07
9.52431e-08
9.48708e-07
1.54658e-07
1.32201e-06
2.19497e-07
1.67495e-06
2.85524e-07
1.99818e-06
3.49608e-07
2.28575e-06
4.09848e-07
2.53546e-06
4.65451e-07
2.74822e-06
5.16441e-07
2.92698e-06
5.63312e-07
3.0755e-06
6.06712e-07
3.19748e-06
6.47228e-07
3.2959e-06
6.85267e-07
3.37291e-06
7.21034e-07
3.4299e-06
7.54559e-07
3.46769e-06
7.85758e-07
3.48689e-06
8.14492e-07
3.48804e-06
8.40623e-07
3.47186e-06
8.6405e-07
3.43929e-06
8.84733e-07
3.39154e-06
9.02702e-07
3.33006e-06
9.18058e-07
3.25649e-06
9.30966e-07
3.17256e-06
9.41641e-07
3.08005e-06
9.50335e-07
2.98069e-06
9.57318e-07
2.87612e-06
9.62868e-07
2.76782e-06
9.6725e-07
2.65709e-06
9.70709e-07
2.54503e-06
9.73458e-07
2.43252e-06
9.75675e-07
2.32025e-06
9.775e-07
2.20873e-06
9.79031e-07
2.0983e-06
9.80328e-07
1.98917e-06
9.81418e-07
1.88144e-06
9.82298e-07
1.77513e-06
9.82938e-07
1.67019e-06
9.83291e-07
1.56653e-06
9.83293e-07
1.46406e-06
9.82872e-07
1.36264e-06
9.81949e-07
1.26216e-06
9.80441e-07
1.16249e-06
1.06353e-06
1.25733e-08
1.73133e-07
4.58952e-08
5.33005e-07
9.53596e-08
8.99243e-07
1.56098e-07
1.26128e-06
2.23302e-07
1.60775e-06
2.92703e-07
1.92878e-06
3.60977e-07
2.21748e-06
4.25946e-07
2.47049e-06
4.86527e-07
2.68764e-06
5.42505e-07
2.871e-06
5.9421e-07
3.0238e-06
6.42212e-07
3.14947e-06
6.87082e-07
3.25103e-06
7.2925e-07
3.33074e-06
7.68961e-07
3.39019e-06
8.06283e-07
3.43037e-06
8.41157e-07
3.45201e-06
8.73458e-07
3.45574e-06
9.03048e-07
3.44227e-06
9.29816e-07
3.41252e-06
9.5371e-07
3.36765e-06
9.74745e-07
3.30903e-06
9.93006e-07
3.23823e-06
1.00865e-06
3.15692e-06
1.02188e-06
3.06682e-06
1.03294e-06
2.96962e-06
1.04212e-06
2.86694e-06
1.04968e-06
2.76026e-06
1.05591e-06
2.65087e-06
1.06105e-06
2.53988e-06
1.06534e-06
2.42823e-06
1.06897e-06
2.31662e-06
1.07209e-06
2.20561e-06
1.07482e-06
2.09557e-06
1.07722e-06
1.98676e-06
1.07935e-06
1.87932e-06
1.08119e-06
1.77328e-06
1.08274e-06
1.66864e-06
1.08396e-06
1.56532e-06
1.08477e-06
1.46324e-06
1.08512e-06
1.36229e-06
1.08493e-06
1.26235e-06
1.08412e-06
1.16331e-06
1.06505e-06
1.22906e-08
1.60843e-07
4.5278e-08
5.00017e-07
9.48257e-08
8.49696e-07
1.56435e-07
1.19967e-06
2.2551e-07
1.53867e-06
2.97805e-07
1.85648e-06
3.69858e-07
2.14543e-06
4.39239e-07
2.40111e-06
5.04585e-07
2.6223e-06
5.65427e-07
2.81016e-06
6.21913e-07
2.96731e-06
6.74509e-07
3.09688e-06
7.23752e-07
3.20179e-06
7.70084e-07
3.28441e-06
8.13786e-07
3.34648e-06
8.54964e-07
3.3892e-06
8.9359e-07
3.41339e-06
9.29556e-07
3.41977e-06
9.62727e-07
3.4091e-06
9.92985e-07
3.38226e-06
1.02026e-06
3.34037e-06
1.04456e-06
3.28474e-06
1.06594e-06
3.21685e-06
1.08454e-06
3.13832e-06
1.10055e-06
3.0508e-06
1.11422e-06
2.95595e-06
1.12582e-06
2.85535e-06
1.13562e-06
2.75045e-06
1.14391e-06
2.64258e-06
1.15094e-06
2.53285e-06
1.15697e-06
2.42221e-06
1.16218e-06
2.31141e-06
1.16675e-06
2.20104e-06
1.1708e-06
2.09152e-06
1.17443e-06
1.98313e-06
1.17769e-06
1.87606e-06
1.18059e-06
1.77038e-06
1.18313e-06
1.6661e-06
1.18526e-06
1.56319e-06
1.18695e-06
1.46156e-06
1.18812e-06
1.36112e-06
1.1887e-06
1.26177e-06
1.18861e-06
1.1634e-06
1.06589e-06
1.19404e-08
1.48902e-07
4.43839e-08
4.67574e-07
9.36695e-08
8.0041e-07
1.55697e-07
1.13764e-06
2.26129e-07
1.46824e-06
3.00806e-07
1.78181e-06
3.76176e-07
2.07006e-06
4.49599e-07
2.32769e-06
5.19444e-07
2.55245e-06
5.84985e-07
2.74462e-06
6.46168e-07
2.90613e-06
7.03332e-07
3.03971e-06
7.56957e-07
3.14816e-06
8.07486e-07
3.23388e-06
8.55226e-07
3.29875e-06
9.00321e-07
3.3441e-06
9.42776e-07
3.37093e-06
9.82506e-07
3.38004e-06
1.01938e-06
3.37222e-06
1.05328e-06
3.34836e-06
1.08411e-06
3.30953e-06
1.11186e-06
3.25699e-06
1.13658e-06
3.19214e-06
1.15837e-06
3.11652e-06
1.17742e-06
3.03175e-06
1.19395e-06
2.93942e-06
1.20822e-06
2.84108e-06
1.22051e-06
2.73817e-06
1.23109e-06
2.63199e-06
1.24024e-06
2.5237e-06
1.2482e-06
2.41424e-06
1.25519e-06
2.30442e-06
1.26138e-06
2.19484e-06
1.26693e-06
2.08597e-06
1.27192e-06
1.97814e-06
1.27644e-06
1.87155e-06
1.2805e-06
1.76632e-06
1.28411e-06
1.66249e-06
1.28725e-06
1.56005e-06
1.28987e-06
1.45894e-06
1.29191e-06
1.35908e-06
1.29332e-06
1.26037e-06
1.294e-06
1.16272e-06
1.06601e-06
1.15296e-08
1.37372e-07
4.32333e-08
4.3587e-07
9.19238e-08
7.51719e-07
1.53918e-07
1.07565e-06
2.25181e-07
1.39698e-06
3.01693e-07
1.70529e-06
3.79873e-07
1.99188e-06
4.56913e-07
2.25065e-06
5.30937e-07
2.47843e-06
6.00963e-07
2.67459e-06
6.6672e-07
2.84037e-06
7.28399e-07
2.97803e-06
7.86403e-07
3.09016e-06
8.41153e-07
3.17913e-06
8.92976e-07
3.24692e-06
9.42049e-07
3.29503e-06
9.88412e-07
3.32457e-06
1.032e-06
3.33645e-06
1.0727e-06
3.33152e-06
1.11038e-06
3.31068e-06
1.14495e-06
3.27497e-06
1.17636e-06
3.22558e-06
1.20463e-06
3.16386e-06
1.22986e-06
3.0913e-06
1.25219e-06
3.00941e-06
1.27185e-06
2.91977e-06
1.28906e-06
2.82387e-06
1.3041e-06
2.72313e-06
1.31724e-06
2.61885e-06
1.32875e-06
2.51219e-06
1.33888e-06
2.40411e-06
1.34787e-06
2.29544e-06
1.35589e-06
2.18682e-06
1.3631e-06
2.07876e-06
1.36963e-06
1.97161e-06
1.37554e-06
1.86563e-06
1.38089e-06
1.76097e-06
1.38569e-06
1.65769e-06
1.38993e-06
1.55581e-06
1.39357e-06
1.4553e-06
1.39657e-06
1.35608e-06
1.39885e-06
1.25809e-06
1.40036e-06
1.16121e-06
1.06536e-06
1.10651e-08
1.26307e-07
4.18475e-08
4.05088e-07
8.96248e-08
7.03942e-07
1.51142e-07
1.01413e-06
2.22701e-07
1.32542e-06
3.00476e-07
1.62752e-06
3.80913e-07
1.91144e-06
4.61087e-07
2.17048e-06
5.38908e-07
2.40061e-06
6.13148e-07
2.60035e-06
6.83312e-07
2.77021e-06
7.49421e-07
2.91193e-06
8.11778e-07
3.0278e-06
8.70766e-07
3.12014e-06
9.26712e-07
3.19098e-06
9.79824e-07
3.24192e-06
1.03017e-06
3.27422e-06
1.07772e-06
3.2889e-06
1.12237e-06
3.28688e-06
1.16398e-06
3.26907e-06
1.20245e-06
3.2365e-06
1.23772e-06
3.19031e-06
1.26977e-06
3.13181e-06
1.29868e-06
3.06239e-06
1.32457e-06
2.98353e-06
1.34762e-06
2.89672e-06
1.36805e-06
1.38612e-06
1.4021e-06
1.41625e-06
1.42882e-06
1.44004e-06
1.45012e-06
1.45921e-06
1.46746e-06
1.47495e-06
1.48174e-06
1.48786e-06
1.49331e-06
1.49807e-06
1.5021e-06
1.50535e-06
1.50774e-06
1.05535e-08
4.02484e-08
8.6811e-08
1.47418e-07
2.18735e-07
2.97177e-07
3.79277e-07
4.62046e-07
5.4322e-07
6.21342e-07
6.95692e-07
7.66106e-07
8.32764e-07
8.95987e-07
9.5609e-07
1.0133e-06
1.06771e-06
1.11931e-06
1.16802e-06
1.21371e-06
1.25626e-06
1.29558e-06
1.33165e-06
1.36449e-06
1.3942e-06
)
;

boundaryField
{
    movingWall
    {
        type            calculated;