/*--------------------------------*- C++ -*----------------------------------*\
  =========                 |
  \\      /  F ield         | OpenFOAM: The Open Source CFD Toolbox
   \\    /   O peration     | Website:  https://openfoam.org
    \\  /    A nd           | Version:  9
     \\/     M anipulation  |
\*---------------------------------------------------------------------------*/
FoamFile
{
    format      ascii;
    class       volVectorField;
    location    "2.75";
    object      U;
}
// * * * * * * * * * * * * * * * * * * * * * * * * * * * * * * * * * * * * * //

dimensions      [0 1 -1 0 0 0 0];

internalField   nonuniform List<vector> 
1250
(
(-0.000112625 0.0346707 0)
(-0.00110026 0.0909483 0)
(-6.31691e-05 0.0351525 0)
(-0.000818608 0.092555 0)
(-0.00279883 0.138343 0)
(-0.00588979 0.174302 0)
(-0.00992961 0.202548 0)
(-0.0147096 0.2252 0)
(-0.0199984 0.244071 0)
(-0.0255859 0.260497 0)
(-0.0313034 0.2753 0)
(-0.0370241 0.288866 0)
(-0.042655 0.301275 0)
(-0.0481262 0.31242 0)
(-0.0533827 0.32212 0)
(-0.0583791 0.33018 0)
(-0.0630774 0.336432 0)
(-0.0674463 0.340757 0)
(-0.0714626 0.343095 0)
(-0.0751117 0.343439 0)
(-0.0783885 0.341841 0)
(-0.0812978 0.338405 0)
(-0.0838539 0.333275 0)
(-0.0860795 0.326633 0)
(-0.088005 0.318681 0)
(-0.0896659 0.309638 0)
(-0.0911012 0.29972 0)
(-0.092351 0.289137 0)
(-0.093455 0.27808 0)
(-0.09445 0.266719 0)
(-0.0953695 0.255193 0)
(-0.0962419 0.243615 0)
(-0.0970909 0.232069 0)
(-0.0979345 0.220613 0)
(-0.0987862 0.209281 0)
(-0.0996547 0.19809 0)
(-1.42855e-05 0.0354844 0)
(-0.000535653 0.0938108 0)
(-0.00208378 0.14064 0)
(-0.00465805 0.1776 0)
(-0.00815416 0.206688 0)
(-0.0123905 0.229968 0)
(-0.0171474 0.24925 0)
(-0.0222166 0.265895 0)
(-0.027426 0.280767 0)
(-0.0326455 0.294292 0)
(-0.0377805 0.306577 0)
(-0.0427622 0.317539 0)
(-0.0475388 0.327006 0)
(-0.0520694 0.334794 0)
(-0.0563209 0.340743 0)
(-0.0602674 0.344741 0)
(-0.0638904 0.346734 0)
(-0.0671794 0.346726 0)
(-0.0701326 0.344778 0)
(-0.0727569 0.341002 0)
(-0.0750678 0.335551 0)
(-0.077088 0.328613 0)
(-0.0788463 0.320399 0)
(-0.0803761 0.311128 0)
(-0.081713 0.301021 0)
(-0.0828934 0.290286 0)
(-0.0839522 0.279113 0)
(-0.0849221 0.267668 0)
(-0.0858317 0.256088 0)
(-0.0867055 0.24448 0)
(-0.0875632 0.232922 0)
(-0.0884198 0.221469 0)
(-0.0892858 0.21015 0)
(-0.0901682 0.198978 0)
(-0.0910704 0.187951 0)
(-0.0919934 0.177057 0)
(-0.0929362 0.166278 0)
(-0.0938968 0.155593 0)
(-0.094872 0.14498 0)
(-0.0958586 0.134417 0)
(-0.0968535 0.123886 0)
(-0.0978535 0.113369 0)
(-0.0988561 0.102853 0)
(3.32702e-05 0.0356674 0)
(-0.000254441 0.0947114 0)
(-0.00136511 0.142459 0)
(-0.00341064 0.18036 0)
(-0.0063464 0.210275 0)
(-0.0100207 0.234189 0)
(-0.0142286 0.253895 0)
(-0.0187651 0.270774 0)
(-0.0234559 0.285726 0)
(-0.0281676 0.299217 0)
(-0.0328038 0.311386 0)
(-0.0372967 0.322173 0)
(-0.0415971 0.331422 0)
(-0.0456684 0.338956 0)
(-0.0494823 0.344625 0)
(-0.0530178 0.348323 0)
(-0.0562608 0.350004 0)
(-0.0592045 0.34968 0)
(-0.0618499 0.34742 0)
(-0.0642054 0.343343 0)
(-0.066287 0.33761 0)
(-0.0681167 0.330416 0)
(-0.0697216 0.321975 0)
(-0.0711321 0.31251 0)
(-0.0723803 0.302243 0)
(-0.0734981 0.291381 0)
(-0.0745164 0.280113 0)
(-0.075463 0.268601 0)
(-0.0763623 0.256978 0)
(-0.0772348 0.245348 0)
(-0.0780966 0.233784 0)
(-0.0789599 0.222336 0)
(-0.079833 0.21103 0)
(-0.0807209 0.199875 0)
(-0.0816263 0.188866 0)
(-0.0825493 0.177991 0)
(-0.083489 0.167229 0)
(-0.0844433 0.156559 0)
(-0.0854097 0.145957 0)
(-0.0863854 0.135404 0)
(-0.087368 0.124878 0)
(-0.0883552 0.114365 0)
(-0.0893452 0.103851 0)
(-0.0903366 0.0933267 0)
(-0.0913285 0.0827837 0)
(-0.0923206 0.0722174 0)
(-0.0933127 0.0616245 0)
(-0.0943052 0.0510034 0)
(-0.0952984 0.0403537 0)
(7.7945e-05 0.035702 0)
(2.13904e-05 0.0952563 0)
(-0.000648945 0.143794 0)
(-0.00215772 0.182572 0)
(-0.00451999 0.213292 0)
(-0.00761681 0.237847 0)
(-0.0112606 0.257992 0)
(-0.0152519 0.275121 0)
(-0.0194152 0.290167 0)
(-0.0236138 0.303636 0)
(-0.0277497 0.315701 0)
(-0.0317551 0.326326 0)
(-0.0355836 0.335372 0)
(-0.0392023 0.342674 0)
(-0.0425876 0.348088 0)
(-0.0457228 0.351516 0)
(-0.0485978 0.352919 0)
(-0.0512093 0.352315 0)
(-0.0535604 0.349781 0)
(-0.0556608 0.345442 0)
(-0.0575262 0.339466 0)
(-0.0591776 0.332053 0)
(-0.0606396 0.32342 0)
(-0.0619396 0.313792 0)
(-0.0631056 0.303392 0)
(-0.0641654 0.292426 0)
(-0.0651452 0.281082 0)
(-0.0660684 0.269517 0)
(-0.0669553 0.257862 0)
(-0.0678226 0.246215 0)
(-0.0686831 0.234648 0)
(-0.0695464 0.223206 0)
(-0.0704189 0.211911 0)
(-0.0713044 0.200771 0)
(-0.0722045 0.189779 0)
(-0.0731192 0.178919 0)
(-0.0740475 0.168171 0)
(-0.0749876 0.157513 0)
(-0.0759376 0.146921 0)
(-0.0768955 0.136375 0)
(-0.0778595 0.125855 0)
(-0.0788281 0.115346 0)
(-0.0798002 0.104835 0)
(-0.0807751 0.0943117 0)
(-0.0817527 0.0837701 0)
(-0.082733 0.0732052 0)
(-0.0837164 0.0626141 0)
(-0.0847036 0.0519953 0)
(-0.0856953 0.0413486 0)
(0.000121545 0.035592 0)
(0.000291657 0.0954482 0)
(5.83441e-05 0.144641 0)
(-0.000909764 0.184225 0)
(-0.00268842 0.215728 0)
(-0.0051948 0.240926 0)
(-0.00826159 0.261528 0)
(-0.0116968 0.278926 0)
(-0.0153248 0.294085 0)
(-0.0190063 0.307548 0)
(-0.0226411 0.319523 0)
(-0.0261614 0.330001 0)
(-0.0295226 0.338863 0)
(-0.0326954 0.345955 0)
(-0.0356602 0.351141 0)
(-0.0384048 0.35433 0)
(-0.0409226 0.355489 0)
(-0.0432132 0.354643 0)
(-0.0452814 0.351873 0)
(-0.0471377 0.347311 0)
(-0.0487974 0.341131 0)
(-0.0502796 0.333534 0)
(-0.0516066 0.324742 0)
(-0.052802 0.314981 0)
(-0.0538899 0.304473 0)
(-0.0548938 0.293425 0)
(-0.0558353 0.28202 0)
(-0.0567334 0.270414 0)
(-0.0576045 0.258735 0)
(-0.0584617 0.247077 0)
(-0.0593149 0.235509 0)
(-0.0601715 0.224072 0)
(-0.0610361 0.212788 0)
(-0.0619113 0.20166 0)
(-0.0627983 0.190681 0)
(-0.0636969 0.179833 0)
(-0.0646062 0.169097 0)
(-0.0655251 0.158449 0)
(-0.0664521 0.147865 0)
(-0.0673859 0.137325 0)
(-0.0683256 0.12681 0)
(-0.0692705 0.116306 0)
(-0.0702201 0.105798 0)
(-0.0711745 0.0952793 0)
(-0.0721341 0.0847417 0)
(-0.0730994 0.0741813 0)
(-0.0740713 0.0635953 0)
(-0.0750507 0.0529826 0)
(-0.0760388 0.0423429 0)
(0.000162606 0.0353432 0)
(0.000553605 0.0952921 0)
(0.000752085 0.145002 0)
(0.000323924 0.185316 0)
(-0.000864998 0.217572 0)
(-0.00277041 0.243416 0)
(-0.00524919 0.264492 0)
(-0.00811886 0.282182 0)
(-0.0112051 0.297475 0)
(-0.0143663 0.310949 0)
(-0.0174999 0.322851 0)
(-0.0205376 0.333202 0)
(-0.0234363 0.3419 0)
(-0.0261696 0.348806 0)
(-0.0287217 0.353792 0)
(-0.0310842 0.356775 0)
(-0.033254 0.357725 0)
(-0.0352329 0.356674 0)
(-0.0370275 0.353707 0)
(-0.0386485 0.348961 0)
(-0.0401102 0.342612 0)
(-0.0414299 0.334867 0)
(-0.0426269 0.325947 0)
(-0.0437213 0.316081 0)
(-0.0447331 0.305488 0)
(-0.0456812 0.294376 0)
(-0.0465828 0.282925 0)
(-0.0474529 0.271289 0)
(-0.0483039 0.259592 0)
(-0.0491456 0.247927 0)
(-0.0499854 0.236359 0)
(-0.0508284 0.224927 0)
(-0.0516779 0.213651 0)
(-0.0525356 0.202533 0)
(-0.0534022 0.191564 0)
(-0.0542776 0.180727 0)
(-0.0551612 0.169999 0)
(-0.0560523 0.159359 0)
(-0.0569503 0.148782 0)
(-0.0578546 0.138248 0)
(-0.0587651 0.127739 0)
(-0.0596817 0.11724 0)
(-0.0606048 0.106739 0)
(-0.061535 0.0962258 0)
(-0.0624733 0.0856952 0)
(-0.0634207 0.0751426 0)
(-0.0643785 0.0645657 0)
(-0.065348 0.0539632 0)
(-0.0663305 0.0433349 0)
(0.000200854 0.0349611 0)
(0.000804075 0.0947967 0)
(0.00142579 0.144879 0)
(0.00153517 0.18584 0)
(0.000938507 0.218817 0)
(-0.000359158 0.245307 0)
(-0.00224071 0.266875 0)
(-0.00453673 0.284881 0)
(-0.00707552 0.300331 0)
(-0.00971382 0.313839 0)
(-0.0123466 0.325689 0)
(-0.0149045 0.335932 0)
(-0.0173454 0.344489 0)
(-0.0196452 0.351235 0)
(-0.0217915 0.356051 0)
(-0.0237794 0.358859 0)
(-0.0256087 0.359636 0)
(-0.0272835 0.358416 0)
(-0.0288115 0.35529 0)
(-0.0302034 0.350397 0)
(-0.0314725 0.343916 0)
(-0.0326339 0.336055 0)
(-0.0337038 0.327038 0)
(-0.0346986 0.317092 0)
(-0.035634 0.306438 0)
(-0.0365248 0.295279 0)
(-0.0373837 0.283795 0)
(-0.0382218 0.272138 0)
(-0.0390477 0.260429 0)
(-0.0398682 0.24876 0)
(-0.0406882 0.237192 0)
(-0.041511 0.225765 0)
(-0.0423386 0.214495 0)
(-0.043172 0.203384 0)
(-0.0440116 0.192422 0)
(-0.0448573 0.181592 0)
(-0.0457091 0.170871 0)
(-0.0465669 0.160237 0)
(-0.0474306 0.149667 0)
(-0.0483005 0.13914 0)
(-0.0491772 0.128637 0)
(-0.0500615 0.118145 0)
(-0.0509544 0.107652 0)
(-0.0518571 0.097148 0)
(-0.0527712 0.0866276 0)
(-0.0536981 0.0760867 0)
(-0.0546394 0.0655229 0)
(-0.0555967 0.0549349 0)
(-0.0565717 0.0443227 0)
(0.000236076 0.0344522 0)
(0.00104138 0.0939724 0)
(0.00207421 0.144283 0)
(0.00271445 0.185802 0)
(0.0027101 0.219459 0)
(0.00202476 0.246592 0)
(0.000747043 0.268668 0)
(-0.000968456 0.287016 0)
(-0.00295484 0.30265 0)
(-0.00506813 0.316217 0)
(-0.00720075 0.328038 0)
(-0.00928174 0.338195 0)
(-0.0112691 0.346635 0)
(-0.0131409 0.353247 0)
(-0.0148875 0.357922 0)
(-0.0165069 0.360589 0)
(-0.0180018 0.361228 0)
(-0.0193782 0.359877 0)
(-0.0206446 0.356628 0)
(-0.0218116 0.351624 0)
(-0.0228911 0.345047 0)
(-0.0238961 0.337103 0)
(-0.0248395 0.328017 0)
(-0.0257341 0.318016 0)
(-0.0265914 0.307319 0)
(-0.0274219 0.29613 0)
(-0.0282342 0.284625 0)
(-0.0290353 0.272956 0)
(-0.0298307 0.26124 0)
(-0.0306241 0.249569 0)
(-0.0314181 0.238002 0)
(-0.0322143 0.226578 0)
(-0.0330136 0.215312 0)
(-0.0338164 0.204206 0)
(-0.0346229 0.193249 0)
(-0.0354332 0.182424 0)
(-0.0362478 0.171708 0)
(-0.037067 0.16108 0)
(-0.0378917 0.150515 0)
(-0.0387229 0.139995 0)
(-0.0395619 0.1295 0)
(-0.0404102 0.119017 0)
(-0.0412695 0.108534 0)
(-0.0421417 0.0980428 0)
(-0.0430287 0.0875363 0)
(-0.0439325 0.0770111 0)
(-0.044855 0.0664646 0)
(-0.0457982 0.0558959 0)
(-0.0467638 0.0453045 0)
(0.00026803 0.0338242 0)
(0.001264 0.092832 0)
(0.00269291 0.143222 0)
(0.00385351 0.185206 0)
(0.00443774 0.219498 0)
(0.00436671 0.247265 0)
(0.00369804 0.269866 0)
(0.00256861 0.288582 0)
(0.00113866 0.304429 0)
(-0.000447772 0.318082 0)
(-0.00208085 0.329899 0)
(-0.00368762 0.339996 0)
(-0.00522566 0.348343 0)
(-0.0066743 0.354848 0)
(-0.00802631 0.359413 0)
(-0.00928226 0.361971 0)
(-0.0104472 0.362506 0)
(-0.011529 0.361059 0)
(-0.0125368 0.357725 0)
(-0.0134809 0.352646 0)
(-0.0143719 0.346005 0)
(-0.0152203 0.338008 0)
(-0.016036 0.328881 0)
(-0.0168279 0.318849 0)
(-0.0176037 0.30813 0)
(-0.0183697 0.296925 0)
(-0.0191304 0.285411 0)
(-0.0198892 0.273737 0)
(-0.0206481 0.26202 0)
(-0.0214083 0.250348 0)
(-0.0221702 0.238783 0)
(-0.0229337 0.22736 0)
(-0.0236987 0.216097 0)
(-0.0244651 0.204993 0)
(-0.025233 0.194039 0)
(-0.0260028 0.183216 0)
(-0.0267752 0.172505 0)
(-0.0275514 0.161881 0)
(-0.0283329 0.151323 0)
(-0.0291214 0.14081 0)
(-0.029919 0.130325 0)
(-0.030728 0.119853 0)
(-0.0315507 0.109383 0)
(-0.0323895 0.0989074 0)
(-0.0332468 0.0884187 0)
(-0.034125 0.0779133 0)
(-0.0350265 0.0673889 0)
(-0.0359534 0.0568441 0)
(-0.0369078 0.0462785 0)
(0.000296534 0.0330856 0)
(0.00147055 0.0913908 0)
(0.00327777 0.141712 0)
(0.00494471 0.18406 0)
(0.00611029 0.218937 0)
(0.00665267 0.247326 0)
(0.00659614 0.270464 0)
(0.00605719 0.289575 0)
(0.00518729 0.305665 0)
(0.00412933 0.319434 0)
(0.00299518 0.331274 0)
(0.00186013 0.341336 0)
(0.000767922 0.349617 0)
(-0.00026169 0.356043 0)
(-0.00122344 0.360526 0)
(-0.00211975 0.363007 0)
(-0.00295791 0.363473 0)
(-0.00374723 0.361966 0)
(-0.00449764 0.358582 0)
(-0.00521893 0.353462 0)
(-0.00592032 0.34679 0)
(-0.00661 0.338771 0)
(-0.00729482 0.329629 0)
(-0.00798013 0.319588 0)
(-0.00866967 0.308865 0)
(-0.00936575 0.29766 0)
(-0.0100692 0.286148 0)
(-0.0107795 0.274476 0)
(-0.0114959 0.262761 0)
(-0.0122166 0.251092 0)
(-0.0129402 0.239528 0)
(-0.0136651 0.228107 0)
(-0.0143903 0.216843 0)
(-0.015115 0.20574 0)
(-0.0158394 0.194786 0)
(-0.016564 0.183965 0)
(-0.0172899 0.173257 0)
(-0.0180191 0.162637 0)
(-0.0187536 0.152085 0)
(-0.0194959 0.141581 0)
(-0.0202489 0.131107 0)
(-0.0210154 0.120649 0)
(-0.0217985 0.110196 0)
(-0.0226011 0.0997391 0)
(-0.0234262 0.0892722 0)
(-0.0242765 0.0787911 0)
(-0.0251547 0.0682934 0)
(-0.0260632 0.0577775 0)
(-0.0270043 0.047243 0)
(0.000321474 0.0322456 0)
(0.00165983 0.0896663 0)
(0.00382504 0.13977 0)
(0.00598092 0.182378 0)
(0.00771716 0.217781 0)
(0.00886906 0.246773 0)
(0.00942562 0.270459 0)
(0.00948031 0.28999 0)
(0.00917356 0.306356 0)
(0.00864566 0.320272 0)
(0.00801009 0.332165 0)
(0.00734476 0.342219 0)
(0.00669494 0.350461 0)
(0.00608068 0.356835 0)
(0.00550616 0.361266 0)
(0.00496693 0.363702 0)
(0.00445388 0.364132 0)
(0.00395636 0.362599 0)
(0.00346394 0.359198 0)
(0.00296719 0.354072 0)
(0.00245827 0.347399 0)
(0.00193118 0.339387 0)
(0.00138196 0.330256 0)
(0.000808749 0.320228 0)
(0.000211711 0.30952 0)
(-0.000408123 0.298328 0)
(-0.00104778 0.286828 0)
(-0.00170305 0.275166 0)
(-0.0023702 0.263459 0)
(-0.00304526 0.251794 0)
(-0.0037246 0.240232 0)
(-0.0044053 0.228811 0)
(-0.0050853 0.217547 0)
(-0.0057635 0.206442 0)
(-0.00643977 0.195487 0)
(-0.00711492 0.184667 0)
(-0.00779057 0.17396 0)
(-0.00846902 0.163344 0)
(-0.00915311 0.152799 0)
(-0.00984607 0.142305 0)
(-0.0105514 0.131844 0)
(-0.0112726 0.121403 0)
(-0.0120134 0.110969 0)
(-0.0127772 0.100535 0)
(-0.0135675 0.0900943 0)
(-0.0143874 0.0796421 0)
(-0.01524 0.0691759 0)
(-0.016128 0.0586941 0)
(-0.0170539 0.0481959 0)
(0.000342794 0.0313137 0)
(0.00183088 0.0876775 0)
(0.00433141 0.137416 0)
(0.00695553 0.180175 0)
(0.00924827 0.216039 0)
(0.0110027 0.245611 0)
(0.0121711 0.26985 0)
(0.0128212 0.289825 0)
(0.0130801 0.306499 0)
(0.0130838 0.320596 0)
(0.0129467 0.332572 0)
(0.0127495 0.342647 0)
(0.0125395 0.350877 0)
(0.0123378 0.357227 0)
(0.0121481 0.361636 0)
(0.0119644 0.364057 0)
(0.011776 0.364482 0)
(0.0115711 0.362956 0)
(0.0113389 0.359572 0)
(0.0110701 0.354471 0)
(0.0107582 0.347829 0)
(0.0103993 0.339852 0)
(0.00999206 0.330756 0)
(0.00953787 0.320763 0)
(0.0090403 0.310086 0)
(0.00850423 0.298923 0)
(0.00793607 0.287445 0)
(0.00734303 0.275801 0)
(0.00673186 0.264105 0)
(0.00610896 0.252448 0)
(0.00547985 0.240889 0)
(0.00484888 0.229468 0)
(0.00421906 0.218202 0)
(0.00359199 0.207094 0)
(0.00296797 0.196137 0)
(0.00234605 0.185316 0)
(0.00172426 0.17461 0)
(0.00109977 0.163999 0)
(0.000469147 0.153462 0)
(-0.000171512 0.142979 0)
(-0.000826342 0.132533 0)
(-0.00149957 0.122111 0)
(-0.00219539 0.111701 0)
(-0.00291789 0.101293 0)
(0.000360482 0.0303001 0)
(0.00198294 0.0854452 0)
(0.004794 0.134674 0)
(0.00786252 0.17747 0)
(0.0106941 0.213723 0)
(0.013041 0.243843 0)
(0.0148174 0.268637 0)
(0.0160633 0.28908 0)
(0.0168897 0.306092 0)
(0.0174264 0.320404 0)
(0.017788 0.332496 0)
(0.0180577 0.342622 0)
(0.0182857 0.350868 0)
(0.0184945 0.357222 0)
(0.018688 0.361636 0)
(0.0188592 0.364071 0)
(0.0189963 0.364524 0)
(0.0190863 0.363036 0)
(0.0191179 0.3597 0)
(0.0190821 0.354655 0)
(0.0189734 0.348074 0)
(0.0187897 0.340157 0)
(0.0185323 0.331122 0)
(0.0182054 0.321185 0)
(0.0178158 0.310558 0)
(0.017372 0.299436 0)
(0.0168835 0.287992 0)
(0.0163605 0.276372 0)
(0.0158127 0.264694 0)
(0.0152486 0.253047 0)
(0.0146758 0.241493 0)
(0.0141001 0.230072 0)
(0.0135253 0.218803 0)
(0.0129538 0.207693 0)
(0.0123859 0.196733 0)
(0.0118207 0.18591 0)
(0.011256 0.175205 0)
(0.0106885 0.164599 0)
(0.0101141 0.15407 0)
(0.00952846 0.1436 0)
(0.00892671 0.133172 0)
(0.00830404 0.122772 0)
(0.00765566 0.112388 0)
(0.00697698 0.102011 0)
(0.000374571 0.029215 0)
(0.00211548 0.0829915 0)
(0.00521038 0.131567 0)
(0.00869648 0.174285 0)
(0.0120457 0.210849 0)
(0.0149715 0.241479 0)
(0.0173496 0.266824 0)
(0.01919 0.287752 0)
(0.0205849 0.305135 0)
(0.0216561 0.319696 0)
(0.0225169 0.331938 0)
(0.023253 0.342146 0)
(0.0239176 0.350436 0)
(0.0245355 0.35682 0)
(0.0251114 0.361267 0)
(0.025638 0.363746 0)
(0.0261023 0.364254 0)
(0.0264907 0.362834 0)
(0.026791 0.359578 0)
(0.0269946 0.354617 0)
(0.0270968 0.348125 0)
(0.027097 0.340297 0)
(0.0269986 0.331344 0)
(0.0268087 0.321484 0)
(0.0265368 0.310924 0)
(0.0261946 0.299858 0)
(0.0257949 0.28846 0)
(0.0253505 0.276874 0)
(0.0248738 0.265219 0)
(0.0243757 0.253586 0)
(0.0238656 0.242038 0)
(0.0233507 0.230618 0)
(0.0228359 0.219348 0)
(0.0223241 0.208233 0)
(0.0218161 0.19727 0)
(0.0213111 0.186445 0)
(0.0208065 0.175742 0)
(0.0202986 0.165141 0)
(0.0197831 0.154622 0)
(0.0192549 0.144166 0)
(0.0187087 0.133758 0)
(0.018139 0.123382 0)
(0.0175405 0.113028 0)
(0.016908 0.102686 0)
(0.000385129 0.028069 0)
(0.00222815 0.0803397 0)
(0.0055786 0.128126 0)
(0.00945266 0.170647 0)
(0.0132948 0.207436 0)
(0.0167825 0.238531 0)
(0.0197532 0.264415 0)
(0.0221848 0.285842 0)
(0.0241483 0.303625 0)
(0.0257551 0.318471 0)
(0.0271158 0.330897 0)
(0.0283183 0.341218 0)
(0.029419 0.349581 0)
(0.0304454 0.356024 0)
(0.0314037 0.36053 0)
(0.0322867 0.363078 0)
(0.0330811 0.363669 0)
(0.0337723 0.362347 0)
(0.0343476 0.359197 0)
(0.0347983 0.354351 0)
(0.0351203 0.347974 0)
(0.0353144 0.340259 0)
(0.0353857 0.331414 0)
(0.0353436 0.32165 0)
(0.0352004 0.311175 0)
(0.0349706 0.300181 0)
(0.0346696 0.288839 0)
(0.0343132 0.277296 0)
(0.0339162 0.265671 0)
(0.0334917 0.254056 0)
(0.033051 0.242519 0)
(0.0326026 0.231102 0)
(0.0321528 0.21983 0)
(0.0317051 0.208712 0)
(0.0312609 0.197746 0)
(0.0308192 0.186919 0)
(0.0303775 0.176218 0)
(0.029932 0.165622 0)
(0.0294779 0.155114 0)
(0.0290095 0.144674 0)
(0.0285211 0.134288 0)
(0.0280066 0.12394 0)
(0.0274603 0.113619 0)
(0.0268764 0.103315 0)
(0.000392259 0.0268725 0)
(0.00232084 0.0775138 0)
(0.00589719 0.124378 0)
(0.010127 0.166582 0)
(0.0144339 0.203507 0)
(0.0184629 0.235012 0)
(0.0220138 0.261417 0)
(0.025031 0.283354 0)
(0.0275621 0.301563 0)
(0.0297052 0.316727 0)
(0.0315671 0.329372 0)
(0.0332365 0.339839 0)
(0.0347732 0.348305 0)
(0.0362081 0.354832 0)
(0.0375494 0.359422 0)
(0.0387909 0.362065 0)
(0.0399189 0.362767 0)
(0.0409183 0.361567 0)
(0.0417759 0.358552 0)
(0.0424826 0.353847 0)
(0.0430348 0.347612 0)
(0.043434 0.340035 0)
(0.043687 0.331319 0)
(0.043805 0.321673 0)
(0.0438027 0.311301 0)
(0.0436969 0.300393 0)
(0.0435059 0.28912 0)
(0.0432478 0.27763 0)
(0.0429397 0.266042 0)
(0.0425972 0.254452 0)
(0.042233 0.242928 0)
(0.0418576 0.231517 0)
(0.0414781 0.220246 0)
(0.0410991 0.209125 0)
(0.0407224 0.198156 0)
(0.0403474 0.187329 0)
(0.0399716 0.176629 0)
(0.039591 0.16604 0)
(0.0392006 0.155544 0)
(0.0387943 0.145123 0)
(0.0383659 0.134761 0)
(0.0379089 0.124443 0)
(0.0374169 0.114158 0)
(0.0368838 0.103896 0)
(0.000396098 0.0256362 0)
(0.0023936 0.0745386 0)
(0.00616514 0.120356 0)
(0.0107161 0.162124 0)
(0.0154562 0.199088 0)
(0.0200022 0.230941 0)
(0.0241175 0.257842 0)
(0.0277124 0.280291 0)
(0.0308083 0.298949 0)
(0.033488 0.314464 0)
(0.0358521 0.327364 0)
(0.0379893 0.338009 0)
(0.0399627 0.346606 0)
(0.0418067 0.353244 0)
(0.0435324 0.357943 0)
(0.0451349 0.360705 0)
(0.0466009 0.36154 0)
(0.0479148 0.360489 0)
(0.0490628 0.357634 0)
(0.0500355 0.353094 0)
(0.0508293 0.347026 0)
(0.0514462 0.33961 0)
(0.0518942 0.331047 0)
(0.0521859 0.321539 0)
(0.0523378 0.311287 0)
(0.0523692 0.300481 0)
(0.0523005 0.289291 0)
(0.0521521 0.277865 0)
(0.0519434 0.266323 0)
(0.0516919 0.254764 0)
(0.0514124 0.243259 0)
(0.0511168 0.231857 0)
(0.0508136 0.220589 0)
(0.0505082 0.209468 0)
(0.0502031 0.198497 0)
(0.0498983 0.18767 0)
(0.0495914 0.176974 0)
(0.0492784 0.166393 0)
(0.048954 0.15591 0)
(0.0486121 0.145509 0)
(0.0482458 0.135173 0)
(0.0478484 0.124889 0)
(0.047413 0.114644 0)
(0.0469329 0.104428 0)
(0.000396809 0.0243703 0)
(0.0024467 0.0714394 0)
(0.00638196 0.116094 0)
(0.0112174 0.157307 0)
(0.016356 0.194209 0)
(0.0213908 0.22634 0)
(0.0260511 0.253701 0)
(0.0302125 0.27666 0)
(0.0338687 0.295786 0)
(0.0370843 0.311682 0)
(0.0399516 0.324869 0)
(0.0425579 0.335726 0)
(0.0449692 0.344484 0)
(0.0472236 0.351258 0)
(0.0493356 0.356091 0)
(0.0513023 0.358994 0)
(0.0531112 0.359985 0)
(0.0547464 0.359105 0)
(0.0561938 0.356432 0)
(0.0574434 0.352082 0)
(0.0584913 0.346204 0)
(0.0593396 0.338973 0)
(0.0599971 0.330583 0)
(0.0604774 0.321233 0)
(0.0607985 0.311121 0)
(0.0609815 0.300433 0)
(0.0610487 0.28934 0)
(0.0610227 0.277989 0)
(0.0609249 0.266504 0)
(0.0607748 0.254984 0)
(0.0605889 0.243504 0)
(0.0603809 0.232116 0)
(0.0601604 0.220854 0)
(0.0599342 0.209736 0)
(0.0597054 0.198766 0)
(0.0594747 0.18794 0)
(0.0592399 0.177249 0)
(0.0589974 0.166677 0)
(0.0587416 0.15621 0)
(0.0584662 0.145831 0)
(0.0581644 0.135524 0)
(0.0578287 0.125276 0)
(0.0574519 0.115074 0)
(0.057027 0.104908 0)
(0.000394579 0.0230849 0)
(0.00248058 0.0682416 0)
(0.00654763 0.111625 0)
(0.0116291 0.152167 0)
(0.0171283 0.188902 0)
(0.0226198 0.221235 0)
(0.0278017 0.249013 0)
(0.0325154 0.27247 0)
(0.0367249 0.292076 0)
(0.0404745 0.30838 0)
(0.0438454 0.321889 0)
(0.0469225 0.332989 0)
(0.0497732 0.341938 0)
(0.0524399 0.348874 0)
(0.0549407 0.353862 0)
(0.0572753 0.356927 0)
(0.0594323 0.358094 0)
(0.0613965 0.357406 0)
(0.0631529 0.354937 0)
(0.064691 0.350798 0)
(0.0660064 0.345132 0)
(0.067101 0.338108 0)
(0.0679836 0.329912 0)
(0.0686687 0.320741 0)
(0.0691753 0.310787 0)
(0.0695258 0.300234 0)
(0.069744 0.289253 0)
(0.0698545 0.277991 0)
(0.0698805 0.266573 0)
(0.0698433 0.255102 0)
(0.0697613 0.243654 0)
(0.0696496 0.232287 0)
(0.0695195 0.221036 0)
(0.0693788 0.209923 0)
(0.0692317 0.198957 0)
(0.0690795 0.188135 0)
(0.0689207 0.177451 0)
(0.0687517 0.166891 0)
(0.0685672 0.156441 0)
(0.0683609 0.146086 0)
(0.0681256 0.135811 0)
(0.0678538 0.125601 0)
(0.0675379 0.115446 0)
(0.0671703 0.105333 0)
(0.000389619 0.02179 0)
(0.00249586 0.0649704 0)
(0.00666261 0.106986 0)
(0.0119502 0.146743 0)
(0.0177693 0.183206 0)
(0.0236815 0.215656 0)
(0.0293575 0.243799 0)
(0.0346053 0.267733 0)
(0.0393584 0.287824 0)
(0.0436382 0.30456 0)
(0.0475128 0.31842 0)
(0.051062 0.329797 0)
(0.0543543 0.338964 0)
(0.0574356 0.346088 0)
(0.060328 0.351252 0)
(0.0630345 0.3545 0)
(0.0655457 0.355862 0)
(0.0678465 0.355383 0)
(0.0699221 0.353137 0)
(0.0717611 0.349229 0)
(0.0733581 0.343796 0)
(0.0747148 0.336998 0)
(0.0758395 0.329018 0)
(0.076747 0.320045 0)
(0.0774567 0.310267 0)
(0.0779919 0.299868 0)
(0.0783779 0.289014 0)
(0.0786405 0.277855 0)
(0.0788048 0.266518 0)
(0.0788936 0.255105 0)
(0.0789271 0.243699 0)
(0.0789219 0.232359 0)
(0.0788909 0.221126 0)
(0.0788432 0.210024 0)
(0.078784 0.199065 0)
(0.0787156 0.188251 0)
(0.078637 0.177576 0)
(0.0785453 0.167031 0)
(0.0784353 0.156601 0)
(0.0783009 0.146272 0)
(0.0781347 0.136031 0)
(0.077929 0.125864 0)
(0.0776761 0.115757 0)
(0.077368 0.105702 0)
(0.000382155 0.0204947 0)
(0.00249332 0.0616509 0)
(0.00672786 0.102212 0)
(0.0121807 0.141078 0)
(0.0182763 0.177159 0)
(0.0245694 0.209636 0)
(0.0307076 0.238082 0)
(0.0364673 0.262464 0)
(0.0417508 0.28304 0)
(0.0465549 0.300224 0)
(0.0509317 0.314463 0)
(0.0549542 0.326146 0)
(0.0586903 0.335562 0)
(0.0621889 0.342898 0)
(0.0654764 0.34826 0)
(0.0685593 0.351707 0)
(0.0714306 0.35328 0)
(0.0740765 0.353028 0)
(0.0764817 0.351022 0)
(0.0786343 0.347363 0)
(0.080528 0.34218 0)
(0.0821633 0.335629 0)
(0.0835481 0.327883 0)
(0.0846966 0.319127 0)
(0.0856285 0.309545 0)
(0.0863674 0.299316 0)
(0.0869395 0.288607 0)
(0.0873718 0.277566 0)
(0.0876905 0.266322 0)
(0.0879201 0.254981 0)
(0.0880824 0.243627 0)
(0.0881955 0.232324 0)
(0.0882738 0.221115 0)
(0.0883277 0.21003 0)
(0.0883639 0.199084 0)
(0.0883855 0.188282 0)
(0.0883925 0.177621 0)
(0.0883824 0.167093 0)
(0.0883507 0.156685 0)
(0.0882913 0.146387 0)
(0.088197 0.136183 0)
(0.0880601 0.12606 0)
(0.0878725 0.116007 0)
(0.0876263 0.106012 0)
(0.000372427 0.0192081 0)
(0.00247386 0.0583076 0)
(0.00674477 0.0973408 0)
(0.0123213 0.135214 0)
(0.0186478 0.170806 0)
(0.0252784 0.203213 0)
(0.0318422 0.231893 0)
(0.0380871 0.256684 0)
(0.0438841 0.277733 0)
(0.0492036 0.295377 0)
(0.0540797 0.310019 0)
(0.0585759 0.322037 0)
(0.0627578 0.331728 0)
(0.0666767 0.339299 0)
(0.070363 0.344879 0)
(0.0738271 0.348543 0)
(0.077065 0.350342 0)
(0.0800642 0.350331 0)
(0.0828099 0.348579 0)
(0.0852893 0.345184 0)
(0.087495 0.340268 0)
(0.0894265 0.33398 0)
(0.0910902 0.326488 0)
(0.0924997 0.317968 0)
(0.0936742 0.3086 0)
(0.0946373 0.29856 0)
(0.0954156 0.288013 0)
(0.0960367 0.277107 0)
(0.0965279 0.265971 0)
(0.096915 0.254715 0)
(0.0972212 0.243425 0)
(0.0974661 0.232169 0)
(0.0976657 0.220994 0)
(0.0978317 0.209934 0)
(0.0979722 0.199007 0)
(0.0980914 0.188223 0)
(0.0981903 0.177579 0)
(0.0982673 0.167072 0)
(0.0983183 0.156692 0)
(0.0983378 0.146426 0)
(0.0983187 0.136262 0)
(0.0982535 0.126188 0)
(0.0981339 0.116191 0)
(0.097952 0.106261 0)
(0.000360681 0.0179384 0)
(0.00243854 0.0549641 0)
(0.00671516 0.0924072 0)
(0.0123734 0.129195 0)
(0.0188835 0.164192 0)
(0.0258046 0.19643 0)
(0.0327532 0.225266 0)
(0.0394515 0.250417 0)
(0.0457406 0.27192 0)
(0.0515633 0.290026 0)
(0.0569333 0.30509 0)
(0.0619025 0.317467 0)
(0.066532 0.327459 0)
(0.0708743 0.33529 0)
(0.0749633 0.341107 0)
(0.0788137 0.345002 0)
(0.0824247 0.347041 0)
(0.0857859 0.347282 0)
(0.0888828 0.345796 0)
(0.0917024 0.342678 0)
(0.094236 0.338043 0)
(0.0964815 0.332035 0)
(0.098444 0.324812 0)
(0.100135 0.316546 0)
(0.101574 0.30741 0)
(0.102784 0.297578 0)
(0.10379 0.287211 0)
(0.104621 0.276457 0)
(0.105305 0.265446 0)
(0.105868 0.25429 0)
(0.106336 0.243078 0)
(0.106728 0.23188 0)
(0.107063 0.22075 0)
(0.107353 0.209724 0)
(0.107608 0.198825 0)
(0.107834 0.188064 0)
(0.108033 0.177445 0)
(0.108203 0.166964 0)
(0.108343 0.156615 0)
(0.108446 0.146386 0)
(0.108506 0.136267 0)
(0.108516 0.126245 0)
(0.108468 0.116308 0)
(0.108353 0.106446 0)
(0.000347173 0.0166934 0)
(0.00238851 0.0516432 0)
(0.00664124 0.0874478 0)
(0.0123395 0.123067 0)
(0.0189843 0.157365 0)
(0.026146 0.189333 0)
(0.0334338 0.218238 0)
(0.0405487 0.24369 0)
(0.0473036 0.265617 0)
(0.0536132 0.284182 0)
(0.0594689 0.299678 0)
(0.0649084 0.312436 0)
(0.0699865 0.322754 0)
(0.074755 0.330866 0)
(0.0792508 0.336937 0)
(0.0834927 0.341079 0)
(0.0874836 0.343368 0)
(0.0912153 0.343871 0)
(0.0946746 0.342662 0)
(0.0978479 0.33983 0)
(0.100725 0.335489 0)
(0.103303 0.329774 0)
(0.105585 0.322836 0)
(0.10758 0.31484 0)
(0.109307 0.305954 0)
(0.110786 0.296347 0)
(0.112043 0.286179 0)
(0.113107 0.275595 0)
(0.114006 0.264727 0)
(0.114767 0.253686 0)
(0.115415 0.242567 0)
(0.115972 0.231443 0)
(0.116458 0.22037 0)
(0.116887 0.209389 0)
(0.11727 0.198527 0)
(0.117614 0.187798 0)
(0.117922 0.17721 0)
(0.118194 0.166762 0)
(0.118429 0.156449 0)
(0.118621 0.146263 0)
(0.118766 0.136192 0)
(0.118855 0.126227 0)
(0.118882 0.116355 0)
(0.118837 0.106565 0)
(0.000332154 0.0154802 0)
(0.00232498 0.0483665 0)
(0.00652554 0.0824976 0)
(0.0122228 0.116873 0)
(0.0189525 0.150377 0)
(0.0263019 0.181971 0)
(0.0338791 0.210855 0)
(0.0413686 0.23654 0)
(0.0485575 0.25885 0)
(0.0553328 0.277858 0)
(0.0616624 0.293793 0)
(0.0675672 0.306947 0)
(0.0730934 0.317611 0)
(0.0782905 0.326024 0)
(0.0831971 0.332367 0)
(0.0878359 0.336767 0)
(0.0922135 0.339316 0)
(0.0963245 0.340089 0)
(0.100157 0.339163 0)
(0.103697 0.336626 0)
(0.106935 0.332588 0)
(0.109864 0.327177 0)
(0.112486 0.320537 0)
(0.114808 0.312826 0)
(0.116846 0.304208 0)
(0.118619 0.294844 0)
(0.120154 0.284892 0)
(0.121476 0.274497 0)
(0.122613 0.263789 0)
(0.123594 0.252883 0)
(0.124445 0.241874 0)
(0.125188 0.230838 0)
(0.125844 0.219837 0)
(0.126428 0.208914 0)
(0.126953 0.198099 0)
(0.127428 0.187413 0)
(0.127856 0.176865 0)
(0.12824 0.166458 0)
(0.128578 0.156188 0)
(0.128868 0.146049 0)
(0.129103 0.136033 0)
(0.129277 0.126129 0)
(0.129383 0.116326 0)
(0.129413 0.106614 0)
(0.000315876 0.0143052 0)
(0.00224923 0.0451543 0)
(0.00637084 0.0775905 0)
(0.0120268 0.110661 0)
(0.0187913 0.143278 0)
(0.0262734 0.174397 0)
(0.0340861 0.203164 0)
(0.0419027 0.229006 0)
(0.049488 0.251648 0)
(0.0567025 0.271074 0)
(0.0634896 0.287442 0)
(0.0698517 0.301004 0)
(0.0758237 0.312029 0)
(0.0814507 0.32076 0)
(0.0867719 0.32739 0)
(0.0918129 0.33206 0)
(0.096584 0.334877 0)
(0.101083 0.335925 0)
(0.1053 0.335287 0)
(0.109221 0.333051 0)
(0.112834 0.329323 0)
(0.116133 0.324224 0)
(0.119116 0.317894 0)
(0.121788 0.310482 0)
(0.124163 0.302145 0)
(0.126257 0.293042 0)
(0.128095 0.283325 0)
(0.129701 0.273138 0)
(0.131104 0.26261 0)
(0.132332 0.251857 0)
(0.133409 0.240975 0)
(0.13436 0.230046 0)
(0.135207 0.219131 0)
(0.135966 0.208281 0)
(0.13665 0.197528 0)
(0.137271 0.186896 0)
(0.137834 0.176398 0)
(0.138341 0.16604 0)
(0.138794 0.155822 0)
(0.139189 0.145739 0)
(0.139522 0.135783 0)
(0.139788 0.125946 0)
(0.139979 0.116219 0)
(0.140089 0.106589 0)
(0.000298578 0.0131741 0)
(0.00216256 0.0420255 0)
(0.00618014 0.0727592 0)
(0.011756 0.104474 0)
(0.0185051 0.136124 0)
(0.026063 0.166668 0)
(0.0340536 0.195218 0)
(0.0421446 0.221132 0)
(0.0500827 0.244045 0)
(0.057704 0.263853 0)
(0.0649271 0.280641 0)
(0.0717343 0.294612 0)
(0.0781472 0.30601 0)
(0.084204 0.315074 0)
(0.0899428 0.322002 0)
(0.0953912 0.326952 0)
(0.100563 0.330043 0)
(0.105458 0.331371 0)
(0.11007 0.331023 0)
(0.114385 0.32909 0)
(0.118391 0.325675 0)
(0.122078 0.320896 0)
(0.125443 0.314883 0)
(0.128489 0.307781 0)
(0.131226 0.299741 0)
(0.133668 0.290914 0)
(0.135837 0.28145 0)
(0.137757 0.27149 0)
(0.139454 0.261162 0)
(0.140954 0.250581 0)
(0.142285 0.239847 0)
(0.14347 0.229042 0)
(0.144531 0.218233 0)
(0.145486 0.207471 0)
(0.146351 0.196795 0)
(0.147136 0.186231 0)
(0.147849 0.175796 0)
(0.148494 0.165498 0)
(0.149073 0.155341 0)
(0.149585 0.145321 0)
(0.150026 0.135434 0)
(0.150392 0.125672 0)
(0.150675 0.116026 0)
(0.15087 0.106485 0)
(0.00028049 0.0120919 0)
(0.00206626 0.0389975 0)
(0.00595648 0.0680347 0)
(0.011415 0.0983571 0)
(0.0180991 0.128966 0)
(0.0256748 0.158842 0)
(0.0337823 0.187076 0)
(0.0420899 0.21297 0)
(0.050331 0.236083 0)
(0.0583202 0.256225 0)
(0.0659521 0.273409 0)
(0.0731876 0.287782 0)
(0.0800329 0.299558 0)
(0.0865174 0.308963 0)
(0.0926757 0.3162 0)
(0.098536 0.321438 0)
(0.104115 0.324807 0)
(0.109416 0.326416 0)
(0.114433 0.326359 0)
(0.119155 0.324729 0)
(0.123569 0.321629 0)
(0.127663 0.317171 0)
(0.131432 0.311483 0)
(0.134876 0.3047 0)
(0.138001 0.296968 0)
(0.140819 0.288433 0)
)
;

boundaryField
{
    movingWall
    {
        type            fixedValue;
        value           nonuniform List<vector> 0();