/*--------------------------------*- C++ -*----------------------------------*\
  =========                 |
  \\      /  F ield         | OpenFOAM: The Open Source CFD Toolbox
   \\    /   O peration     | Website:  https://openfoam.org
    \\  /    A nd           | Version:  9
     \\/     M anipulation  |
\*---------------------------------------------------------------------------*/
FoamFile
{
    format      ascii;
    class       volScalarField;
    location    "0.25";
    object      p;
}
// * * * * * * * * * * * * * * * * * * * * * * * * * * * * * * * * * * * * * //

dimensions      [0 2 -2 0 0 0 0];

internalField   nonuniform List<scalar> 
1260
(
0.00306099
0.00350431
0.00394252
0.00436738
0.00476856
0.00513482
0.00545466
0.00571699
0.0059119
0.00603159
0.00607115
0.00602928
0.00590881
0.00571683
0.00546451
0.00516639
0.00483932
0.00450092
0.00416805
0.00385525
0.00357356
0.00332993
0.00312722
0.00296481
0.00283966
0.00274775
0.00268452
0.00264653
0.00263514
0.00265802
0.00263882
0.0030966
0.00355195
0.00399652
0.0044194
0.00480874
0.00515236
0.00543847
0.00565642
0.00579758
0.0058561
0.00582964
0.00571998
0.00553331
0.00528022
0.00497527
0.00463597
0.00428136
0.00393023
0.00359926
0.00330146
0.00304517
0.00283385
0.00266665
0.00253963
0.0024473
0.00238402
0.00234499
0.00233066
0.00234777
0.00208863
0.00254906
0.00300938
0.00346123
0.00389367
0.00429495
0.00465318
0.00495693
0.00519591
0.00536155
0.00544765
0.00545086
0.00537132
0.00521306
0.0049844
0.00469787
0.00436972
0.00401882
0.00366492
0.0033266
0.0030192
0.00275329
0.00253389
0.00236081
0.00222981
0.00213447
0.00206788
0.00202444
0.00200312
0.00200902
0.00137969
0.00182386
0.00226859
0.00270585
0.00312535
0.00351661
0.00386957
0.00417507
0.00442516
0.00461325
0.00473411
0.00478402
0.00476105
0.00466559
0.00450116
0.00427509
0.00399899
0.0036884
0.00336173
0.00303822
0.00273553
0.0024674
0.00224194
0.00206129
0.00192241
0.00181894
0.00174351
0.00168992
0.00165586
0.00164381
0.000475343
0.00087463
0.00127163
0.00165894
0.00202789
0.00237093
0.00268225
0.00295794
0.0031957
0.00339405
0.00355133
0.00366495
0.003731
0.00374474
0.00370183
0.00360006
0.00344117
0.00323219
0.00298567
0.00271847
0.00244939
0.0021959
0.00197126
0.00178259
0.00163069
0.00151152
0.00141877
0.0013468
0.00129224
0.00125429
-0.000666351
-0.000352953
-5.09116e-05
0.000233434
0.00049411
0.000728942
0.000939837
0.00113248
0.00131498
0.0014956
0.00168017
0.00186981
0.00205964
0.00223878
0.00239197
0.00250234
0.00255513
0.00254128
0.00246011
0.00232017
0.00213775
0.00193337
0.00172725
0.00153514
0.00136595
0.00122183
0.00110061
0.000999306
0.000914428
0.000841729
-0.00209043
-0.00191839
-0.0017767
-0.00166909
-0.00159806
-0.00155689
-0.00153122
-0.00150008
-0.0014389
-0.00132387
-0.00113681
-0.000869214
-0.000524982
-0.000121024
0.000314315
0.000744958
0.00113252
0.00144267
0.00165126
0.0017487
0.00174126
0.00164867
0.00149849
0.00131899
0.0011331
0.000955315
0.000792781
0.000648901
0.000522092
0.000404989
-0.00384174
-0.00388125
-0.00398148
-0.0041474
-0.0043712
-0.00463359
-0.0049022
-0.00513415
-0.00528179
-0.00529977
-0.00515259
-0.00482053
-0.00430372
-0.0036235
-0.00282131
-0.00195477
-0.00109126
-0.000299163
0.000361989
0.000850954
0.0011513
0.00127282
0.00124681
0.00111649
0.00092566
0.000709831
0.000493495
0.000292536
0.000110808
-6.10938e-05
-0.00595694
-0.00629247
-0.00673517
-0.00728513
-0.00792513
-0.00861738
-0.00930404
-0.00991383
-0.0103698
-0.0106006
-0.0105501
-0.0101843
-0.00949676
-0.00851029
-0.0072766
-0.00587318
-0.00439724
-0.00295634
-0.00165566
-0.000583235
0.000204079
0.000689782
0.000898219
0.000885123
0.000720815
0.000472492
0.000193451
-7.86982e-05
-0.000329061
-0.000567092
-0.00845753
-0.00918067
-0.0100722
-0.0111257
-0.0123084
-0.0135576
-0.0147833
-0.0158811
-0.01674
-0.0172623
-0.0173701
-0.0170148
-0.0161814
-0.0148911
-0.0132006
-0.0112007
-0.00901295
-0.00678151
-0.00466116
-0.00279876
-0.00131119
-0.000264594
0.000337658
0.000551999
0.00047553
0.000217507
-0.000125234
-0.00048009
-0.000812725
-0.00112959
-0.0113407
-0.0125419
-0.013985
-0.0156527
-0.0174908
-0.0194058
-0.0212698
-0.022936
-0.0242691
-0.0251434
-0.0254619
-0.025164
-0.024228
-0.0226711
-0.0205491
-0.0179565
-0.0150265
-0.0119283
-0.00885899
-0.00602665
-0.00362292
-0.00178962
-0.000588536
1.19801e-05
0.000124432
-9.46933e-05
-0.000488844
-0.000932661
-0.00136024
-0.0017706
-0.0145717
-0.0163295
-0.0184091
-0.0207769
-0.0233506
-0.0259996
-0.0285551
-0.0308294
-0.0326714
-0.0339237
-0.0344799
-0.0342755
-0.0332863
-0.0315263
-0.029046
-0.0259334
-0.0223176
-0.018373
-0.0143199
-0.0104146
-0.00692492
-0.00408754
-0.00205771
-0.000868043
-0.000419793
-0.000517056
-0.000930815
-0.00146147
-0.00199471
-0.00251559
-0.018081
-0.0204509
-0.0232217
-0.0263374
-0.029681
-0.0330805
-0.0363314
-0.0392218
-0.0415422
-0.043151
-0.0439379
-0.043841
-0.0428399
-0.0409492
-0.0382136
-0.0347078
-0.0305425
-0.0258752
-0.0209214
-0.0159582
-0.0113111
-0.00731332
-0.00424032
-0.00223549
-0.00126224
-0.00111448
-0.00149003
-0.00209335
-0.00273971
-0.00339048
-0.0217668
-0.0247728
-0.0282505
-0.0321165
-0.0362157
-0.0403341
-0.0442289
-0.0476596
-0.050409
-0.052324
-0.0533054
-0.0533048
-0.0523144
-0.0503559
-0.0474716
-0.043722
-0.0391917
-0.0340038
-0.0283408
-0.0224644
-0.0167214
-0.0115186
-0.00725624
-0.00422682
-0.00251566
-0.0019609
-0.0022092
-0.00285487
-0.00361665
-0.00441816
-0.0255029
-0.0291337
-0.0332935
-0.0378675
-0.0426621
-0.0474241
-0.0518761
-0.0557551
-0.0588413
-0.0609864
-0.0621061
-0.0621711
-0.0611931
-0.0592079
-0.0562623
-0.0524074
-0.0477019
-0.042227
-0.0361127
-0.0295714
-0.0229262
-0.0166124
-0.01113
-0.00693293
-0.00428246
-0.00313334
-0.0031331
-0.00377065
-0.00464246
-0.00561533
-0.0433436
-0.0487384
-0.0540384
-0.0589388
-0.0631623
-0.0664889
-0.0687857
-0.0699823
-0.0700732
-0.0690941
-0.0671004
-0.0641502
-0.0602939
-0.0555719
-0.0500267
-0.0437294
-0.0368212
-0.0295611
-0.0223592
-0.0157629
-0.0103648
-0.00662961
-0.00470077
-0.00430533
-0.00486177
-0.00582765
-0.00698985
-0.0483233
-0.0542027
-0.059923
-0.0651594
-0.0696272
-0.0731159
-0.0754897
-0.0767086
-0.076789
-0.0757898
-0.0737889
-0.0708617
-0.0670666
-0.0624374
-0.0569889
-0.0507394
-0.0437533
-0.0362006
-0.0284179
-0.0209367
-0.0144332
-0.00956287
-0.00670758
-0.00576207
-0.00614327
-0.00717426
-0.00853841
-0.052627
-0.0588667
-0.0648894
-0.0703581
-0.0749833
-0.0785576
-0.0809629
-0.0821695
-0.0822148
-0.0811804
-0.0791667
-0.0762703
-0.0725648
-0.0680887
-0.0628437
-0.0568098
-0.049983
-0.042438
-0.0344072
-0.026349
-0.0189516
-0.0130104
-0.00915511
-0.00752225
-0.00762004
-0.00867331
-0.0102443
-0.0561258
-0.0626011
-0.0688141
-0.0744221
-0.0791344
-0.082746
-0.085149
-0.0863244
-0.0863247
-0.0852494
-0.0832195
-0.0803535
-0.076745
-0.0724459
-0.0674584
-0.0617416
-0.0552406
-0.047944
-0.0399708
-0.031667
-0.0236644
-0.0168238
-0.0119879
-0.00957574
-0.00928143
-0.0103017
-0.0120752
-0.0587439
-0.0653339
-0.0716324
-0.0772969
-0.0820376
-0.0856519
-0.0880353
-0.0891757
-0.0891345
-0.0880241
-0.0859825
-0.0831483
-0.0796364
-0.0755177
-0.0708053
-0.0654531
-0.0593751
-0.0524934
-0.0448221
-0.0365785
-0.0282872
-0.0207954
-0.0150912
-0.0118736
-0.0110955
-0.0120194
-0.0139812
-0.0604568
-0.0670468
-0.0733329
-0.0789782
-0.083696
-0.0872846
-0.0896399
-0.0907506
-0.0906815
-0.0895523
-0.0875131
-0.0847193
-0.0813059
-0.0773644
-0.0729248
-0.0679479
-0.0623349
-0.0559641
-0.0487644
-0.040829
-0.0325475
-0.0246882
-0.0183019
-0.0143244
-0.0130044
-0.0137673
-0.0158944
-0.0612886
-0.0677709
-0.073953
-0.0795078
-0.0841534
-0.0876893
-0.0900094
-0.0910988
-0.0910204
-0.0898956
-0.0878813
-0.0851452
-0.0818391
-0.0780734
-0.0738973
-0.0692858
-0.0641416
-0.05832
-0.0516898
-0.0442382
-0.0362153
-0.0282668
-0.0214272
-0.0167978
-0.0149225
-0.0154675
-0.0177295
-0.061306
-0.0675826
-0.0735761
-0.0789727
-0.0834959
-0.0869491
-0.0892239
-0.090298
-0.0902286
-0.0891335
-0.0871712
-0.0845168
-0.081334
-0.0777477
-0.0738255
-0.0695602
-0.064865
-0.0595894
-0.0535659
-0.0467013
-0.0391189
-0.031322
-0.0242665
-0.0191371
-0.0167383
-0.0170236
-0.0193862
-0.0606183
-0.066604
-0.0723262
-0.0774935
-0.0818458
-0.0851867
-0.087403
-0.0884625
-0.0884156
-0.0873723
-0.085489
-0.082943
-0.0799024
-0.0765031
-0.0728273
-0.0688854
-0.0646062
-0.0598451
-0.0544187
-0.04818
-0.0411487
-0.0336865
-0.0266307
-0.0211732
-0.0183191
-0.0183242
-0.0207531
-0.0593494
-0.0649755
-0.0703629
-0.0752443
-0.0793767
-0.0825692
-0.084705
-0.0857441
-0.0857258
-0.0847525
-0.0829723
-0.080557
-0.0776742
-0.0744695
-0.071033
-0.0673897
-0.0634852
-0.0591883
-0.0543151
-0.0486884
-0.0422516
-0.0352407
-0.0283567
-0.0227382
-0.0195189
-0.0192453
-0.0217106
-0.0576466
-0.0628642
-0.067868
-0.0724163
-0.0762856
-0.0792943
-0.081324
-0.0823314
-0.0823422
-0.0814475
-0.0797839
-0.077514
-0.0748026
-0.0717935
-0.0685843
-0.0652107
-0.0616331
-0.0577368
-0.0533479
-0.0482779
-0.0424202
-0.0359095
-0.0293123
-0.023674
-0.0201862
-0.0196532
-0.0221333
-0.0556591
-0.0604408
-0.0650306
-0.0692133
-0.0727868
-0.0755815
-0.0774822
-0.0784405
-0.0784724
-0.0776552
-0.0761116
-0.0739921
-0.0714528
-0.0686327
-0.0656315
-0.0624915
-0.0591858
-0.0556158
-0.0516232
-0.0470223
-0.0416792
-0.0356547
-0.0293963
-0.0238372
-0.0201696
-0.0194055
-0.0218906
-0.0535264
-0.0578664
-0.0620318
-0.0658337
-0.0690923
-0.0716522
-0.0734035
-0.0742952
-0.0743345
-0.0735847
-0.0721536
-0.0701768
-0.0677984
-0.0651491
-0.0623259
-0.059374
-0.0562765
-0.0529492
-0.0492498
-0.0450048
-0.0400713
-0.0344625
-0.028531
-0.0230984
-0.019317
-0.0183515
-0.0208432
-0.0513695
-0.0552812
-0.0590309
-0.0624545
-0.0653939
-0.0677092
-0.0692977
-0.0701071
-0.0701371
-0.0694384
-0.0681027
-0.0662496
-0.0640086
-0.0614993
-0.0588124
-0.0559927
-0.0530284
-0.0498507
-0.0463283
-0.0423046
-0.037642
-0.0323294
-0.0266524
-0.0213353
-0.0174714
-0.0163282
-0.0188366
-0.0492853
-0.0527974
-0.0561561
-0.0592193
-0.0618494
-0.0639218
-0.065342
-0.0660578
-0.0660624
-0.0653943
-0.0641301
-0.0623725
-0.0602348
-0.0578233
-0.0552195
-0.0524649
-0.0495505
-0.0464126
-0.0429402
-0.0389852
-0.0344263
-0.0292476
-0.0236955
-0.0184219
-0.0144619
-0.0131525
-0.0156899
-0.0473446
-0.0504964
-0.0535001
-0.0562327
-0.0585749
-0.0604161
-0.0616702
-0.0622859
-0.0622514
-0.0615928
-0.0603721
-0.0586755
-0.0565989
-0.0542336
-0.05165
-0.0488832
-0.0459227
-0.0427089
-0.0391387
-0.0350833
-0.0304352
-0.0251897
-0.0195798
-0.0142149
-0.0100922
-0.00860747
-0.0111788
-0.0455928
-0.0484293
-0.0511206
-0.0535598
-0.055643
-0.0572724
-0.0583691
-0.0588831
-0.0587971
-0.0581275
-0.0569215
-0.0552477
-0.0531848
-0.0508077
-0.0481734
-0.0453076
-0.0421946
-0.0387741
-0.0349477
-0.0306006
-0.0256443
-0.0200945
-0.0141932
-0.00853859
-0.0041258
-0.00242547
-0.00501349
-0.0440527
-0.0466199
-0.0490433
-0.0512291
-0.053086
-0.0545266
-0.0554782
-0.0558917
-0.0557451
-0.0550453
-0.0538244
-0.0521338
-0.050034
-0.0475825
-0.0448206
-0.041761
-0.0383785
-0.0346073
-0.0303491
-0.0254979
-0.0199855
-0.0138529
-0.00737616
-0.0011702
0.00372895
0.00573312
0.00318834
-0.042728
-0.0450695
-0.0472675
-0.0492385
-0.0509012
-0.0521765
-0.0529965
-0.0533121
-0.0530967
-0.0523478
-0.0510824
-0.0493346
-0.0471459
-0.0445545
-0.041583
-0.0382273
-0.0344477
-0.030167
-0.0252815
-0.0196898
-0.0133426
-0.00630116
0.00108983
0.00817241
0.0138323
0.0163009
0.01393
-0.0416068
-0.043761
-0.0457711
-0.0475614
-0.0490585
-0.0501893
-0.0508894
-0.051109
-0.0508156
-0.0499983
-0.0486584
-0.0468124
-0.0444815
-0.0416821
-0.0384146
-0.0346532
-0.0303375
-0.0253724
-0.0196421
-0.0130428
-0.00553837
0.00276057
0.0114794
0.0198443
0.026629
0.0298229
0.0278606
-0.0406665
-0.0426647
-0.0445173
-0.0461546
-0.0475087
-0.048511
-0.0490991
-0.0492217
-0.0488413
-0.0479326
-0.0464867
-0.0445001
-0.0419717
-0.0388931
-0.0352382
-0.0309535
-0.0259509
-0.0201098
-0.0132939
-0.00539005
0.00362719
0.0136034
0.0240999
0.0342869
0.0426655
0.0469756
0.0457961
-0.0398772
-0.0417432
-0.0434613
-0.0449656
-0.0461923
-0.0470759
-0.0475545
-0.0475743
-0.047091
-0.0460695
-0.0444843
-0.0423124
-0.0395283
-0.0360955
-0.0319562
-0.0270227
-0.0211712
-0.0142464
-0.00608159
0.00345502
0.014385
0.0265096
0.0392959
0.0519896
0.0625865
0.0685915
0.0687465
-0.0392065
-0.0409569
-0.0425559
-0.0439401
-0.0450484
-0.0458169
-0.0461834
-0.0460905
-0.0454866
-0.0443255
-0.0425646
-0.0401598
-0.0370588
-0.0331929
-0.0284677
-0.0227541
-0.0158842
-0.0076574
0.00213496
0.0136567
0.0269403
0.0417668
0.0575472
0.0732469
0.0870809
0.0956703
0.0979376
-0.0386226
-0.0402683
-0.0417576
-0.0430288
-0.044022
-0.0446743
-0.0449217
-0.0447025
-0.0439574
-0.0426272
-0.0406524
-0.0379654
-0.0344848
-0.0301064
-0.0246939
-0.0180704
-0.0100149
-0.000270774
0.0114268
0.0252909
0.0413876
0.059497
0.0789647
0.0986066
0.116787
0.129259
0.134746
-0.0380979
-0.0396454
-0.0410305
-0.042192
-0.0430705
-0.0436026
-0.0437219
-0.0433615
-0.0424539
-0.040926
-0.0387004
-0.0356849
-0.031767
-0.0268045
-0.0206155
-0.0129697
-0.00358497
0.00786286
0.0217117
0.038247
0.0576008
0.0795903
0.103555
0.128271
0.151941
0.170123
0.180629
-0.0376111
-0.0390654
-0.0403505
-0.0414048
-0.0421688
-0.0425779
-0.0425625
-0.0420491
-0.0409601
-0.0392133
-0.0367093
-0.0333311
-0.0289351
-0.023341
-0.0163196
-0.00758485
0.00321228
0.0164741
0.0326322
0.052078
0.0750631
0.101512
0.13085
0.16184
0.192599
0.218523
0.237827
-0.0371527
-0.0385203
-0.0397112
-0.0406635
-0.0413167
-0.0416052
-0.0414562
-0.0407897
-0.0395146
-0.0375413
-0.0347505
-0.0310016
-0.0261224
-0.0198966
-0.0120509
-0.002246
0.0099334
0.0249726
0.0434166
0.0658064
0.0926062
0.123989
0.15968
0.19856
0.238739
0.275697
0.311523
-0.0367306
-0.0380236
-0.039133
-0.0399967
-0.0405519
-0.0407314
-0.0404618
-0.0396496
-0.0382194
-0.0360438
-0.0329927
-0.0289113
-0.0236034
-0.016823
-0.00826108
0.00246387
0.0158226
0.0323727
0.0527746
0.0777464
0.108072
0.144408
0.187251
0.23627
0.29056
0.347218
0.413117
-0.0363523
-0.0375942
-0.0386485
-0.0394537
-0.0399446
-0.0400466
-0.0396892
-0.0388009
-0.0372603
-0.0349461
-0.0317212
-0.0274174
-0.021823
-0.014674
-0.00564053
0.00568268
0.0197985
0.0373068
0.0589479
0.0855786
0.118306
0.158416
0.207811
0.268557
0.344144
0.436967
0.562067
-0.0359968
-0.0372218
-0.0382587
-0.0390486
-0.0395297
-0.0396357
-0.0392789
-0.0383694
-0.036803
-0.0344617
-0.0312023
-0.0268497
-0.0211874
-0.0139475
-0.00479625
0.00667446
0.0209713
0.0386996
0.0606213
0.0876357
0.121019
0.162409
0.215053
0.284042
0.382658
0.527342
0.747576
)
;

boundaryField
{
    movingWall
    {
        type            zeroGradient;
    }
    fixedWalls
    {
        type            zeroGradient;
    }
    frontAndBack
    {
        type            empty;
    }
    procBoundary4to5
    {
        type            processor;
        value           nonuniform List<scalar> 
48
(
0.00261848
0.00218381
0.00163254
0.000939789
7.66893e-05
-0.00098827
-0.00228987
-0.00385958
-0.00572372
-0.00789699
-0.0103761
-0.0131343
-0.0161189
-0.0192526
-0.0224385
-0.0291515
-0.0333618
-0.0381417
-0.0381417
-0.0425996
-0.0465037
-0.0497318
-0.0522082
-0.0539041
-0.0548351
-0.0550564
-0.0546587
-0.0537496
-0.0524532
-0.0508962
-0.0491964
-0.0474565
-0.0457592
-0.0441658
-0.0427172
-0.0414355
-0.0403269
-0.0393849
-0.0385931
-0.0379291
-0.037367
-0.0368807
-0.036446
-0.0360437
-0.0356631
-0.0353075
-0.0349749
-0.0346353
)
;
    }
    procBoundary4to6
    {
        type            processor;
        value           nonuniform List<scalar> 
30
(
0.00338129
0.00380316
0.00421753
0.00461639
0.00499023
0.00532886
0.00562193
0.00585957
0.0060331
0.00613589
0.00616409
0.00611722
0.00599859
0.00581536
0.00557819
0.00530056
0.00499767
0.00468515
0.00437767
0.00408778
0.00382499
0.00359541
0.00340178
0.0032441
0.00312045
0.003028
0.00296368
0.00292499
0.00291394
0.00293844
)
;
    }
}


// ************************************************************************* //
