/*--------------------------------*- C++ -*----------------------------------*\
  =========                 |
  \\      /  F ield         | OpenFOAM: The Open Source CFD Toolbox
   \\    /   O peration     | Website:  https://openfoam.org
    \\  /    A nd           | Version:  9
     \\/     M anipulation  |
\*---------------------------------------------------------------------------*/
FoamFile
{
    format      ascii;
    class       surfaceScalarField;
    location    "0.25";
    object      phi;
}
// * * * * * * * * * * * * * * * * * * * * * * * * * * * * * * * * * * * * * //

dimensions      [0 3 -1 0 0 0 0];

internalField   nonuniform List<scalar> 
2445
(
-1.0248e-06
-2.52614e-07
-1.0387e-06
-3.20843e-07
-1.04788e-06
-3.93351e-07
-1.05156e-06
-4.69365e-07
-1.04895e-06
-5.47844e-07
-1.03925e-06
-6.27505e-07
-1.02163e-06
-7.06825e-07
-9.95355e-07
-7.84049e-07
-9.59799e-07
-8.57192e-07
-9.14582e-07
-9.24063e-07
-8.59685e-07
-9.82329e-07
-7.95558e-07
-1.02962e-06
-7.23208e-07
-1.06367e-06
-6.44229e-07
-1.08254e-06
-5.60768e-07
-1.08481e-06
-4.75418e-07
-1.06977e-06
-3.9104e-07
-1.03754e-06
-3.1052e-07
-9.89167e-07
-2.36513e-07
-9.26524e-07
-1.71186e-07
-8.52116e-07
-1.1603e-07
-7.68797e-07
-7.17618e-08
-6.79435e-07
-3.83367e-08
-5.86618e-07
-1.5049e-08
-4.92496e-07
-6.87292e-10
-3.98808e-07
6.30134e-09
-3.07127e-07
7.72628e-09
-2.1931e-07
5.59532e-09
-1.38053e-07
2.15867e-09
-6.7519e-08
-1.39351e-08
-1.10559e-06
-2.25881e-07
-1.12917e-06
-2.97261e-07
-1.14881e-06
-3.73716e-07
-1.1636e-06
-4.54573e-07
-1.17252e-06
-5.38923e-07
-1.1744e-06
-6.2563e-07
-1.16793e-06
-7.13295e-07
-1.15177e-06
-8.0021e-07
-1.12465e-06
-8.84312e-07
-1.08554e-06
-9.63169e-07
-1.03385e-06
-1.03402e-06
-9.69581e-07
-1.09389e-06
-8.93463e-07
-1.13979e-06
-8.07046e-07
-1.16896e-06
-7.12675e-07
-1.17919e-06
-6.134e-07
-1.16904e-06
-5.12777e-07
-1.13816e-06
-4.14577e-07
-1.08737e-06
-3.22445e-07
-1.01866e-06
-2.39539e-07
-9.35022e-07
-1.68221e-07
-8.40115e-07
-1.09861e-07
-7.37794e-07
-6.47904e-08
-6.31689e-07
-3.23935e-08
-5.24893e-07
-1.13094e-08
-4.19892e-07
3.45903e-10
-3.18782e-07
4.77885e-09
-2.23743e-07
4.42038e-09
-1.37694e-07
1.88314e-09
-6.49818e-08
-1.20519e-08
-1.19505e-06
-1.87968e-07
-1.23113e-06
-2.61183e-07
-1.26454e-06
-3.4031e-07
-1.29421e-06
-4.24904e-07
-1.31878e-06
-5.14354e-07
-1.33656e-06
-6.07844e-07
-1.3456e-06
-7.04257e-07
-1.34376e-06
-8.02047e-07
-1.32895e-06
-8.99123e-07
-1.29934e-06
-9.92785e-07
-1.2536e-06
-1.07976e-06
-1.19117e-06
-1.15632e-06
-1.1124e-06
-1.21855e-06
-1.01869e-06
-1.26267e-06
-9.125e-07
-1.28537e-06
-7.97295e-07
-1.28425e-06
-6.7735e-07
-1.25811e-06
-5.57431e-07
-1.20729e-06
-4.42386e-07
-1.1337e-06
-3.36655e-07
-1.04075e-06
-2.43812e-07
-9.32958e-07
-1.66217e-07
-8.1539e-07
-1.0485e-07
-6.93055e-07
-5.93732e-08
-5.7037e-07
-2.83497e-08
-4.50916e-07
-9.56561e-09
-3.37566e-07
-3.32326e-10
-2.32977e-07
2.29063e-09
-1.40317e-07
1.36003e-09
-6.40512e-08
-1.06919e-08
-1.29319e-06
-1.36307e-07
-1.34485e-06
-2.09524e-07
-1.3956e-06
-2.8956e-07
-1.44412e-06
-3.76383e-07
-1.48858e-06
-4.69893e-07
-1.52662e-06
-5.69804e-07
-1.55543e-06
-6.75444e-07
-1.57196e-06
-7.85521e-07
-1.57316e-06
-8.97926e-07
-1.55631e-06
-1.00964e-06
-1.51932e-06
-1.11675e-06
-1.46098e-06
-1.21466e-06
-1.38117e-06
-1.29836e-06
-1.281e-06
-1.36284e-06
-1.1629e-06
-1.40347e-06
-1.0306e-06
-1.41655e-06
-8.88974e-07
-1.39973e-06
-7.43791e-07
-1.35247e-06
-6.01222e-07
-1.27627e-06
-4.67256e-07
-1.17472e-06
-3.47059e-07
-1.05316e-06
-2.44401e-07
-9.18048e-07
-1.61309e-07
-7.76148e-07
-9.80075e-08
-6.33672e-07
-5.31492e-08
-4.95774e-07
-2.42232e-08
-3.66492e-07
-8.00748e-09
-2.49192e-07
-9.51053e-10
-1.47374e-07
5.60989e-10
-6.55632e-08
-1.01309e-08
-1.39917e-06
-6.8348e-08
-1.4694e-06
-1.39288e-07
-1.54087e-06
-2.18097e-07
-1.61185e-06
-3.05402e-07
-1.67988e-06
-4.01859e-07
-1.74177e-06
-5.07916e-07
-1.79374e-06
-6.2347e-07
-1.83176e-06
-7.47507e-07
-1.85184e-06
-8.77845e-07
-1.85044e-06
-1.01103e-06
-1.82476e-06
-1.14243e-06
-1.77296e-06
-1.26646e-06
-1.69437e-06
-1.37696e-06
-1.58965e-06
-1.46756e-06
-1.46095e-06
-1.53218e-06
-1.31194e-06
-1.56555e-06
-1.14785e-06
-1.56382e-06
-9.75234e-07
-1.52509e-06
-8.01544e-07
-1.44996e-06
-6.34493e-07
-1.34177e-06
-4.81204e-07
-1.20644e-06
-3.47365e-07
-1.05189e-06
-2.36573e-07
-8.86939e-07
-1.50063e-07
-7.20181e-07
-8.68627e-08
-5.58975e-07
-4.42804e-08
-4.09074e-07
-1.85409e-08
-2.74932e-07
-5.37888e-09
-1.60536e-07
-5.16801e-10
-7.04253e-08
-1.06477e-08
-1.51077e-06
1.80693e-08
-1.602e-06
-4.80596e-08
-1.69672e-06
-1.23371e-07
-1.79267e-06
-2.09451e-07
-1.88659e-06
-3.07939e-07
-1.97434e-06
-4.2017e-07
-2.05118e-06
-5.46633e-07
-2.11217e-06
-6.86509e-07
-2.15263e-06
-8.37394e-07
-2.16838e-06
-9.95274e-07
-2.1561e-06
-1.15471e-06
-2.11341e-06
-1.30915e-06
-2.03907e-06
-1.4513e-06
-1.93309e-06
-1.57353e-06
-1.797e-06
-1.66827e-06
-1.63399e-06
-1.72857e-06
-1.44911e-06
-1.7487e-06
-1.24925e-06
-1.72495e-06
-1.04287e-06
-1.65634e-06
-8.39369e-07
-1.54527e-06
-6.48107e-07
-1.39771e-06
-4.7722e-07
-1.22277e-06
-3.32557e-07
-1.0316e-06
-2.17005e-07
-8.35733e-07
-1.30441e-07
-6.45539e-07
-7.0242e-08
-4.69274e-07
-3.21262e-08
-3.13048e-07
-1.10314e-08
-1.8163e-07
-1.85311e-09
-7.96036e-08
-1.25008e-08
-1.62404e-06
1.2419e-07
-1.73754e-06
6.54374e-08
-1.85659e-06
-4.31471e-09
-1.9782e-06
-8.78473e-08
-2.0982e-06
-1.8794e-07
-2.21152e-06
-3.06849e-07
-2.31261e-06
-4.45538e-07
-2.39596e-06
-6.0316e-07
-2.45648e-06
-7.76875e-07
-2.48978e-06
-9.61974e-07
-2.49229e-06
-1.1522e-06
-2.46128e-06
-1.34016e-06
-2.39493e-06
-1.51765e-06
-2.29245e-06
-1.676e-06
-2.15436e-06
-1.80636e-06
-1.98281e-06
-1.90012e-06
-1.782e-06
-1.94952e-06
-1.55841e-06
-1.94853e-06
-1.32091e-06
-1.89385e-06
-1.0802e-06
-1.78597e-06
-8.47916e-07
-1.62999e-06
-6.35119e-07
-1.43557e-06
-4.50696e-07
-1.21603e-06
-3.00074e-07
-9.86354e-07
-1.8472e-07
-7.60893e-07
-1.02535e-07
-5.51458e-07
-4.88952e-08
-3.66688e-07
-1.78876e-08
-2.12638e-07
-3.41151e-09
-9.40797e-08
-1.59123e-08
-1.73327e-06
2.50037e-07
-1.8686e-06
2.00775e-07
-2.01096e-06
1.38046e-07
-2.15654e-06
5.77293e-08
-2.30022e-06
-4.42566e-08
-2.43619e-06
-1.70888e-07
-2.55839e-06
-3.23331e-07
-2.66117e-06
-5.00387e-07
-2.73953e-06
-6.98512e-07
-2.7893e-06
-9.12206e-07
-2.80703e-06
-1.13447e-06
-2.7899e-06
-1.35729e-06
-2.73561e-06
-1.57194e-06
-2.64248e-06
-1.76913e-06
-2.50971e-06
-1.93913e-06
-2.33786e-06
-2.07197e-06
-2.12946e-06
-2.15792e-06
-1.88969e-06
-2.18831e-06
-1.62674e-06
-2.15679e-06
-1.35187e-06
-2.06085e-06
-1.07857e-06
-1.90329e-06
-8.21025e-07
-1.69311e-06
-5.91949e-07
-1.4451e-06
-4.00423e-07
-1.17788e-06
-2.50595e-07
-9.10721e-07
-1.41667e-07
-6.60386e-07
-6.90338e-08
-4.3932e-07
-2.59589e-08
-2.55713e-07
-5.16304e-09
-1.14876e-07
-2.10754e-08
-1.83103e-06
3.93908e-07
-1.98579e-06
3.55534e-07
-2.14819e-06
3.00446e-07
-2.31349e-06
2.23028e-07
-2.47589e-06
1.18136e-07
-2.62905e-06
-1.77212e-08
-2.7669e-06
-1.85486e-07
-2.88409e-06
-3.8319e-07
-2.97626e-06
-6.06347e-07
-3.03986e-06
-8.48603e-07
-3.07199e-06
-1.10234e-06
-3.07003e-06
-1.35925e-06
-3.03144e-06
-1.61053e-06
-2.95372e-06
-1.84685e-06
-2.83464e-06
-2.05821e-06
-2.67277e-06
-2.23384e-06
-2.46826e-06
-2.36242e-06
-2.22386e-06
-2.4327e-06
-1.94588e-06
-2.43477e-06
-1.64475e-06
-2.36198e-06
-1.33484e-06
-2.2132e-06
-1.0331e-06
-1.99485e-06
-7.56548e-07
-1.72165e-06
-5.19136e-07
-1.41529e-06
-3.29176e-07
-1.10068e-06
-1.88401e-07
-8.01161e-07
-9.29233e-08
-5.34798e-07
-3.53658e-08
-3.13271e-07
-7.11661e-09
-1.43125e-07
-2.8192e-08
-1.90905e-06
5.52351e-07
-2.0788e-06
5.25284e-07
-2.25577e-06
4.77415e-07
-2.43444e-06
4.01705e-07
-2.6085e-06
2.92193e-07
-2.77157e-06
1.45349e-07
-2.91791e-06
-3.91457e-08
-3.04301e-06
-2.58094e-07
-3.14347e-06
-5.05884e-07
-3.21682e-06
-7.75252e-07
-3.26103e-06
-1.05813e-06
-3.27406e-06
-1.34623e-06
-3.25346e-06
-1.63112e-06
-3.19623e-06
-1.90408e-06
-3.09886e-06
-2.15558e-06
-2.95781e-06
-2.37489e-06
-2.77041e-06
-2.54983e-06
-2.53609e-06
-2.66702e-06
-2.25788e-06
-2.71299e-06
-1.94369e-06
-2.67616e-06
-1.60708e-06
-2.54982e-06
-1.26655e-06
-2.33538e-06
-9.43225e-07
-2.04498e-06
-6.56879e-07
-1.70164e-06
-4.21736e-07
-1.33582e-06
-2.43845e-07
-9.79053e-07
-1.21246e-07
-6.57397e-07
-4.64121e-08
-3.88105e-07
-9.34709e-09
-1.8019e-07
-3.7539e-08
-1.95908e-06
7.20354e-07
-2.13777e-06
7.03969e-07
-2.32229e-06
6.61938e-07
-2.50659e-06
5.86006e-07
-2.68417e-06
4.69774e-07
-2.84899e-06
3.10164e-07
-2.9961e-06
1.07964e-07
-3.12181e-06
-1.32386e-07
-3.22433e-06
-4.03362e-07
-3.30234e-06
-6.97239e-07
-3.35494e-06
-1.00554e-06
-3.38101e-06
-1.32015e-06
-3.37866e-06
-1.63348e-06
-3.3448e-06
-1.93793e-06
-3.27511e-06
-2.22527e-06
-3.16427e-06
-2.48573e-06
-3.00678e-06
-2.70731e-06
-2.7983e-06
-2.8755e-06
-2.53745e-06
-2.97384e-06
-2.22791e-06
-2.9857e-06
-1.8802e-06
-2.89753e-06
-1.51225e-06
-2.70333e-06
-1.14795e-06
-2.40928e-06
-8.13044e-07
-2.03655e-06
-5.29278e-07
-1.61959e-06
-3.09298e-07
-1.19903e-06
-1.54972e-07
-8.11723e-07
-5.96035e-08
-4.83473e-07
-1.20068e-08
-2.27786e-07
-4.95458e-08
-1.97415e-06
8.91825e-07
-2.15477e-06
8.84595e-07
-2.33916e-06
8.46329e-07
-2.52102e-06
7.67867e-07
-2.69403e-06
6.42785e-07
-2.85275e-06
4.68883e-07
-2.99341e-06
2.48625e-07
-3.11281e-06
-1.29865e-08
-3.21153e-06
-3.04648e-07
-3.28886e-06
-6.19905e-07
-3.34533e-06
-9.49065e-07
-3.38101e-06
-1.28448e-06
-3.39488e-06
-1.6196e-06
-3.38438e-06
-1.94844e-06
-3.345e-06
-2.26466e-06
-3.27034e-06
-2.5604e-06
-3.15262e-06
-2.82503e-06
-2.98389e-06
-3.04423e-06
-2.75795e-06
-3.19978e-06
-2.47292e-06
-3.27072e-06
-2.13406e-06
-3.23639e-06
-1.75593e-06
-3.08146e-06
-1.36261e-06
-2.8026e-06
-9.84523e-07
-2.41463e-06
-6.51711e-07
-1.9524e-06
-3.85818e-07
-1.46492e-06
-1.9516e-07
-1.00238e-06
-7.55774e-08
-6.03056e-07
-1.53085e-08
-2.88055e-07
-6.48543e-08
-1.94946e-06
1.06026e-06
-2.12492e-06
1.06006e-06
-2.30177e-06
1.02319e-06
-2.47383e-06
9.39929e-07
-2.63529e-06
8.04239e-07
-2.78152e-06
6.15113e-07
-2.90946e-06
3.76565e-07
-3.0187e-06
9.62544e-08
-3.10824e-06
-2.1511e-07
-3.18028e-06
-5.47862e-07
-3.23628e-06
-8.93069e-07
-3.2774e-06
-1.24336e-06
-3.30379e-06
-1.59322e-06
-3.3138e-06
-1.93842e-06
-3.30351e-06
-2.27494e-06
-3.26637e-06
-2.59754e-06
-3.19333e-06
-2.89808e-06
-3.07368e-06
-3.16388e-06
-2.89679e-06
-3.37667e-06
-2.65478e-06
-3.51274e-06
-2.34607e-06
-3.5451e-06
-1.97906e-06
-3.44846e-06
-1.57453e-06
-3.20714e-06
-1.16463e-06
-2.82453e-06
-7.86849e-07
-2.33019e-06
-4.73554e-07
-1.77822e-06
-2.42609e-07
-1.23333e-06
-9.49474e-08
-7.50718e-07
-1.94803e-08
-3.63522e-07
-8.43346e-08
-1.88308e-06
1.21942e-06
-2.04694e-06
1.22392e-06
-2.20999e-06
1.18624e-06
-2.3665e-06
1.09644e-06
-2.51139e-06
9.49122e-07
-2.64092e-06
7.44649e-07
-2.75314e-06
4.88787e-07
-2.84804e-06
1.91154e-07
-2.92629e-06
-1.36861e-07
-2.99036e-06
-4.83794e-07
-3.04268e-06
-8.4075e-07
-3.08544e-06
-1.2006e-06
-3.11991e-06
-1.55875e-06
-3.14571e-06
-1.91262e-06
-3.16008e-06
-2.26057e-06
-3.15726e-06
-2.60036e-06
-3.12816e-06
-2.92718e-06
-3.06066e-06
-3.23138e-06
-2.94085e-06
-3.49647e-06
-2.75549e-06
-3.6981e-06
-2.4957e-06
-3.80489e-06
-2.16175e-06
-3.78241e-06
-1.76758e-06
-3.60131e-06
-1.34291e-06
-3.24919e-06
-9.2968e-07
-2.74342e-06
-5.71095e-07
-2.13681e-06
-2.97449e-07
-1.50697e-06
-1.18107e-07
-9.3006e-07
-2.47062e-08
-4.56923e-07
-1.09041e-07
-1.776e-06
-1.92302e-06
-2.06758e-06
-2.20468e-06
1.23354e-06
-2.33013e-06
1.07458e-06
-2.44114e-06
8.55657e-07
-2.53653e-06
5.84175e-07
-2.61675e-06
2.71376e-07
-2.68313e-06
-7.04819e-08
-2.73856e-06
-4.28369e-07
-2.78574e-06
-7.93568e-07
-2.82754e-06
-1.15879e-06
-2.86617e-06
-1.52012e-06
-2.9025e-06
-1.87628e-06
-2.93532e-06
-2.22775e-06
-2.96038e-06
-2.5753e-06
-2.9697e-06
-2.91786e-06
-2.95125e-06
-3.24982e-06
-2.88952e-06
-3.55821e-06
-2.76733e-06
-3.82029e-06
-2.56932e-06
-4.0029e-06
-2.28702e-06
-4.06472e-06
-1.92502e-06
-3.9633e-06
-1.50624e-06
-3.66797e-06
-1.07236e-06
-3.17731e-06
-6.75097e-07
-2.53406e-06
-3.58832e-07
-1.82324e-06
-1.45069e-07
-1.14382e-06
-3.10781e-08
-5.70914e-07
-1.40119e-07
-1.99685e-06
1.3492e-06
-2.10195e-06
1.17968e-06
-2.19454e-06
9.48246e-07
-2.27402e-06
6.63654e-07
-2.34104e-06
3.38398e-07
-2.39726e-06
-1.42629e-08
-2.44511e-06
-3.8052e-07
-2.48747e-06
-7.51209e-07
-2.52736e-06
-1.1189e-06
-2.56754e-06
-1.47995e-06
-2.60995e-06
-1.83387e-06
-2.65492e-06
-2.18278e-06
-2.70015e-06
-2.53007e-06
-2.73961e-06
-2.87841e-06
-2.76264e-06
-3.22679e-06
-2.75384e-06
-3.56701e-06
-2.69406e-06
-3.88007e-06
-2.56314e-06
-4.13382e-06
-2.34473e-06
-4.28312e-06
-2.0332e-06
-4.27483e-06
-1.64129e-06
-4.05988e-06
-1.20514e-06
-3.61346e-06
-7.80391e-07
-2.95881e-06
-4.24839e-07
-2.17879e-06
-1.75391e-07
-1.39327e-06
-3.85743e-08
-7.07731e-07
-1.78693e-07
-1.7528e-06
1.44284e-06
-1.83801e-06
1.26489e-06
-1.91355e-06
1.02379e-06
-1.9792e-06
7.29304e-07
-2.03558e-06
3.94768e-07
-2.08438e-06
3.45368e-08
-2.12703e-06
-3.37865e-07
-2.16627e-06
-7.11966e-07
-2.20485e-06
-1.08033e-06
-2.24563e-06
-1.43916e-06
-2.29126e-06
-1.78825e-06
-2.34339e-06
-2.13064e-06
-2.40169e-06
-2.47177e-06
-2.46245e-06
-2.81764e-06
-2.51734e-06
-3.1719e-06
-2.55249e-06
-3.53185e-06
-2.54868e-06
-3.88389e-06
-2.48309e-06
-4.19941e-06
-2.3334e-06
-4.43282e-06
-2.08443e-06
-4.5238e-06
-1.73728e-06
-4.40704e-06
-1.31813e-06
-4.03261e-06
-8.80615e-07
-3.39632e-06
-4.92617e-07
-2.56678e-06
-2.08201e-07
-1.67769e-06
-4.7064e-08
-8.68868e-07
-2.25757e-07
-1.48234e-06
1.51475e-06
-1.54876e-06
1.33131e-06
-1.60911e-06
1.08415e-06
-1.66337e-06
7.83565e-07
-1.712e-06
4.43396e-07
-1.75593e-06
7.84683e-08
-1.7963e-06
-2.97493e-07
-1.83486e-06
-6.73403e-07
-1.87381e-06
-1.04139e-06
-1.91576e-06
-1.39721e-06
-1.96361e-06
-1.7404e-06
-2.01993e-06
-2.07432e-06
-2.08604e-06
-2.40566e-06
-2.16059e-06
-2.74309e-06
-2.23794e-06
-3.09456e-06
-2.30673e-06
-3.46306e-06
-2.34924e-06
-3.84138e-06
-2.34211e-06
-4.20654e-06
-2.25932e-06
-4.51561e-06
-2.0781e-06
-4.70502e-06
-1.78816e-06
-4.69697e-06
-1.40321e-06
-4.41756e-06
-9.6924e-07
-3.83029e-06
-5.58723e-07
-2.9773e-06
-2.42289e-07
-1.99412e-06
-5.63277e-08
-1.05483e-06
-2.82085e-07
-1.19465e-06
1.56559e-06
-1.24346e-06
1.38012e-06
-1.29024e-06
1.13092e-06
-1.33508e-06
8.28411e-07
-1.37817e-06
4.86481e-07
-1.41976e-06
1.20056e-07
-1.46028e-06
-2.56967e-07
-1.50058e-06
-6.33101e-07
-1.54206e-06
-9.99917e-07
-1.58678e-06
-1.35249e-06
-1.63745e-06
-1.68972e-06
-1.69708e-06
-2.01469e-06
-1.76813e-06
-2.33461e-06
-1.85122e-06
-2.66e-06
-1.94339e-06
-3.00239e-06
-2.03625e-06
-3.3702e-06
-2.11463e-06
-3.763e-06
-2.15637e-06
-4.1648e-06
-2.13404e-06
-4.53793e-06
-2.01967e-06
-4.81939e-06
-1.7933e-06
-4.92335e-06
-1.45554e-06
-4.75532e-06
-1.04072e-06
-4.24512e-06
-6.19607e-07
-3.39841e-06
-2.76249e-07
-2.33748e-06
-6.60812e-08
-1.265e-06
-3.48166e-07
-8.98193e-07
1.59608e-06
-9.30267e-07
1.41219e-06
-9.64484e-07
1.16514e-06
-1.00107e-06
8.64993e-07
-1.0399e-06
5.25319e-07
-1.08068e-06
1.60833e-07
-1.12308e-06
-2.14571e-07
-1.16706e-06
-5.89121e-07
-1.21315e-06
-9.53821e-07
-1.26268e-06
-1.30296e-06
-1.31785e-06
-1.63456e-06
-1.38157e-06
-1.95098e-06
-1.45687e-06
-2.25931e-06
-1.54578e-06
-2.57109e-06
-1.6476e-06
-2.90056e-06
-1.7569e-06
-3.2609e-06
-1.86163e-06
-3.65827e-06
-1.94204e-06
-4.08439e-06
-1.97127e-06
-4.5087e-06
-1.91857e-06
-4.87209e-06
-1.75665e-06
-5.08527e-06
-1.47407e-06
-5.03789e-06
-1.09141e-06
-4.62777e-06
-6.72148e-07
-3.81768e-06
-3.08656e-07
-2.70097e-06
-7.6003e-08
-1.49765e-06
-4.24169e-07
-6.00812e-07
1.60681e-06
-6.16606e-07
1.42799e-06
-6.38585e-07
1.18712e-06
-6.67154e-07
8.93562e-07
-7.02036e-07
5.60201e-07
-7.42467e-07
2.01264e-07
-7.87504e-07
-1.69535e-07
-8.36326e-07
-5.40299e-07
-8.88644e-07
-9.01503e-07
-9.4494e-07
-1.24666e-06
-1.00668e-06
-1.57282e-06
-1.07627e-06
-1.88138e-06
-1.15676e-06
-2.17883e-06
-1.25088e-06
-2.47696e-06
-1.35962e-06
-2.79182e-06
-1.48012e-06
-3.1404e-06
-1.60353e-06
-3.53486e-06
-1.71327e-06
-3.97466e-06
-1.78448e-06
-4.4375e-06
-1.78583e-06
-4.87073e-06
-1.68522e-06
-5.18589e-06
-1.4611e-06
-5.26201e-06
-1.12005e-06
-4.96883e-06
-7.14124e-07
-4.2236e-06
-3.38252e-07
-3.07685e-06
-8.57683e-08
-1.75013e-06
-5.09937e-07
-3.0989e-07
1.59835e-06
-3.09562e-07
1.42766e-06
-3.1909e-07
1.19665e-06
-3.39176e-07
9.13649e-07
-3.69534e-07
5.90558e-07
-4.09153e-07
2.40884e-07
-4.56682e-07
-1.22007e-07
-5.1064e-07
-4.86342e-07
-5.7004e-07
-8.42102e-07
-6.34537e-07
-1.18216e-06
-7.04734e-07
-1.50262e-06
-7.82273e-07
-1.80384e-06
-8.69688e-07
-2.09141e-06
-9.69845e-07
-2.3768e-06
-1.08468e-06
-2.67699e-06
-1.21334e-06
-3.01174e-06
-1.34992e-06
-3.39829e-06
-1.48122e-06
-3.84335e-06
-1.5854e-06
-4.33332e-06
-1.6323e-06
-4.82383e-06
-1.58735e-06
-5.23084e-06
-1.42125e-06
-5.42811e-06
-1.1275e-06
-5.26257e-06
-7.44485e-07
-4.60662e-06
-3.64123e-07
-3.45721e-06
-9.5089e-08
-2.01917e-06
-6.05026e-07
-3.25057e-08
1.5715e-06
-1.62498e-08
1.4114e-06
-1.2871e-08
1.19327e-06
-2.34985e-08
9.24276e-07
-4.81328e-08
6.15192e-07
-8.5766e-08
2.78517e-07
-1.34897e-07
-7.28755e-08
-1.93461e-07
-4.27778e-07
-2.59988e-07
-7.75576e-07
-3.33328e-07
-1.10882e-06
-4.13253e-07
-1.4227e-06
-5.00453e-07
-1.71664e-06
-5.96632e-07
-1.99523e-06
-7.04244e-07
-2.26919e-06
-8.25537e-07
-2.5557e-06
-9.60982e-07
-2.87629e-06
-1.1071e-06
-3.25217e-06
-1.25401e-06
-3.69644e-06
-1.38337e-06
-4.20397e-06
-1.46747e-06
-4.73973e-06
-1.47133e-06
-5.22698e-06
-1.36026e-06
-5.53918e-06
-1.11634e-06
-5.50648e-06
-7.63384e-07
-4.95958e-06
-3.8582e-07
-3.83477e-06
-1.03756e-07
-2.30123e-06
-7.08783e-07
2.25469e-07
1.52714e-06
2.57447e-07
1.37943e-06
2.74046e-07
1.17667e-06
2.73602e-07
9.2472e-07
2.55838e-07
6.32957e-07
2.21651e-07
3.12704e-07
1.72279e-07
-2.35032e-08
1.10374e-07
-3.65873e-07
3.75884e-08
-7.0279e-07
-4.44862e-08
-1.02675e-06
-1.34575e-07
-1.33261e-06
-2.32443e-07
-1.61877e-06
-3.38654e-07
-1.88902e-06
-4.55044e-07
-2.1528e-06
-5.83583e-07
-2.42716e-06
-7.25406e-07
-2.73447e-06
-8.78857e-07
-3.09872e-06
-1.03702e-06
-3.53827e-06
-1.18519e-06
-4.0558e-06
-1.29895e-06
-4.62596e-06
-1.34451e-06
-5.18142e-06
-1.284e-06
-5.59969e-06
-1.09003e-06
-5.70045e-06
-7.71955e-07
-5.27765e-06
-4.03387e-07
-4.20334e-06
-1.11674e-07
-2.59294e-06
-8.20457e-07
4.58321e-07
1.46691e-06
5.05102e-07
1.33265e-06
5.34845e-07
1.14693e-06
5.45279e-07
9.14286e-07
5.35573e-07
6.42663e-07
5.06126e-07
3.42151e-07
4.58753e-07
2.38692e-08
3.94809e-07
-3.01929e-07
3.16954e-07
-6.24935e-07
2.27378e-07
-9.37172e-07
1.27865e-07
-1.2331e-06
1.96842e-08
-1.51059e-06
-9.72919e-08
-1.77204e-06
-2.23229e-07
-2.02686e-06
-3.596e-07
-2.29079e-06
-5.07715e-07
-2.58635e-06
-6.67141e-07
-2.93929e-06
-8.33433e-07
-3.37198e-06
-9.95368e-07
-3.89387e-06
-1.1323e-06
-4.48904e-06
-1.21282e-06
-5.1009e-06
-1.19776e-06
-5.61475e-06
-1.05227e-06
-5.84594e-06
-7.71926e-07
-5.558e-06
-4.17303e-07
-4.55796e-06
-1.18883e-07
-2.89136e-06
-9.3934e-07
6.62109e-07
1.39288e-06
7.22296e-07
1.27246e-06
7.64534e-07
1.10469e-06
7.85951e-07
8.92869e-07
7.85113e-07
6.43501e-07
7.6196e-07
3.65303e-07
7.17653e-07
6.81763e-08
6.53824e-07
-2.38099e-07
5.72927e-07
-5.44038e-07
4.7746e-07
-8.41705e-07
3.69791e-07
-1.12543e-06
2.5188e-07
-1.39268e-06
1.25249e-07
-1.64541e-06
-9.91146e-09
-1.8917e-06
-1.54072e-07
-2.14663e-06
-3.0821e-07
-2.43222e-06
-4.72577e-07
-2.77493e-06
-6.44667e-07
-3.19989e-06
-8.16436e-07
-3.7221e-06
-9.7111e-07
-4.33436e-06
-1.08054e-06
-4.99147e-06
-1.1058e-06
-5.5895e-06
-1.00644e-06
-5.9453e-06
-7.65311e-07
-5.79912e-06
-4.28401e-07
-4.89487e-06
-1.25574e-07
-3.19419e-06
-1.06491e-06
8.34624e-07
1.30758e-06
9.06239e-07
1.20084e-06
9.59681e-07
1.05125e-06
9.91543e-07
8.61007e-07
9.99783e-07
6.35261e-07
9.83754e-07
3.81332e-07
9.44063e-07
1.07868e-07
8.8216e-07
-1.76196e-07
8.00343e-07
-4.62222e-07
7.01247e-07
-7.42609e-07
5.87654e-07
-1.01184e-06
4.62227e-07
-1.26725e-06
3.272e-07
-1.51039e-06
1.83943e-07
-1.74845e-06
3.2843e-08
-1.99553e-06
-1.26547e-07
-2.27283e-06
-2.94778e-07
-2.6067e-06
-4.7077e-07
-3.0239e-06
-6.4925e-07
-3.54362e-06
-8.17233e-07
-4.16638e-06
-9.50325e-07
-4.85838e-06
-1.01111e-06
-5.52871e-06
-9.55246e-07
-6.00116e-06
-7.53999e-07
-6.00037e-06
-4.37661e-07
-5.21121e-06
-1.32076e-07
-3.49978e-06
-1.19699e-06
9.75494e-07
1.21382e-06
1.05613e-06
1.12021e-06
1.11893e-06
9.88441e-07
1.16009e-06
8.19847e-07
1.17702e-06
6.18331e-07
1.16848e-06
3.89872e-07
1.13453e-06
1.41821e-07
1.07623e-06
-1.17896e-07
9.95655e-07
-3.81651e-07
8.95427e-07
-6.42381e-07
7.78563e-07
-8.94972e-07
6.48198e-07
-1.13689e-06
5.07238e-07
-1.36943e-06
3.57941e-07
-1.59915e-06
2.01569e-07
-1.83915e-06
3.82679e-08
-2.10953e-06
-1.32433e-07
-2.436e-06
-3.1062e-07
-2.84571e-06
-4.9326e-07
-3.36098e-06
-6.70943e-07
-3.9887e-06
-8.23294e-07
-4.70602e-06
-9.15386e-07
-5.43662e-06
-9.00502e-07
-6.01605e-06
-7.3949e-07
-6.16138e-06
-4.46092e-07
-5.50461e-06
-1.38853e-07
-3.80701e-06
-1.33584e-06
1.08619e-06
1.1145e-06
1.17321e-06
1.03319e-06
1.24317e-06
9.18474e-07
1.29202e-06
7.70999e-07
1.31674e-06
5.93612e-07
1.31557e-06
3.91042e-07
1.28803e-06
1.69362e-07
1.23472e-06
-6.45834e-08
1.15743e-06
-3.04368e-07
1.05863e-06
-5.43573e-07
9.4139e-07
-7.77734e-07
8.09138e-07
-1.00464e-06
6.65265e-07
-1.22555e-06
5.12702e-07
-1.44659e-06
3.53441e-07
-1.67989e-06
1.88205e-07
-1.94429e-06
1.65232e-08
-2.26431e-06
-1.62023e-07
-2.66716e-06
-3.46658e-07
-3.17634e-06
-5.3113e-07
-3.80423e-06
-6.9914e-07
-4.53802e-06
-8.18996e-07
-5.31676e-06
-8.42984e-07
-5.99206e-06
-7.22703e-07
-6.28166e-06
-4.54623e-07
-5.77269e-06
-1.46495e-07
-4.11514e-06
-1.48234e-06
1.1699e-06
1.01236e-06
1.26069e-06
9.42404e-07
1.33549e-06
8.43669e-07
1.39016e-06
7.16326e-07
1.42142e-06
5.62355e-07
1.4271e-06
3.85367e-07
1.40625e-06
1.90206e-07
1.35899e-06
-1.73162e-08
1.28681e-06
-2.32194e-07
1.19188e-06
-4.48642e-07
1.07723e-06
-6.63078e-07
9.46357e-07
-8.73767e-07
8.02945e-07
-1.08214e-06
6.50349e-07
-1.29399e-06
4.91085e-07
-1.52063e-06
3.26345e-07
-1.77955e-06
1.55878e-07
-2.09385e-06
-2.16287e-08
-2.48966e-06
-2.06463e-07
-2.99151e-06
-3.95427e-07
-3.61526e-06
-5.76242e-07
-4.3572e-06
-7.21042e-07
-5.17196e-06
-7.82389e-07
-5.93071e-06
-7.03835e-07
-6.36022e-06
-4.6392e-07
-6.0126e-06
-1.55716e-07
-4.42335e-06
-1.63805e-06
1.23142e-06
9.09851e-07
1.32359e-06
8.50238e-07
1.40101e-06
7.66245e-07
1.45962e-06
6.57719e-07
1.49602e-06
5.25954e-07
1.50778e-06
3.73614e-07
1.49353e-06
2.04451e-07
1.45331e-06
2.29057e-08
1.38772e-06
-1.66611e-07
1.29894e-06
-3.59856e-07
1.18973e-06
-5.53873e-07
1.06354e-06
-7.47575e-07
9.24081e-07
-9.42682e-07
7.74892e-07
-1.1448e-06
6.18754e-07
-1.36449e-06
4.57121e-07
-1.61792e-06
2.89789e-07
-1.92652e-06
1.15165e-07
-2.31503e-06
-6.84844e-08
-2.80786e-06
-2.60247e-07
-3.4235e-06
-4.51739e-07
-4.16571e-06
-6.19399e-07
-5.0043e-06
-7.17299e-07
-5.83281e-06
-6.82235e-07
-6.39528e-06
-4.74253e-07
-6.22059e-06
-1.67328e-07
-4.73027e-06
-1.80538e-06
1.27737e-06
8.09013e-07
1.36887e-06
7.58737e-07
1.44698e-06
6.88144e-07
1.50781e-06
5.96885e-07
1.54803e-06
4.85732e-07
1.56509e-06
3.56555e-07
1.55742e-06
2.12122e-07
1.52456e-06
5.57665e-08
1.46702e-06
-1.09075e-07
1.38647e-06
-2.79302e-07
1.28541e-06
-4.52819e-07
1.16706e-06
-6.29217e-07
1.03495e-06
-8.10577e-07
8.92561e-07
-1.00241e-06
7.42663e-07
-1.21459e-06
5.86736e-07
-1.46199e-06
4.24524e-07
-1.7643e-06
2.54092e-07
-2.1446e-06
7.27318e-08
-2.6265e-06
-1.20752e-07
-3.23002e-06
-3.2154e-07
-3.96492e-06
-5.10717e-07
-4.81513e-06
-6.45131e-07
-5.6984e-06
-6.56289e-07
-6.38412e-06
-4.85349e-07
-6.39153e-06
-1.82199e-07
-5.03342e-06
-1.98758e-06
1.31673e-06
7.11476e-07
1.40594e-06
6.69525e-07
1.48315e-06
6.10926e-07
1.54482e-06
5.35222e-07
1.58775e-06
4.42797e-07
1.60943e-06
3.34879e-07
1.60816e-06
2.13393e-07
1.58322e-06
8.07075e-08
1.53488e-06
-6.07402e-08
1.4644e-06
-2.08815e-07
1.37391e-06
-3.62331e-07
1.26624e-06
-5.21547e-07
1.14458e-06
-6.88923e-07
1.01208e-06
-8.6991e-07
8.71251e-07
-1.07376e-06
7.23355e-07
-1.3141e-06
5.67925e-07
-1.60887e-06
4.02671e-07
-1.97935e-06
2.24102e-07
-2.44793e-06
2.92801e-08
-3.0352e-06
-1.80274e-07
-3.75536e-06
-3.90367e-07
-4.60503e-06
-5.62041e-07
-5.52672e-06
-6.23271e-07
-6.32289e-06
-4.96204e-07
-6.51859e-06
-2.01144e-07
-5.32848e-06
-2.18872e-06
1.36184e-06
6.18465e-07
1.44756e-06
5.83812e-07
1.52274e-06
5.35747e-07
1.58419e-06
4.73767e-07
1.62901e-06
3.97975e-07
1.6548e-06
3.09092e-07
1.65985e-06
2.08347e-07
1.64327e-06
9.72843e-08
1.60512e-06
-2.25898e-08
1.54622e-06
-1.49915e-07
1.4683e-06
-2.84416e-07
1.37369e-06
-4.26933e-07
1.26504e-06
-5.80274e-07
1.14496e-06
-7.49831e-07
1.01546e-06
-9.44263e-07
8.77379e-07
-1.17601e-06
7.29854e-07
-1.46135e-06
5.70184e-07
-1.81968e-06
3.94215e-07
-2.27196e-06
1.97665e-07
-2.83865e-06
-2.07235e-08
-3.53698e-06
-2.52332e-07
-4.37343e-06
-4.6281e-07
-5.31624e-06
-5.79149e-07
-6.20655e-06
-5.04805e-07
-6.59294e-06
-2.24728e-07
-5.60856e-06
-2.41345e-06
1.42968e-06
5.30822e-07
1.51107e-06
5.02418e-07
1.58343e-06
4.63391e-07
1.64397e-06
4.13229e-07
1.6901e-06
3.51839e-07
1.71964e-06
2.79555e-07
1.73093e-06
1.97055e-07
1.72302e-06
1.05199e-07
1.69568e-06
4.74478e-09
1.64944e-06
-1.03673e-07
1.5855e-06
-2.20477e-07
1.50559e-06
-3.47026e-07
1.41171e-06
-4.86393e-07
1.30575e-06
-6.43872e-07
1.18903e-06
-8.27542e-07
1.06175e-06
-1.04872e-06
9.22493e-07
-1.32209e-06
7.6806e-07
-1.66524e-06
5.93669e-07
-2.09757e-06
3.93887e-07
-2.63886e-06
1.64901e-07
-3.30799e-06
-8.89147e-08
-4.11961e-06
-3.40745e-07
-5.06441e-06
-5.18261e-07
-6.02904e-06
-5.07728e-07
-6.60347e-06
-2.52938e-07
-5.86335e-06
-2.66639e-06
1.54271e-06
4.49015e-07
1.61931e-06
4.25816e-07
1.68837e-06
3.94334e-07
1.74752e-06
3.54076e-07
1.79454e-06
3.0482e-07
1.82748e-06
2.4662e-07
1.8448e-06
1.79735e-07
1.8455e-06
1.04499e-07
1.82913e-06
2.11152e-08
1.79591e-06
-7.04539e-08
1.74649e-06
-1.71058e-07
1.68196e-06
-2.82491e-07
1.60354e-06
-4.07976e-07
1.51231e-06
-5.52639e-07
1.40873e-06
-7.23969e-07
1.29222e-06
-9.32212e-07
1.16066e-06
-1.19054e-06
1.01022e-06
-1.5148e-06
8.35448e-07
-1.9228e-06
6.29971e-07
-2.43339e-06
3.8802e-07
-3.06604e-06
1.09221e-07
-3.84081e-06
-1.87573e-07
-4.76762e-06
-4.32786e-07
-5.78383e-06
-4.99683e-07
-6.53657e-06
-2.84728e-07
-6.0783e-06
-2.95112e-06
1.72916e-06
3.73137e-07
1.80081e-06
3.54166e-07
1.86632e-06
3.28821e-07
1.92375e-06
2.96647e-07
1.97122e-06
2.5735e-07
2.00704e-06
2.10797e-07
2.02982e-06
1.56953e-07
2.03854e-06
9.57801e-08
2.03259e-06
2.70715e-08
2.0118e-06
-4.96702e-08
1.97635e-06
-1.35604e-07
1.92663e-06
-2.32773e-07
1.86308e-06
-3.44427e-07
1.78587e-06
-4.75432e-07
1.69455e-06
-6.32647e-07
1.5876e-06
-8.25266e-07
1.46208e-06
-1.06501e-06
1.31335e-06
-1.36607e-06
1.13521e-06
-1.74466e-06
9.20349e-07
-2.21852e-06
6.61424e-07
-2.80711e-06
3.54563e-07
-3.53395e-06
1.23939e-08
-4.42545e-06
-3.12448e-07
-5.45898e-06
-4.73177e-07
-6.37584e-06
-3.17394e-07
-6.23408e-06
-3.26851e-06
2.02196e-06
3.02938e-07
2.08876e-06
2.87367e-07
2.15064e-06
2.66939e-07
2.20604e-06
2.41249e-07
2.25341e-06
2.09978e-07
2.29132e-06
1.72886e-07
2.31852e-06
1.29756e-07
2.33398e-06
8.03154e-08
2.33696e-06
2.40943e-08
2.32696e-06
-3.96766e-08
2.30369e-06
-1.12327e-07
2.26688e-06
-1.95967e-07
2.21619e-06
-2.93736e-07
2.15089e-06
-4.10131e-07
2.06956e-06
-5.51314e-07
1.9697e-06
-7.25408e-07
1.8474e-06
-9.42717e-07
1.69711e-06
-1.21577e-06
1.51165e-06
-1.5592e-06
1.28266e-06
-1.98954e-06
1.00132e-06
-2.52577e-06
6.59993e-07
-3.19263e-06
2.61217e-07
-4.02667e-06
-1.45008e-07
-5.05276e-06
-4.17138e-07
-6.10371e-06
-3.45578e-07
-6.30565e-06
-3.61409e-06
2.45666e-06
2.3797e-07
2.51883e-06
2.2519e-07
2.57704e-06
2.08734e-07
2.63003e-06
1.88261e-07
2.67654e-06
1.6346e-07
2.71538e-06
1.34047e-07
2.74542e-06
9.9719e-08
2.76565e-06
6.00858e-08
2.77519e-06
1.45505e-08
2.7733e-06
-3.77838e-08
2.75923e-06
-9.82521e-08
2.73214e-06
-1.68876e-07
2.69095e-06
-2.52549e-07
2.63409e-06
-3.5327e-07
2.55919e-06
-4.76414e-07
2.46275e-06
-6.28976e-07
2.33985e-06
-8.19811e-07
2.18384e-06
-1.05976e-06
1.98644e-06
-1.3618e-06
1.738e-06
-1.7411e-06
1.4282e-06
-2.21597e-06
1.04678e-06
-2.8112e-06
5.89708e-07
-3.56961e-06
9.02613e-08
-4.55331e-06
-3.16252e-07
-5.6972e-06
-3.60668e-07
-6.26123e-06
-3.97476e-06
3.06816e-06
1.77893e-07
3.12582e-06
1.67534e-07
3.18013e-06
1.54421e-07
3.23011e-06
1.38283e-07
3.27472e-06
1.18844e-07
3.31294e-06
9.58276e-08
3.34375e-06
6.89142e-08
3.36615e-06
3.76851e-08
3.37916e-06
1.53981e-09
3.38184e-06
-4.04615e-08
3.37304e-06
-8.94562e-08
3.35145e-06
-1.47285e-07
3.31536e-06
-2.16454e-07
3.26243e-06
-3.0034e-07
3.18944e-06
-4.03425e-07
3.09194e-06
-5.3148e-07
2.96397e-06
-6.91834e-07
2.79773e-06
-8.93524e-07
2.58365e-06
-1.14772e-06
2.31053e-06
-1.46798e-06
1.96634e-06
-1.87178e-06
1.53858e-06
-2.38345e-06
1.01645e-06
-3.04747e-06
4.12021e-07
-3.94888e-06
-1.47038e-07
-5.13814e-06
-3.51762e-07
-6.0565e-06
-4.32652e-06
3.88659e-06
1.22932e-07
3.93929e-06
1.14834e-07
3.98898e-06
1.04727e-07
4.03486e-06
9.24048e-08
4.07605e-06
7.76525e-08
4.11165e-06
6.02296e-08
4.14068e-06
3.98812e-08
4.16211e-06
1.62556e-08
4.17504e-06
-1.13831e-08
4.17821e-06
-4.36333e-08
4.17022e-06
-8.14695e-08
4.14937e-06
-1.26435e-07
4.11345e-06
-1.8053e-07
4.05951e-06
-2.46403e-07
3.98363e-06
-3.27547e-07
3.88055e-06
-4.28394e-07
3.74334e-06
-5.54632e-07
3.56312e-06
-7.13296e-07
3.3289e-06
-9.13501e-07
3.02766e-06
-1.16674e-06
2.64522e-06
-1.48935e-06
2.16661e-06
-1.90483e-06
1.57642e-06
-2.45728e-06
8.67386e-07
-3.23985e-06
1.32795e-07
-4.40355e-06
-2.88655e-07
-5.63505e-06
-4.61518e-06
4.93132e-06
7.43817e-08
4.97763e-06
6.85243e-08
5.02106e-06
6.1292e-08
5.06092e-06
5.25474e-08
5.09643e-06
4.21358e-08
5.12679e-06
2.9876e-08
5.15107e-06
1.56002e-08
5.16794e-06
-6.12637e-10
5.17699e-06
-2.04314e-08
5.17641e-06
-4.30558e-08
5.16474e-06
-6.98051e-08
5.14001e-06
-1.01701e-07
5.09965e-06
-1.40172e-07
5.04033e-06
-1.8708e-07
4.95765e-06
-2.44867e-07
4.84581e-06
-3.16559e-07
4.69729e-06
-4.06106e-07
4.5023e-06
-5.18309e-07
4.24865e-06
-6.59851e-07
3.92127e-06
-8.39362e-07
3.50301e-06
-1.07109e-06
2.97478e-06
-1.3766e-06
2.31716e-06
-1.79967e-06
1.50679e-06
-2.42947e-06
5.92516e-07
-3.48928e-06
-8.74777e-08
-4.95506e-06
-4.70265e-06
6.20196e-06
3.49503e-08
6.23914e-06
3.13496e-08
6.27349e-06
2.69459e-08
6.30435e-06
2.16779e-08
6.33106e-06
1.54262e-08
6.35289e-06
8.05217e-09