/*--------------------------------*- C++ -*----------------------------------*\
  =========                 |
  \\      /  F ield         | OpenFOAM: The Open Source CFD Toolbox
   \\    /   O peration     | Website:  https://openfoam.org
    \\  /    A nd           | Version:  9
     \\/     M anipulation  |
\*---------------------------------------------------------------------------*/
FoamFile
{
    format      ascii;
    class       volScalarField;
    location    "1";
    object      p;
}
// * * * * * * * * * * * * * * * * * * * * * * * * * * * * * * * * * * * * * //

dimensions      [0 2 -2 0 0 0 0];

internalField   nonuniform List<scalar> 
10000
(
-5.63304e-09
-2.10988e-06
-9.91834e-06
-2.1951e-05
-3.6309e-05
-5.17475e-05
-6.7269e-05
-8.22573e-05
-9.63178e-05
-0.000109244
-0.000120957
-0.000131464
-0.000140815
-0.000149083
-0.00015634
-0.000162646
-0.000168041
-0.000172538
-0.000176122
-0.000178753
-0.000180365
-0.000180867
-0.000180151
-0.00017809
-0.000174544
-0.000169361
-0.000162384
-0.000153449
-0.000142389
-0.000129041
-0.000113241
-9.48345e-05
-7.36725e-05
-4.96194e-05
-2.25548e-05
7.62319e-06
4.09939e-05
7.76102e-05
0.000117494
0.000160629
0.000206962
0.000256391
0.000308765
0.00036388
0.000421477
0.000481233
0.000542768
0.000605636
0.000669333
0.000733295
0.000796904
0.000859493
0.000920354
0.00097875
0.00103392
0.00108512
0.00113157
0.00117257
0.00120742
0.00123549
0.00125625
0.00126922
0.00127404
0.00127048
0.00125841
0.00123784
0.00120891
0.00117191
0.00112721
0.00107535
0.00101693
0.000952678
0.000883371
0.000809856
0.000733013
0.000653743
0.000572948
0.000491512
0.00041029
0.000330091
0.000251668
0.000175714
0.000102853
3.36434e-05
-3.14275e-05
-9.19342e-05
-0.000147511
-0.000197843
-0.000242662
-0.000281735
-0.000314863
-0.000341885
-0.000362683
-0.000377204
-0.000385509
-0.000387863
-0.000384899
-0.000377893
-0.000368944
-0.000361131
2.06094e-06
-7.62939e-08
-6.5565e-06
-1.64091e-05
-2.80178e-05
-4.07089e-05
-5.37232e-05
-6.65207e-05
-7.87447e-05
-9.01788e-05
-0.00010071
-0.000110296
-0.000118938
-0.000126661
-0.000133496
-0.000139467
-0.000144586
-0.000148848
-0.000152226
-0.00015467
-0.000156112
-0.000156465
-0.000155622
-0.000153465
-0.00014986
-0.000144666
-0.000137733
-0.000128909
-0.000118039
-0.000104966
-8.95395e-05
-7.16126e-05
-5.10475e-05
-2.77179e-05
-1.51306e-06
2.766e-05
5.98719e-05
9.5167e-05
0.00013356
0.00017503
0.000219516
0.000266915
0.000317075
0.000369794
0.000424815
0.000481826
0.000540455
0.000600277
0.000660804
0.000721497
0.000781766
0.000840975
0.000898453
0.000953502
0.00100541
0.00105345
0.00109693
0.00113515
0.00116748
0.00119334
0.00121222
0.00122367
0.00122738
0.00122313
0.00121081
0.00119045
0.00116217
0.00112626
0.00108309
0.00103315
0.000977033
0.000915421
0.000849057
0.000778738
0.000705296
0.000629583
0.000552451
0.000474734
0.000397239
0.00032073
0.000245919
0.000173462
0.000103949
3.79073e-05
-2.42025e-05
-8.1981e-05
-0.000135087
-0.000183234
-0.000226182
-0.000263736
-0.000295748
-0.000322114
-0.000342789
-0.000357805
-0.000367309
-0.000371617
-0.000371326
-0.000367452
-0.000361162
-0.000353331
9.99208e-06
6.3268e-06
-3.15803e-07
-9.33212e-06
-1.98335e-05
-3.11622e-05
-4.27591e-05
-5.42058e-05
-6.52109e-05
-7.55866e-05
-8.52256e-05
-9.40772e-05
-0.000102127
-0.00010938
-0.000115847
-0.000121535
-0.00012644
-0.000130544
-0.000133808
-0.000136181
-0.000137587
-0.00013794
-0.000137135
-0.000135053
-0.000131567
-0.000126538
-0.000119824
-0.000111276
-0.000100745
-8.808e-05
-7.31348e-05
-5.57674e-05
-3.58449e-05
-1.32449e-05
1.21395e-05
4.03981e-05
7.15988e-05
0.000105784
0.000142967
0.000183127
0.000226203
0.000272094
0.000320652
0.000371679
0.000424924
0.000480082
0.000536797
0.000594646
0.000653159
0.000711812
0.000770029
0.000827196
0.000882658
0.000935738
0.000985741
0.00103197
0.00107374
0.00111039
0.0011413
0.0011659
0.0011837
0.00119428
0.00119733
0.00119265
0.00118012
0.00115978
0.00113177
0.00109636
0.00105392
0.00100494
0.000950006
0.000889767
0.000824965
0.000756373
0.000684803
0.000611085
0.000536045
0.000460494
0.000385213
0.000310941
0.000238363
0.000168109
0.000100745
3.67729e-05
-2.337e-05
-7.93079e-05
-0.000130725
-0.00017736
-0.000219002
-0.000255486
-0.000286695
-0.000312559
-0.000333064
-0.000348266
-0.000358311
-0.000363463
-0.000364194
-0.000361257
-0.000354912
-0.000344336
2.24822e-05
1.6121e-05
8.32425e-06
-8.61354e-07
-1.10616e-05
-2.1748e-05
-3.25084e-05
-4.30455e-05
-5.31493e-05
-6.26836e-05
-7.15706e-05
-7.97739e-05
-8.72827e-05
-9.40984e-05
-0.000100225
-0.00010566
-0.00011039
-0.000114388
-0.000117611
-0.000119998
-0.000121473
-0.000121944
-0.000121307
-0.000119444
-0.000116227
-0.000111521
-0.000105185
-9.70737e-05
-8.70391e-05
-7.49338e-05
-6.06127e-05
-4.39357e-05
-2.47707e-05
-2.99657e-06
2.14942e-05
4.8792e-05
7.89663e-05
0.000112062
0.000148094
0.000187046
0.000228863
0.000273448
0.00032066
0.000370308
0.00042215
0.000475889
0.000531177
0.000587602
0.000644703
0.000701966
0.000758827
0.000814679
0.000868878
0.000920755
0.000969624
0.0010148
0.00105559
0.00109135
0.00112146
0.00114536
0.00116256
0.00117264
0.0011753
0.00117032
0.00115762
0.00113721
0.00110925
0.00107401
0.00103185
0.000983276
0.000928862
0.000869273
0.000805236
0.000737528
0.000666957
0.000594345
0.000520512
0.000446257
0.000372348
0.000299509
0.000228411
0.000159662
9.38101e-05
3.13341e-05
-2.73513e-05
-8.18953e-05
-0.000132008
-0.000177455
-0.000218051
-0.000253659
-0.000284187
-0.000309585
-0.00032985
-0.000345032
-0.000355236
-0.000360637
-0.000361563
-0.000358528
-0.000351083
-0.000337195
3.77593e-05
2.7911e-05
1.84781e-05
8.6046e-06
-1.75956e-06
-1.22129e-05
-2.24738e-05
-3.23637e-05
-4.17616e-05
-5.05939e-05
-5.88254e-05
-6.64459e-05
-7.34595e-05
-7.98739e-05
-8.56935e-05
-9.09131e-05
-9.55148e-05
-9.94656e-05
-0.000102716
-0.000105202
-0.000106843
-0.000107543
-0.000107197
-0.000105685
-0.00010288
-9.86468e-05
-9.28443e-05
-8.53278e-05
-7.595e-05
-6.45634e-05
-5.10223e-05
-3.51862e-05
-1.69211e-05
3.89618e-06
2.73759e-05
5.36126e-05
8.26802e-05
0.000114629
0.000149481
0.000187226
0.000227817
0.000271167
0.000317142
0.000365563
0.000416196
0.000468753
0.000522896
0.000578221
0.000634278
0.000690557
0.000746502
0.000801508
0.000854936
0.000906118
0.000954367
0.000998992
0.00103931
0.00107465
0.00110441
0.001128
0.00114494
0.0011548
0.00115728
0.00115214
0.00113931
0.00111881
0.00109078
0.0010555
0.00101335
0.000964832
0.000910528
0.000851114
0.000787326
0.00071995
0.000649801
0.000577709
0.000504495
0.000430957
0.000357862
0.000285927
0.00021581
0.000148109
8.33535e-05
2.20031e-05
-3.55505e-05
-8.89814e-05
-0.000138025
-0.000182474
-0.000222171
-0.000257005
-0.000286904
-0.000311834
-0.000331794
-0.000346817
-0.000356965
-0.000362322
-0.000363087
-0.000359594
-0.000350877
-0.000334007
5.45023e-05
4.07942e-05
2.93304e-05
1.83898e-05
7.49968e-06
-3.0499e-06
-1.30962e-05
-2.2576e-05
-3.14584e-05
-3.97379e-05
-4.74292e-05
-5.45574e-05
-6.11489e-05
-6.72254e-05
-7.27978e-05
-7.78633e-05
-8.2403e-05
-8.63811e-05
-8.97448e-05
-9.24254e-05
-9.43388e-05
-9.53872e-05
-9.54607e-05
-9.44386e-05
-9.21918e-05
-8.85837e-05
-8.34723e-05
-7.67112e-05
-6.81515e-05
-5.76436e-05
-4.50393e-05
-3.01949e-05
-1.29726e-05
6.75584e-06
2.91063e-05
5.41802e-05
8.20591e-05
0.000112802
0.00014644
0.000182974
0.000222367
0.000264544
0.000309383
0.000356716
0.00040632
0.000457919
0.000511183
0.000565718
0.000621079
0.000676762
0.000732211
0.000786823
0.000839955
0.000890934
0.000939063
0.000983641
0.00102397
0.00105938
0.00108922
0.00111292
0.00112996
0.00113991
0.00114244
0.00113733
0.00112447
0.00110389
0.00107573
0.00104028
0.000997921
0.000949166
0.000894617
0.000834965
0.000770965
0.000703421
0.000633166
0.000561045
0.000487894
0.000414522
0.0003417
0.000270147
0.000200519
0.000133407
6.93252e-05
8.71772e-06
-4.80443e-05
-0.000100658
-0.000148886
-0.000192546
-0.000231507
-0.000265684
-0.000295023
-0.000319501
-0.000339119
-0.000353892
-0.000363839
-0.000368969
-0.000369383
-0.000365289
-0.000355371
-0.000336077
7.14863e-05
5.37717e-05
4.00536e-05
2.77934e-05
1.6119e-05
5.22595e-06
-4.8311e-06
-1.40991e-05
-2.26362e-05
-3.05065e-05
-3.77784e-05
-4.45166e-05
-5.07759e-05
-5.65963e-05
-6.20002e-05
-6.69909e-05
-7.15517e-05
-7.56465e-05
-7.92205e-05
-8.22021e-05
-8.4504e-05
-8.6025e-05
-8.66521e-05
-8.62618e-05
-8.47223e-05
-8.18944e-05
-7.76334e-05
-7.17898e-05
-6.42113e-05
-5.47444e-05
-4.32366e-05
-2.95388e-05
-1.35073e-05
4.99388e-06
2.60886e-05
4.98875e-05
7.64829e-05
0.000105945
0.000138317
0.000173614
0.000211813
0.000252852
0.000296625
0.000342976
0.000391696
0.000442523
0.000495132
0.000549143
0.000604113
0.000659542
0.000714874
0.000769501
0.000822772
0.000874004
0.000922485
0.000967494
0.00100831
0.00104425
0.00107463
0.00109885
0.00111637
0.00112674
0.00112961
0.00112473
0.001112
0.00109142
0.00106315
0.00102746
0.000984759
0.000935563
0.000880499
0.000820278
0.000755682
0.000687542
0.000616721
0.000544088
0.000470501
0.000396792
0.000323746
0.000252091
0.000182489
0.000115526
5.17106e-05
-8.52614e-06
-6.48311e-05
-0.000116924
-0.00016459
-0.000207674
-0.000246072
-0.00027972
-0.000308584
-0.000332652
-0.000351926
-0.000366406
-0.000376078
-0.000380896
-0.000380888
-0.000376182
-0.000365235
-0.000344093
8.76911e-05
6.59186e-05
4.98357e-05
3.61077e-05
2.34834e-05
1.20775e-05
1.84504e-06
-7.36572e-06
-1.56992e-05
-2.32889e-05
-3.02576e-05
-3.6712e-05
-4.27375e-05
-4.83956e-05
-5.37231e-05
-5.87318e-05
-6.34095e-05
-6.77217e-05
-7.1613e-05
-7.50098e-05
-7.78219e-05
-7.9945e-05
-8.12628e-05
-8.16485e-05
-8.0967e-05
-7.90754e-05
-7.58251e-05
-7.10625e-05
-6.46304e-05
-5.63703e-05
-4.61236e-05
-3.3734e-05
-1.90501e-05
-1.92693e-06
1.77703e-05
4.01633e-05
6.53575e-05
9.34372e-05
0.000124461
0.00015846
0.000195428
0.000235319
0.000278045
0.000323466
0.000371389
0.000421566
0.000473682
0.000527369
0.000582188
0.000637641
0.000693168
0.000748159
0.00080195
0.00085384
0.0009031
0.000948983
0.000990745
0.00102765
0.00105902
0.00108419
0.0011026
0.00111376
0.0011173
0.00111294
0.00110056
0.00108015
0.00105186
0.00101596
0.000972871
0.000923127
0.000867374
0.000806351
0.000740872
0.000671803
0.000600042
0.000526493
0.000452047
0.000377566
0.000303857
0.000231667
0.000161669
9.44544e-05
3.05297e-05
-2.96843e-05
-8.58491e-05
-0.000137703
-0.000185056
-0.000227776
-0.000265785
-0.00029904
-0.000327529
-0.000351252
-0.000370213
-0.000384406
-0.000393794
-0.00039829
-0.000397874
-0.000392627
-0.000380869
-0.000358385
0.000102177
7.63676e-05
5.78819e-05
4.26105e-05
2.89395e-05
1.69107e-05
6.38644e-06
-2.88535e-06
-1.11323e-05
-1.85551e-05
-2.53306e-05
-3.16074e-05
-3.75024e-05
-4.31001e-05
-4.84528e-05
-5.35826e-05
-5.84832e-05
-6.31226e-05
-6.74459e-05
-7.13782e-05
-7.4827e-05
-7.76853e-05
-7.98334e-05
-8.1141e-05
-8.1469e-05
-8.06706e-05
-7.85924e-05
-7.50759e-05
-6.99584e-05
-6.30751e-05
-5.42606e-05
-4.33505e-05
-3.01839e-05
-1.46054e-05
3.5317e-06
2.43629e-05
4.80083e-05
7.45689e-05
0.000104121
0.000136714
0.000172361
0.000211038
0.000252674
0.00029715
0.000344291
0.000393865
0.000445573
0.000499057
0.000553885
0.000609562
0.000665528
0.000721161
0.000775789
0.000828692
0.000879115
0.000926285
0.000969422
0.00100776
0.00104056
0.00106714
0.00108688
0.00109926
0.00110386
0.00110039
0.00108867
0.0010687
0.00104059
0.00100463
0.000961233
0.000910949
0.000854448
0.000792501
0.000725958
0.000655723
0.000582739
0.000507954
0.0004323
0.000356675
0.000281922
0.000208814
0.000138041
7.02074e-05
5.8224e-06
-5.46972e-05
-0.000111024
-0.000162914
-0.000210196
-0.000252764
-0.000290563
-0.000323575
-0.000351806
-0.000375273
-0.000393986
-0.000407938
-0.000417079
-0.000421296
-0.00042054
-0.000414866
-0.00040251
-0.000379098
0.000114078
8.42941e-05
6.3413e-05
4.65721e-05
3.1806e-05
1.90885e-05
8.19277e-06
-1.22939e-06
-9.48575e-06
-1.68419e-05
-2.3527e-05
-2.97306e-05
-3.56006e-05
-4.12444e-05
-4.67303e-05
-5.20912e-05
-5.73275e-05
-6.24104e-05
-6.7286e-05
-7.18788e-05
-7.60945e-05
-7.98235e-05
-8.29429e-05
-8.53192e-05
-8.68092e-05
-8.72618e-05
-8.65187e-05
-8.44162e-05
-8.07862e-05
-7.54572e-05
-6.82563e-05
-5.90109e-05
-4.755e-05
-3.37065e-05
-1.73206e-05
1.75757e-06
2.3665e-05
4.85212e-05
7.64225e-05
0.000107438
0.000141606
0.000178924
0.000219344
0.00026277
0.000309051
0.000357972
0.000409251
0.000462555
0.000517453
0.000573457
0.000630008
0.00068648
0.000742186
0.000796391
0.000848314
0.000897149
0.000942078
0.000982294
0.00101701
0.0010455
0.00106708
0.00108119
0.00108736
0.00108524
0.00107464
0.0010555
0.00102793
0.000992191
0.000948709
0.000898041
0.000840875
0.000778015
0.000710349
0.000638829
0.000564444
0.000488193
0.000411061
0.000333993
0.000257872
0.000183508
0.00011162
4.28304e-05
-2.23422e-05
-8.34797e-05
-0.000140261
-0.000192455
-0.00023991
-0.000282542
-0.00032032
-0.00035325
-0.000381361
-0.000404685
-0.000423244
-0.000437035
-0.000446003
-0.000450021
-0.000449024
-0.000443051
-0.000430292
-0.000406279
0.000122577
8.89024e-05
6.56622e-05
4.72587e-05
3.13835e-05
1.79431e-05
6.62416e-06
-3.01481e-06
-1.13591e-05
-1.87366e-05
-2.54267e-05
-3.16579e-05
-3.76081e-05
-4.34063e-05
-4.91369e-05
-5.48431e-05
-6.0532e-05
-6.61786e-05
-7.17303e-05
-7.71112e-05
-8.2226e-05
-8.69627e-05
-9.11958e-05
-9.47885e-05
-9.7594e-05
-9.94572e-05
-0.000100216
-9.97008e-05
-9.77395e-05
-9.41545e-05
-8.87656e-05
-8.13917e-05
-7.18524e-05
-5.99688e-05
-4.55677e-05
-2.84835e-05
-8.56216e-06
1.4336e-05
4.03296e-05
6.95109e-05
0.000101943
0.00013765
0.000176613
0.000218762
0.000263973
0.000312056
0.000362741
0.000415754
0.000470645
0.000526944
0.000584101
0.000641488
0.000698412
0.00075412
0.00080781
0.000858645
0.000905765
0.000948319
0.000985467
0.00101642
0.00104044
0.0010569
0.00106527
0.00106515
0.00105627
0.00103856
0.00101207
0.000977053
0.00093391
0.000883206
0.000825648
0.000762064
0.000693382
0.000620602
0.000544768
0.000466937
0.000388154
0.000309422
0.000231677
0.000155771
8.24689e-05
1.24153e-05
-5.38521e-05
-0.000115906
-0.000173428
-0.000226194
-0.000274069
-0.00031699
-0.000354949
-0.000387977
-0.000416124
-0.000439443
-0.00045797
-0.000471711
-0.00048061
-0.000484537
-0.000483415
-0.000477278
-0.00046429
-0.000439931
0.000126884
8.94165e-05
6.38718e-05
4.39345e-05
2.69594e-05
1.27847e-05
1.01119e-06
-8.8938e-06
-1.73906e-05
-2.48673e-05
-3.16506e-05
-3.80062e-05
-4.41396e-05
-5.02006e-05
-5.62882e-05
-6.24556e-05
-6.87162e-05
-7.50487e-05
-8.1402e-05
-8.77003e-05
-9.38475e-05
-9.97299e-05
-0.00010522
-0.000110178
-0.000114455
-0.000117893
-0.000120327
-0.000121584
-0.000121487
-0.000119856
-0.000116503
-0.00011124
-0.00010388
-9.42315e-05
-8.21092e-05
-6.73319e-05
-4.97282e-05
-2.91377e-05
-5.41778e-06
2.15493e-05
5.18539e-05
8.55518e-05
0.000122655
0.000163129
0.000206881
0.00025376
0.00030355
0.000355901
0.000410511
0.000466884
0.000524485
0.000582697
0.000640828
0.000698117
0.000753743
0.000806842
0.00085652
0.000901872
0.000942004
0.00097606
0.00100324
0.00102283
0.00103422
0.00103694
0.00103066
0.00101521
0.000990627
0.000957096
0.000914997
0.000864882
0.000807462
0.000743587
0.000674219
0.000600406
0.000523253
0.00044388
0.000363402
0.000282889
0.000203344
0.000125681
5.07068e-05
-2.08877e-05
-8.85368e-05
-0.000151797
-0.000210342
-0.000263952
-0.000312506
-0.000355955
-0.000394316
-0.000427641
-0.000456007
-0.000479485
-0.00049813
-0.000511958
-0.000520919
-0.000524884
-0.000523772
-0.00051761
-0.000504548
-0.000480044
0.000126229
8.50738e-05
5.72909e-05
3.5863e-05
1.78123e-05
2.90686e-06
-9.33833e-06
-1.9546e-05
-2.82495e-05
-3.58945e-05
-4.28531e-05
-4.94252e-05
-5.58423e-05
-6.22729e-05
-6.88294e-05
-7.5574e-05
-8.25259e-05
-8.96672e-05
-9.69484e-05
-0.000104294
-0.000111608
-0.000118775
-0.000125668
-0.000132145
-0.000138056
-0.000143242
-0.000147536
-0.000150767
-0.000152755
-0.000153316
-0.000152263
-0.000149401
-0.000144536
-0.000137471
-0.000128008
-0.000115952
-0.000101114
-8.33149e-05
-6.23866e-05
-3.81837e-05
-1.05851e-05
2.04985e-05
5.51178e-05
9.32774e-05
0.000134926
0.000179956
0.000228183
0.000279301
0.000333113
0.000389077
0.000446702
0.000505407
0.000564517
0.000623278
0.000680861
0.000736385
0.000788921
0.000837523
0.000881235
0.000919131
0.000950328
0.000974021
0.000989508
0.00099621
0.000993706
0.000981741
0.000960251
0.000929362
0.000889399
0.000840877
0.000784494
0.000721105
0.000651699
0.000577369
0.000499276
0.000418615
0.000336577
0.000254314
0.000172909
9.33506e-05
1.65133e-05
-5.68578e-05
-0.000126153
-0.0001909
-0.000250755
-0.000305495
-0.000355001
-0.000399241
-0.000438248
-0.000472101
-0.000500895
-0.000524727
-0.000543669
-0.000557752
-0.000566935
-0.000571091
-0.000570135
-0.00056409
-0.000551101
-0.00052662
0.000119857
7.51218e-05
4.51743e-05
2.23076e-05
3.21519e-06
-1.24075e-05
-2.51323e-05
-3.56709e-05
-4.46278e-05
-5.25042e-05
-5.97148e-05
-6.65915e-05
-7.33896e-05
-8.02945e-05
-8.74303e-05
-9.48675e-05
-0.00010263
-0.000110703
-0.000119039
-0.000127564
-0.00013618
-0.000144775
-0.000153221
-0.000161377
-0.000169095
-0.000176217
-0.00018258
-0.000188014
-0.000192342
-0.000195383
-0.000196949
-0.000196848
-0.000194882
-0.00019085
-0.000184547
-0.000175767
-0.000164306
-0.000149965
-0.000132554
-0.000111899
-8.78453e-05
-6.02643e-05
-2.90623e-05
5.81465e-06
4.43683e-05
8.65451e-05
0.000132235
0.000181263
0.000233226
0.000287894
0.00034475
0.000403268
0.000462818
0.00052267
0.000582007
0.000639945
0.000695538
0.0007478
0.000795721
0.000838297
0.000874555
0.00090358
0.00092455
0.00093676
0.000939654
0.00093285
0.000916158
0.000889596
0.000853398
0.000808009
0.000754078
0.000692442
0.0006241
0.000550177
0.00047189
0.000390508
0.000307308
0.000223538
0.00014038
5.89185e-05
-1.98855e-05
-9.52105e-05
-0.000166385
-0.000232888
-0.000294344
-0.000350512
-0.000401271
-0.000446594
-0.000486528
-0.000521172
-0.000550643
-0.000575061
-0.000594517
-0.000609057
-0.00061865
-0.000623172
-0.000622538
-0.000616763
-0.00060399
-0.00057968
0.000107018
5.88167e-05
2.67825e-05
2.53408e-06
-1.75608e-05
-3.3882e-05
-4.70891e-05
-5.79817e-05
-6.7234e-05
-7.54002e-05
-8.29355e-05
-9.02017e-05
-9.74755e-05
-0.000104957
-0.000112782
-0.000121026
-0.000129719
-0.000138847
-0.000148366
-0.000158203
-0.000168263
-0.000178434
-0.000188593
-0.000198602
-0.000208318
-0.00021759
-0.000226262
-0.00023417
-0.000241147
-0.00024702
-0.000251608
-0.000254726
-0.000256181
-0.000255772
-0.000253294
-0.000248535
-0.000241282
-0.000231319
-0.000218436
-0.00020243
-0.000183111
-0.000160308
-0.000133876
-0.000103702
-6.97176e-05
-3.19031e-05
9.71002e-06
5.50253e-05
0.000103791
0.000155748
0.000210563
0.00026775
0.000326766
0.000386939
0.000447499
0.000507584
0.000566253
0.000622497
0.00067526
0.000723461
0.000766026
0.000801912
0.00083015
0.000849871
0.000860343
0.000861004
0.00085149
0.000831653
0.000801577
0.000761588
0.000712241
0.000654314
0.000588781
0.000516779
0.000439567
0.000358488
0.000274914
0.000190203
0.000105655
2.24758e-05
-5.82578e-05
-0.00013562
-0.00020885
-0.000277353
-0.000340701
-0.000398617
-0.000450958
-0.000497695
-0.000538881
-0.000574627
-0.000605071
-0.000630352
-0.000650581
-0.00066582
-0.000676048
-0.000681144
-0.000681019
-0.000675681
-0.000663275
-0.000639277
8.69741e-05
3.54227e-05
1.38233e-06
-2.41885e-05
-4.52443e-05
-6.22429e-05
-7.59323e-05
-8.71994e-05
-9.67863e-05
-0.000105298
-0.000113229
-0.000120968
-0.00012881
-0.000136971
-0.000145593
-0.000154759
-0.000164502
-0.000174811
-0.000185645
-0.000196933
-0.000208585
-0.000220493
-0.000232541
-0.000244599
-0.000256533
-0.000268206
-0.000279472
-0.000290186
-0.000300196
-0.000309345
-0.00031747
-0.000324399
-0.000329955
-0.000333949
-0.000336183
-0.000336448
-0.000334527
-0.000330198
-0.000323232
-0.000313401
-0.000300479
-0.000284245
-0.000264496
-0.000241049
-0.000213748
-0.000182479
-0.000147166
-0.000107786
-6.44246e-05
-1.73787e-05
3.3472e-05
8.75707e-05
0.000144478
0.000203658
0.000264438
0.000326023
0.00038751
0.000447893
0.000506086
0.000560938
0.000611265
0.000655883
0.000693638
0.000723459
0.000744383
0.000755604
0.000756514
0.000746724
0.000726094
0.000694751
0.000653091
0.000601769
0.000541684
0.000473946
0.000399833
0.000320747
0.000238157
0.000153547
6.83599e-05
-1.60489e-05
-9.84509e-05
-0.000177778
-0.00025314
-0.000323836
-0.000389351
-0.000449344
-0.000503631
-0.000552157
-0.000594971
-0.000632188
-0.000663959
-0.000690438
-0.000711754
-0.000727982
-0.000739112
-0.000745025
-0.000745628
-0.000740918
-0.00072904
-0.000705503
5.89948e-05
4.21243e-06
-3.17521e-05
-5.85852e-05
-8.05601e-05
-9.8215e-05
-0.000112387
-0.000124048
-0.000134009
-0.000142922
-0.000151318
-0.000159611
-0.000168116
-0.000177057
-0.000186587
-0.000196791
-0.000207707
-0.000219328
-0.000231616
-0.000244504
-0.000257911
-0.000271736
-0.000285873
-0.000300207
-0.000314622
-0.000328997
-0.000343213
-0.000357147
-0.000370675
-0.000383668
-0.000395991
-0.000407504
-0.000418056
-0.000427481
-0.000435604
-0.000442231
-0.000447157
-0.000450158
-0.000450997
-0.000449423
-0.000445174
-0.000437979
-0.000427564
-0.000413654
-0.000395989
-0.000374322
-0.000348443
-0.000318182
-0.000283371
-0.000243908
-0.000200237
-0.000151894
-9.94716e-05
-4.33359e-05
1.60149e-05
7.79154e-05
0.00014155
0.000205954
0.000270039
0.000332596
0.000392333
0.000447905
0.000497949
0.000541134
0.000576207
0.000602041
0.000617692
0.000622434
0.000615802
0.000597624
0.000568032
0.000527471
0.000476688
0.000416698
0.000348756
0.000274296
0.000194876
0.000112112
2.76132e-05
-5.70755e-05
-0.000140531
-0.000221492
-0.000298891
-0.000371868
-0.000439775
-0.000502168
-0.000558786
-0.000609526
-0.000654405
-0.000693529
-0.000727048
-0.000755128
-0.000777909
-0.000795477
-0.00080783
-0.00081485
-0.000816437
-0.000812572
-0.000801405
-0.000778485
2.23584e-05
-3.55316e-05
-7.33374e-05
-0.000101373
-0.000124227
-0.000142518
-0.000157174
-0.000169252
-0.000179626
-0.000188998
-0.00019793
-0.000206863
-0.000216124
-0.000225951
-0.0002365
-0.000247864
-0.000260084
-0.000273156
-0.000287049
-0.000301705
-0.000317049
-0.000332998
-0.00034946
-0.000366344
-0.000383557
-0.000401011
-0.000418618
-0.000436296
-0.00045396
-0.000471528
-0.000488909
-0.00050601
-0.000522724
-0.000538933
-0.000554499
-0.000569265
-0.000583048
-0.000595643
-0.000606815
-0.000616296
-0.00062379
-0.000628969
-0.000631475
-0.000630923
-0.000626909
-0.000619019
-0.000606844
-0.000589996
-0.000568079
-0.000540691
-0.000507627
-0.000469081
-0.000424615
-0.000374535
-0.000319107
-0.000258788
-0.00019425
-0.000126358
-5.61662e-05
1.50907e-05
8.60185e-05
0.0001551
0.000220733
0.000281278
0.00033512
0.000380721
0.000416693
0.000441851
0.000455277
0.000456361
0.000444842
0.000420826
0.000384789
0.00033756
0.000280288
0.00021439
0.000141483
6.33145e-05
-1.83189e-05
-0.000101647
-0.000184998
-0.000266854
-0.000345903
-0.000421057
-0.000491474
-0.000556545
-0.000615886
-0.000669299
-0.00071674
-0.000758278
-0.000794048
-0.000824211
-0.000848912
-0.000868242
-0.000882201
-0.000890672
-0.000893545
-0.000890778
-0.000880529
-0.000858403
-2.36446e-05
-8.45153e-05
-0.000124079
-0.000153259
-0.000176952
-0.000195864
-0.000211009
-0.000223529
-0.00023436
-0.00024425
-0.000253795
-0.000263454
-0.000273573
-0.000284394
-0.000296084
-0.000308738
-0.000322402
-0.00033708
-0.000352748
-0.00036936
-0.000386857
-0.000405174
-0.000424247
-0.000444014
-0.000464421
-0.000485423
-0.000506981
-0.000529069
-0.000551662
-0.000574742
-0.000598288
-0.000622276
-0.000646673
-0.000671427
-0.000696467
-0.000721696
-0.000746981
-0.000772151
-0.000796988
-0.00082122
-0.000844516
-0.000866482
-0.00088666
-0.000904524
-0.000919488
-0.000930913
-0.000938122
-0.000940419
-0.000937095
-0.000927424
-0.000910745
-0.000886746
-0.000855042
-0.000815147
-0.000767151
-0.000711211
-0.000647765
-0.000577503
-0.000501384
-0.000420628
-0.000336706
-0.00025131
-0.000166303
-8.36795e-05
-5.49494e-06
6.62086e-05
0.000129476
0.000182525
0.00022382
0.00025215
0.00026668
0.000267008
0.000253178
0.000225686
0.000185457
0.000133798
7.23308e-05
2.90619e-06
-7.24845e-05
-0.000151809
-0.000233088
-0.000314474
-0.00039432
-0.000471226
-0.000544063
-0.000611981
-0.000674394
-0.000730953
-0.000781502
-0.000826036
-0.000864643
-0.000897462
-0.000924625
-0.00094622
-0.000962245
-0.000972577
-0.000977091
-0.000975718
-0.000966625
-0.000945492
-7.97097e-05
-0.000143429
-0.000184665
-0.000214933
-0.00023943
-0.00025895
-0.000274594
-0.000287587
-0.000298925
-0.0003094
-0.000319638
-0.00033012
-0.000341202
-0.000353138
-0.000366098
-0.000380186
-0.000395453
-0.000411913
-0.000429552
-0.000448342
-0.000468246
-0.00048923
-0.000511262
-0.000534327
-0.000558421
-0.000583561
-0.000609779
-0.000637122
-0.000665653
-0.000695445
-0.000726575
-0.000759121
-0.000793153
-0.000828724
-0.000865862
-0.000904562
-0.00094477
-0.000986377
-0.0010292
-0.00107297
-0.00111732
-0.00116179
-0.00120579
-0.0012486
-0.00128942
-0.0013273
-0.00136122
-0.00139008
-0.00141274
-0.00142803
-0.0014348
-0.00143207
-0.00141936
-0.00139498
-0.00135911
-0.00131144
-0.00125203
-0.00118128
-0.00109999
-0.0010093
-0.000910733
-0.000806124
-0.000697615
-0.000587589
-0.000478604
-0.000373307
-0.000274344
-0.000184253
-0.000105364
-3.96974e-05
1.11286e-05
4.59771e-05
6.42457e-05
6.58947e-05
5.14469e-05
2.19545e-05
-2.10649e-05
-7.57165e-05
-0.000139835
-0.000211105
-0.000287182
-0.000365804
-0.000444887
-0.000522601
-0.000597418
-0.000668132
-0.000733857
-0.000794003
-0.000848231
-0.000896402
-0.000938518
-0.000974658
-0.00100492
-0.00102938
-0.00104802
-0.00106069
-0.00106726
-0.00106763
-0.00105997
-0.00104005
-0.000146514
-0.000212945
-0.000255768
-0.000287069
-0.000312339
-0.000332459
-0.000348618
-0.000362121
-0.000374023
-0.000385158
-0.000396179
-0.000407588
-0.000419753
-0.000432936
-0.000447315
-0.000463
-0.000480051
-0.000498495
-0.000518337
-0.000539571
-0.000562192
-0.000586205
-0.000611628
-0.000638506
-0.000666906
-0.000696926
-0.000728693
-0.000762361
-0.000798106
-0.000836131
-0.000876646
-0.000919872
-0.000966025
-0.0010153
-0.00106788
-0.00112389
-0.00118338
-0.00124634
-0.00131264
-0.00138202
-0.0014541
-0.00152829
-0.00160385
-0.00167984
-0.00175513
-0.0018284
-0.00189817
-0.00196283
-0.00202068
-0.00206997
-0.00210893
-0.00213576
-0.00214877
-0.00214757
-0.00213006
-0.00209579
-0.00204442
-0.00197601
-0.00189107
-0.0017906
-0.00167611
-0.00154954
-0.00141331
-0.00127019
-0.00112329
-0.000975944
-0.000831607
-0.000693728
-0.000565623
-0.000450342
-0.000350542
-0.00026836
-0.000205324
-0.00016228
-0.000139357
-0.000135977
-0.000150901
-0.000182312
-0.000227939
-0.000285193
-0.000351322
-0.000423565
-0.000499283
-0.000576078
-0.000651871
-0.000724956
-0.000794007
-0.000858073
-0.000916528
-0.000969015
-0.00101538
-0.0010556
-0.00108971
-0.00111773
-0.00113961
-0.0011552
-0.00116431
-0.00116682
-0.00116091
-0.00114246
-0.000224715
-0.000293714
-0.000338037
-0.000370318
-0.000396334
-0.000417053
-0.000433751
-0.00044781
-0.000460343
-0.000472222
-0.00048413
-0.000496584
-0.000509967
-0.000524548
-0.000540513
-0.000557983
-0.00057703
-0.000597699
-0.00062002
-0.00064402
-0.000669735
-0.000697223
-0.000726571
-0.0007579
-0.000791375
-0.000827202
-0.000865633
-0.000906962
-0.000951523
-0.000999685
-0.00105185
-0.00110842
-0.00116981
-0.00123643
-0.00130864
-0.00138675
-0.00147098
-0.00156142
-0.00165804
-0.0017606
-0.00186863
-0.00198145
-0.00209809
-0.00221729
-0.00233752
-0.00245699
-0.00257363
-0.00268519
-0.00278923
-0.00288326
-0.00296476
-0.00303115
-0.00307998
-0.00310944
-0.00311769
-0.00310319
-0.00306503
-0.0030028
-0.00291666
-0.00280737
-0.00267632
-0.00252553
-0.0023576
-0.00217572
-0.00198356
-0.00178516
-0.00158488
-0.0013872
-0.00119662
-0.00101744
-0.000853626
-0.000708617
-0.000585199
-0.000485365
-0.000410234
-0.000360009
-0.000333997
-0.000330671
-0.000347792
-0.000382568
-0.000431838
-0.00049227
-0.000560551
-0.000633554
-0.000708471
-0.000782904
-0.000854909
-0.000923005
-0.000986134
-0.0010436
-0.00109501
-0.00114015
-0.00117894
-0.00121132
-0.00123719
-0.00125635
-0.00126858
-0.0012737
-0.0012699
-0.0012532
-0.000314943
-0.00038636
-0.000432094
-0.000465305
-0.000492045
-0.000513369
-0.000530638
-0.00054531
-0.000558552
-0.000571276
-0.000584188
-0.000597824
-0.000612578
-0.00062873
-0.000646477
-0.000665952
-0.000687246
-0.000710429
-0.000735561
-0.000762715
-0.000791984
-0.000823495
-0.000857422
-0.000893993
-0.000933493
-0.000976272
-0.00102275
-0.00107339
-0.00112875
-0.00118941
-0.00125601
-0.00132923
-0.00140972
-0.00149817
-0.00159518
-0.00170131
-0.00181696
-0.0019424
-0.00207766
-0.00222252
-0.00237645
-0.00253856
-0.00270759
-0.00288189
-0.0030594
-0.0032377
-0.003414
-0.00358523
-0.00374811
-0.00389921
-0.00403505
-0.00415218
-0.00424725
-0.00431725
-0.00435987
-0.00437258
-0.00435388
-0.00430276
-0.0042189
-0.00410272
-0.00395542
-0.00377897
-0.00357614
-0.00335041
-0.00310597
-0.00284759
-0.00258056
-0.00231048
-0.00204314
-0.00178429
-0.00153947
-0.00131374
-0.00111151
-0.000936327
-0.000790712
-0.000676068
-0.000592627
-0.000539479
-0.00051467
-0.000515367
-0.000538066
-0.000578846
-0.000633616
-0.000698354
-0.000769314
-0.000843177
-0.000917148
-0.000988994
-0.00105703
-0.00112006
-0.0011773
-0.00122826
-0.00127266
-0.00131031
-0.00134101
-0.00136449
-0.00138049
-0.00138875
-0.00138749
-0.00137285
-0.000417801
-0.000491476
-0.000538533
-0.000572626
-0.000600073
-0.000622016
-0.0006399
-0.000655253
-0.000669298
-0.00068298
-0.000697032
-0.000712007
-0.000728311
-0.000746238
-0.000765995
-0.000787736
-0.000811574
-0.000837612
-0.000865957
-0.000896735
-0.000930115
-0.000966316
-0.00100562
-0.0010484
-0.00109508
-0.00114622
-0.00120242
-0.00126441
-0.00133298
-0.00140903
-0.0014935
-0.00158737
-0.00169167
-0.00180739
-0.00193546
-0.00207673
-0.00223185
-0.00240124
-0.00258503
-0.00278299
-0.00299444
-0.00321824
-0.00345273
-0.0036957
-0.00394446
-0.00419577
-0.00444597
-0.00469103
-0.0049266
-0.0051482
-0.00535125
-0.00553124
-0.00568383
-0.00580498
-0.00589116
-0.00593946
-0.00594736
-0.00591319
-0.0058361
-0.00571606
-0.00555399
-0.00535169
-0.00511197
-0.00483851
-0.00453592
-0.00420961
-0.00386573
-0.00351101
-0.00315257
-0.00279775
-0.00245385
-0.00212785