/*--------------------------------*- C++ -*----------------------------------*\
  =========                 |
  \\      /  F ield         | OpenFOAM: The Open Source CFD Toolbox
   \\    /   O peration     | Website:  https://openfoam.org
    \\  /    A nd           | Version:  9
     \\/     M anipulation  |
\*---------------------------------------------------------------------------*/
FoamFile
{
    format      ascii;
    class       surfaceScalarField;
    location    "1";
    object      phi;
}
// * * * * * * * * * * * * * * * * * * * * * * * * * * * * * * * * * * * * * //

dimensions      [0 3 -1 0 0 0 0];

internalField   nonuniform List<scalar> 
19800
(
1.38522e-10
-1.38478e-10
2.94039e-10
-1.55517e-10
3.35681e-10
-4.16431e-11
2.13116e-10
1.22579e-10
-7.49598e-11
2.88086e-10
-5.13957e-10
4.38991e-10
-1.08175e-09
5.67778e-10
-1.75414e-09
6.72385e-10
-2.50855e-09
7.54416e-10
-3.32549e-09
8.16948e-10
-4.18901e-09
8.63523e-10
-5.08666e-09
8.97643e-10
-6.00915e-09
9.22498e-10
-6.94998e-09
9.40828e-10
-7.90485e-09
9.54868e-10
-8.8712e-09
9.66352e-10
-9.84775e-09
9.7655e-10
-1.08341e-08
9.86317e-10
-1.18302e-08
9.96156e-10
-1.28365e-08
1.00628e-09
-1.38532e-08
1.01669e-09
-1.48804e-08
1.02718e-09
-1.59178e-08
1.03746e-09
-1.6965e-08
1.04712e-09
-1.80207e-08
1.05572e-09
-1.90834e-08
1.06276e-09
-2.01512e-08
1.06773e-09
-2.12213e-08
1.07014e-09
-2.22908e-08
1.06945e-09
-2.33559e-08
1.06515e-09
-2.44127e-08
1.05674e-09
-2.54563e-08
1.04369e-09
-2.64818e-08
1.02548e-09
-2.74834e-08
1.00159e-09
-2.84549e-08
9.71488e-10
-2.93895e-08
9.34653e-10
-3.02801e-08
8.90561e-10
-3.11188e-08
8.38702e-10
-3.18974e-08
7.7859e-10
-3.26072e-08
7.09782e-10
-3.32391e-08
6.31891e-10
-3.37837e-08
5.44609e-10
-3.42314e-08
4.47726e-10
-3.45726e-08
3.41163e-10
-3.47976e-08
2.24992e-10
-3.4897e-08
9.94526e-11
-3.4862e-08
-3.50267e-11
-3.46842e-08
-1.7779e-10
-3.43563e-08
-3.27942e-10
-3.38719e-08
-4.84356e-10
-3.32262e-08
-6.45659e-10
-3.2416e-08
-8.10237e-10
-3.14398e-08
-9.76243e-10
-3.02981e-08
-1.14163e-09
-2.8994e-08
-1.30416e-09
-2.75325e-08
-1.46147e-09
-2.59214e-08
-1.61111e-09
-2.41708e-08
-1.7506e-09
-2.22933e-08
-1.87747e-09
-2.0304e-08
-1.98937e-09
-1.82199e-08
-2.0841e-09
-1.60601e-08
-2.15972e-09
-1.38456e-08
-2.21454e-09
-1.15983e-08
-2.24728e-09
-9.34127e-09
-2.25704e-09
-7.09794e-09
-2.24334e-09
-4.89174e-09
-2.2062e-09
-2.74564e-09
-2.14609e-09
-6.81684e-10
-2.06396e-09
1.27952e-09
-1.9612e-09
3.11908e-09
-1.83956e-09
4.82024e-09
-1.70116e-09
6.36862e-09
-1.54838e-09
7.75249e-09
-1.38387e-09
8.9628e-09
-1.21031e-09
9.99327e-09
-1.03047e-09
1.08404e-08
-8.47088e-10
1.15031e-08
-6.62777e-10
1.19831e-08
-4.79985e-10
1.22841e-08
-3.0094e-10
1.24117e-08
-1.27619e-10
1.23734e-08
3.83229e-11
1.2178e-08
1.95394e-10
1.18355e-08
3.42508e-10
1.13568e-08
4.787e-10
1.07536e-08
6.03192e-10
1.00383e-08
7.15273e-10
9.22411e-09
8.14187e-10
8.32511e-09
8.98993e-10
7.35673e-09
9.68382e-10
6.33627e-09
1.02046e-09
5.28382e-09
1.05245e-09
4.22342e-09
1.06039e-09
3.1847e-09
1.03872e-09
2.20485e-09
9.79856e-10
1.33068e-09
8.74169e-10
6.19567e-10
7.11111e-10
1.36464e-10
4.83103e-10
-6.25219e-11
1.98985e-10
-6.2524e-11
1.59088e-10
-2.97566e-10
2.22685e-10
-2.1911e-10
-3.95194e-12
1.84969e-10
-5.96932e-10
7.15541e-10
-1.57958e-09
1.27074e-09
-2.92825e-09
1.78767e-09
-4.59945e-09
2.23898e-09
-6.54285e-09
2.61578e-09
-8.70822e-09
2.91978e-09
-1.10497e-08
3.15841e-09
-1.35278e-08
3.34165e-09
-1.61103e-08
3.48019e-09
-1.87721e-08
3.58422e-09
-2.1494e-08
3.66281e-09
-2.42627e-08
3.72356e-09
-2.70689e-08
3.77254e-09
-2.99067e-08
3.81431e-09
-3.27724e-08
3.85203e-09
-3.56639e-08
3.88768e-09
-3.85798e-08
3.92221e-09
-4.15189e-08
3.95576e-09
-4.44796e-08
3.98786e-09
-4.74597e-08
4.01752e-09
-5.0456e-08
4.04346e-09
-5.34645e-08
4.06415e-09
-5.64796e-08
4.07792e-09
-5.94949e-08
4.08302e-09
-6.25024e-08
4.07765e-09
-6.5493e-08
4.06003e-09
-6.84562e-08
4.02834e-09
-7.13802e-08
3.9808e-09
-7.42522e-08
3.9156e-09
-7.70576e-08
3.83097e-09
-7.97812e-08
3.72511e-09
-8.24059e-08
3.59625e-09
-8.49139e-08
3.44264e-09
-8.72859e-08
3.26254e-09
-8.95015e-08
3.05432e-09
-9.15393e-08
2.81643e-09
-9.33771e-08
2.54749e-09
-9.49915e-08
2.24636e-09
-9.63591e-08
1.91218e-09
-9.74558e-08
1.54444e-09
-9.82578e-08
1.14311e-09
-9.87415e-08
7.08695e-10
-9.88843e-08
2.42265e-10
-9.8665e-08
-2.54322e-10
-9.8064e-08
-7.78738e-10
-9.70645e-08
-1.3275e-09
-9.56523e-08
-1.89654e-09
-9.38171e-08
-2.48091e-09
-9.15524e-08
-3.07489e-09
-8.88566e-08
-3.672e-09
-8.57332e-08
-4.26507e-09
-8.2191e-08
-4.8464e-09
-7.82446e-08
-5.40784e-09
-7.39147e-08
-5.94098e-09
-6.9228e-08
-6.43734e-09
-6.42169e-08
-6.88859e-09
-5.89195e-08
-7.28672e-09
-5.33793e-08
-7.62431e-09
-4.76443e-08
-7.89472e-09
-4.17665e-08
-8.09231e-09
-3.58012e-08
-8.21265e-09
-2.98056e-08
-8.25263e-09
-2.38383e-08
-8.21061e-09
-1.7958e-08
-8.08649e-09
-1.22223e-08
-7.88175e-09
-6.68689e-09
-7.5994e-09
-1.40413e-09
-7.24396e-09
3.5776e-09
-6.82129e-09
8.21475e-09
-6.33831e-09
1.24694e-08
-5.80307e-09
1.63099e-08
-5.22433e-09
1.97109e-08
-4.61129e-09
2.26538e-08
-3.97337e-09
2.51267e-08
-3.31996e-09
2.71241e-08
-2.6602e-09
2.86468e-08
-2.00272e-09
2.97014e-08
-1.35551e-09
3.02995e-08
-7.25772e-10
3.04577e-08
-1.19831e-10
3.01963e-08
4.56781e-10
2.95394e-08
9.99426e-10
2.8514e-08
1.50407e-09
2.715e-08
1.96718e-09
2.54799e-08
2.38539e-09
2.35389e-08
2.75517e-09
2.13656e-08
3.07234e-09
1.90024e-08
3.33153e-09
1.64973e-08
3.52554e-09
1.39052e-08
3.6446e-09
1.12899e-08
3.67564e-09
8.72702e-09
3.60163e-09
6.30544e-09
3.40143e-09
4.12858e-09
3.05103e-09
2.3112e-09
2.52848e-09
9.69338e-10
1.82497e-09
1.98165e-10
9.70156e-10
1.35641e-10
4.50076e-11
-3.42575e-10
-1.90524e-10
1.64464e-11
-8.85222e-10
8.7967e-10
-2.12474e-09
1.95505e-09
-3.91966e-09
3.06564e-09
-6.24015e-09
4.10815e-09
-9.03072e-09
5.02956e-09
-1.22248e-08
5.80991e-09
-1.57545e-08
6.4494e-09
-1.95558e-08
6.95975e-09
-2.35727e-08
7.35854e-09
-2.77579e-08
7.66542e-09
-3.20734e-08
7.89974e-09
-3.64897e-08
8.07907e-09
-4.09846e-08
8.21845e-09
-4.55421e-08
8.33003e-09
-5.01509e-08
8.42309e-09
-5.4803e-08
8.50421e-09
-5.9493e-08
8.5776e-09
-6.42162e-08
8.6454e-09
-6.89685e-08
8.70813e-09
-7.37456e-08
8.76495e-09
-7.85422e-08
8.81407e-09
-8.33517e-08
8.85296e-09
-8.81662e-08
8.87863e-09
-9.2976e-08
8.88775e-09
-9.77698e-08
8.87683e-09
-1.02534e-07
8.84227e-09
-1.07255e-07
8.78046e-09
-1.11914e-07
8.68778e-09
-1.16494e-07
8.56065e-09
-1.20974e-07
8.39549e-09
-1.25332e-07
8.18875e-09
-1.29544e-07
7.93692e-09
-1.33584e-07
7.6365e-09
-1.37425e-07
7.28407e-09
-1.41039e-07
6.87632e-09
-1.44395e-07
6.4101e-09
-1.47461e-07
5.88251e-09
-1.50204e-07
5.291e-09
-1.52592e-07
4.63352e-09
-1.54588e-07
3.90861e-09
-1.56159e-07
3.1156e-09
-1.57271e-07
2.25475e-09
-1.5789e-07
1.3274e-09
-1.57983e-07
3.36213e-10
-1.57523e-07
-7.1515e-10
-1.5648e-07
-1.82109e-09
-1.54833e-07
-2.97456e-09
-1.52563e-07
-4.16702e-09
-1.49655e-07
-5.38827e-09
-1.46104e-07
-6.62653e-09
-1.41907e-07
-7.86861e-09
-1.37072e-07
-9.09999e-09
-1.31614e-07
-1.03051e-08
-1.25554e-07
-1.14676e-08
-1.18924e-07
-1.25706e-08
-1.11764e-07
-1.35971e-08
-1.04123e-07
-1.45305e-08
-9.60544e-08
-1.53549e-08
-8.76232e-08
-1.60554e-08
-7.88992e-08
-1.66188e-08
-6.99577e-08
-1.70338e-08
-6.08789e-08
-1.72914e-08
-5.17462e-08
-1.73854e-08
-4.26446e-08
-1.73122e-08
-3.36597e-08
-1.70714e-08
-2.48758e-08
-1.66657e-08
-1.63745e-08
-1.61007e-08
-8.23335e-09
-1.53851e-08
-5.24396e-10
-1.45302e-08
6.68716e-09
-1.35499e-08
1.33434e-08
-1.24593e-08
1.93954e-08
-1.12763e-08
2.48031e-08
-1.0019e-08
2.95359e-08
-8.70618e-09
3.35728e-08
-7.35691e-09
3.69023e-08
-5.98972e-09
3.9522e-08
-4.62237e-09
4.14379e-08
-3.27144e-09
4.26642e-08
-1.95209e-09
4.32223e-08
-6.77922e-10
4.314e-08
5.39049e-10
4.24511e-08
1.68834e-09
4.11945e-08
2.7607e-09
3.94139e-08
3.74776e-09
3.71578e-08
4.64151e-09
3.44794e-08
5.43354e-09
3.14375e-08
6.11429e-09
2.8097e-08
6.67199e-09
2.4531e-08
7.0916e-09
2.08219e-08
7.35366e-09
1.70642e-08
7.4333e-09
1.33663e-08
7.29961e-09
9.85144e-09
6.91625e-09
6.65794e-09
6.24453e-09
3.93458e-09
5.25184e-09
1.83151e-09
3.92804e-09
4.83808e-10
2.31786e-09
6.19449e-10
-1.31958e-10
-2.10633e-10
-7.77069e-10
6.61563e-10
-2.07527e-09
2.17788e-09
-4.07712e-09
3.9569e-09
-6.77754e-09
5.76605e-09
-1.01319e-08
7.4625e-09
-1.40719e-08
8.96952e-09
-1.85181e-08
1.02562e-08
-2.33897e-08
1.1321e-08
-2.86103e-08
1.21803e-08
-3.41114e-08
1.28597e-08
-3.98349e-08
1.33889e-08
-4.57328e-08
1.37977e-08
-5.1767e-08
1.41132e-08
-5.79079e-08
1.43593e-08
-6.41331e-08
1.45553e-08
-7.0426e-08
1.4716e-08
-7.67741e-08
1.48523e-08
-8.31675e-08
1.4971e-08
-8.95979e-08
1.50759e-08
-9.60576e-08
1.51679e-08
-1.02539e-07
1.52459e-08
-1.09032e-07
1.53072e-08
-1.15527e-07
1.53478e-08
-1.22011e-07
1.53631e-08
-1.28471e-07
1.53477e-08
-1.3489e-07
1.52962e-08
-1.41251e-07
1.52028e-08
-1.47532e-07
1.50619e-08
-1.53712e-07
1.48676e-08
-1.59766e-07
1.46143e-08
-1.65667e-07
1.42964e-08
-1.71386e-07
1.39083e-08
-1.76894e-07
1.34444e-08
-1.82157e-07
1.28994e-08
-1.8714e-07
1.22679e-08
-1.91809e-07
1.15448e-08
-1.96124e-07
1.07253e-08
-2.00046e-07
9.80487e-09
-2.03535e-07
8.77978e-09
-2.06549e-07
7.647e-09
-2.09045e-07
6.40454e-09
-2.10981e-07
5.05167e-09
-2.12315e-07
3.58919e-09
-2.13007e-07
2.01966e-09
-2.13019e-07
3.47862e-10
-2.12314e-07
-1.42018e-09
-2.1086e-07
-3.27465e-09
-2.08631e-07
-5.20406e-09
-2.05604e-07
-7.19424e-09
-2.01764e-07
-9.22846e-09
-1.97103e-07
-1.12875e-08
-1.91621e-07
-1.33499e-08
-1.85329e-07
-1.53922e-08
-1.78245e-07
-1.73892e-08
-1.70398e-07
-1.93145e-08
-1.61828e-07
-2.1141e-08
-1.52583e-07
-2.28415e-08
-1.42725e-07
-2.43892e-08
-1.32321e-07
-2.57585e-08
-1.21451e-07
-2.69256e-08
-1.10201e-07
-2.7869e-08
-9.86637e-08
-2.85706e-08
-8.69395e-08
-2.90157e-08
-7.51311e-08
-2.91937e-08
-6.33444e-08
-2.90989e-08
-5.16859e-08
-2.87299e-08
-4.02611e-08
-2.80905e-08
-2.91726e-08
-2.71891e-08
-1.85185e-08
-2.60392e-08
-8.3906e-09
-2.46582e-08
1.12713e-09
-2.30676e-08
9.96025e-09
-2.12924e-08
1.80435e-08
-1.93596e-08
2.53234e-08
-1.72988e-08
3.17574e-08
-1.51403e-08
3.73154e-08
-1.29148e-08
4.19783e-08
-1.06527e-08
4.5739e-08
-8.38309e-09
4.86012e-08
-6.1336e-09
5.05788e-08
-3.92972e-09
5.16955e-08
-1.79458e-09
5.19835e-08
2.51055e-10
5.14831e-08
2.18874e-09
5.02418e-08
4.00193e-09
4.83141e-08
5.67546e-09
4.57609e-08
7.1947e-09
4.26499e-08
8.54455e-09
3.9056e-08
9.70819e-09
3.50624e-08
1.06657e-08
3.07616e-08
1.13924e-08
2.62576e-08
1.18576e-08
2.16675e-08
1.20234e-08
1.71229e-08
1.18442e-08
1.27712e-08
1.1268e-08
8.77489e-09
1.02408e-08
5.30967e-09
8.71706e-09
2.56024e-09
6.67746e-09
7.18308e-10
4.15979e-09
1.33776e-09
-3.29569e-10
1.18929e-10
-1.45091e-09
1.78289e-09
-3.42985e-09
4.15683e-09
-6.274e-09
6.80104e-09
-9.9479e-09
9.43994e-09
-1.43858e-08
1.19004e-08
-1.95036e-08
1.40873e-08
-2.52092e-08
1.59618e-08
-3.14108e-08
1.75226e-08
-3.80218e-08
1.87913e-08
-4.4965e-08
1.98029e-08
-5.21738e-08
2.05977e-08
-5.95926e-08
2.12164e-08
-6.71764e-08
2.1697e-08
-7.48895e-08
2.20724e-08
-8.2704e-08
2.23698e-08
-9.05984e-08
2.26103e-08
-9.85552e-08
2.28092e-08
-1.06561e-07
2.29763e-08
-1.14602e-07
2.31172e-08
-1.22667e-07
2.32334e-08
-1.30745e-07
2.33235e-08
-1.38821e-07
2.33837e-08
-1.46882e-07
2.34087e-08
-1.54911e-07
2.3392e-08
-1.6289e-07
2.33262e-08
-1.70797e-07
2.32036e-08
-1.78611e-07
2.30165e-08
-1.86306e-07
2.27567e-08
-1.93854e-07
2.24164e-08
-2.01228e-07
2.19878e-08
-2.08395e-07
2.1463e-08
-2.15321e-07
2.08344e-08
-2.21971e-07
2.00944e-08
-2.28307e-07
1.92355e-08
-2.34289e-07
1.82503e-08
-2.39876e-07
1.71318e-08
-2.45024e-07
1.58734e-08
-2.49688e-07
1.44689e-08
-2.53822e-07
1.29133e-08
-2.57377e-07
1.12026e-08
-2.60307e-07
9.33407e-09
-2.62562e-07
7.30712e-09
-2.64096e-07
5.12318e-09
-2.64863e-07
2.78623e-09
-2.64819e-07
3.03555e-10
-2.63923e-07
-2.31619e-09
-2.62139e-07
-5.05832e-09
-2.59437e-07
-7.90629e-09
-2.55791e-07
-1.08396e-08
-2.51186e-07
-1.38339e-08
-2.45612e-07
-1.68618e-08
-2.39069e-07
-1.98924e-08
-2.31569e-07
-2.28919e-08
-2.23134e-07
-2.58244e-08
-2.13796e-07
-2.86522e-08
-2.03601e-07
-3.13364e-08
-1.92604e-07
-3.38381e-08
-1.80875e-07
-3.61191e-08
-1.68491e-07
-3.81424e-08
-1.55542e-07
-3.9874e-08
-1.42129e-07
-4.12829e-08
-1.28356e-07
-4.23427e-08
-1.1434e-07
-4.30318e-08
-1.00199e-07
-4.33348e-08
-8.60559e-08
-4.32422e-08
-7.20342e-08
-4.27516e-08
-5.82575e-08
-4.18672e-08
-4.48464e-08
-4.06002e-08
-3.19169e-08
-3.89688e-08
-1.9578e-08
-3.6997e-08
-7.93078e-09
-3.47148e-08
2.93387e-09
-3.21571e-08
1.29366e-08
-2.93624e-08
2.20102e-08
-2.63724e-08
3.01007e-08
-2.32307e-08
3.71675e-08
-1.99816e-08
4.31839e-08
-1.66691e-08
4.81366e-08
-1.33358e-08
5.20253e-08
-1.00223e-08
5.48623e-08
-6.76672e-09
5.66714e-08
-3.60373e-09
5.74874e-08
-5.64925e-10
5.73549e-08
2.32127e-09
5.63277e-08
5.02911e-09
5.44684e-08
7.53475e-09
5.18479e-08
9.81525e-09
4.85453e-08
1.18472e-08
4.46486e-08
1.36049e-08
4.02553e-08
1.5059e-08
3.54736e-08
1.61741e-08
3.04238e-08
1.69074e-08
2.52402e-08
1.72071e-08
2.0072e-08
1.70124e-08
1.5085e-08
1.6255e-08
1.04621e-08
1.48637e-08
6.40401e-09
1.27752e-08
3.13168e-09
9.94979e-09
8.94377e-10
6.3971e-09
2.23213e-09
-5.34558e-10
6.53494e-10
-2.16034e-09
3.40866e-09
-4.86388e-09
6.86036e-09
-8.59848e-09
1.05356e-08
-1.32901e-08
1.41316e-08
-1.88458e-08
1.74561e-08
-2.51622e-08
2.04036e-08
-3.21329e-08
2.29326e-08
-3.96551e-08
2.50448e-08
-4.76336e-08
2.67698e-08
-5.59836e-08
2.81529e-08
-6.46318e-08
2.92459e-08
-7.35169e-08
3.01015e-08
-8.25884e-08
3.07685e-08
-9.18057e-08
3.12897e-08
-1.01136e-07
3.17003e-08
-1.10554e-07
3.20277e-08
-1.20036e-07
3.2292e-08
-1.29566e-07
3.25063e-08
-1.39127e-07
3.26777e-08
-1.48702e-07
3.28084e-08
-1.58275e-07
3.28968e-08
-1.6783e-07
3.29382e-08
-1.77347e-07
3.29257e-08
-1.86806e-07
3.28511e-08
-1.96185e-07
3.2705e-08
-2.05459e-07
3.24777e-08
-2.14601e-07
3.21592e-08
-2.23584e-07
3.17394e-08
-2.32376e-07
3.12083e-08
-2.40944e-07
3.05561e-08
-2.49254e-07
2.97728e-08
-2.57269e-07
2.88488e-08
-2.64948e-07
2.77742e-08
-2.72253e-07
2.65397e-08
-2.79138e-07
2.51357e-08
-2.85559e-07
2.35532e-08
-2.9147e-07
2.17836e-08
-2.9682e-07
1.98191e-08
-3.01559e-07
1.76529e-08
-3.05637e-07
1.52799e-08
-3.09e-07
1.26968e-08
-3.11595e-07
9.90275e-09
-3.13372e-07
6.8997e-09
-3.14278e-07
3.69303e-09
-3.14268e-07
2.92652e-10
-3.13294e-07
-3.29019e-09
-3.11316e-07
-7.03559e-09
-3.08301e-07
-1.09217e-08
-3.04219e-07
-1.49212e-08
-2.99051e-07
-1.90019e-08
-2.92786e-07
-2.31272e-08
-2.85422e-07
-2.7256e-08
-2.7697e-07
-3.13436e-08
-2.67453e-07
-3.53422e-08
-2.56903e-07
-3.92015e-08
-2.4537e-07
-4.287e-08
-2.32912e-07
-4.62956e-08
-2.19604e-07
-4.94271e-08
-2.05531e-07
-5.22153e-08
-1.90791e-07
-5.46141e-08
-1.75493e-07
-5.65817e-08
-1.59753e-07
-5.80819e-08
-1.437e-07
-5.90852e-08
-1.27465e-07
-5.95695e-08
-1.11186e-07
-5.95211e-08
-9.50028e-08
-5.89352e-08
-7.90541e-08
-5.78159e-08
-6.34776e-08
-5.61767e-08
-4.84064e-08
-5.404e-08
-3.39665e-08
-5.14369e-08
-2.02755e-08
-4.84059e-08
-7.44011e-09
-4.49925e-08
4.4451e-09
-4.12476e-08
1.52992e-08
-3.72265e-08
2.50557e-08
-3.29872e-08
3.36633e-08
-2.85893e-08
4.10864e-08
-2.40921e-08
4.73045e-08
-1.95539e-08
5.23124e-08
-1.50302e-08
5.61193e-08
-1.05736e-08
5.87481e-08
-6.23253e-09
6.02345e-08
-2.05134e-09
6.06262e-08
1.92961e-09
5.99817e-08
5.67355e-09
5.83702e-08
9.1463e-09
5.58704e-08
1.2315e-08
5.25712e-08
1.51464e-08
4.85711e-08
1.7605e-08
4.39793e-08
1.96507e-08
3.89166e-08
2.12367e-08
3.35167e-08
2.23073e-08
2.79274e-08
2.27964e-08
2.23127e-08
2.26271e-08
1.68542e-08
2.17135e-08
1.17536e-08
1.99643e-08
7.23637e-09
1.72924e-08
3.55853e-09
1.36276e-08
1.0205e-09
8.93512e-09
3.25263e-09
-7.39755e-10
1.39326e-09
-2.87946e-09
5.54837e-09
-6.32724e-09
1.03081e-08
-1.09769e-08
1.51853e-08
-1.67104e-08
1.98651e-08
-2.3403e-08
2.41487e-08
-3.09286e-08
2.79292e-08
-3.91647e-08
3.11687e-08
-4.79966e-08
3.38767e-08
-5.73205e-08
3.60937e-08
-6.70447e-08
3.7877e-08
-7.70905e-08
3.92917e-08
-8.73918e-08
4.04028e-08
-9.78938e-08
4.12706e-08
-1.08552e-07
4.19477e-08
-1.19329e-07
4.24777e-08
-1.30196e-07
4.28945e-08
-1.41127e-07
4.32227e-08
-1.52099e-07
4.34786e-08
-1.63093e-07
4.36711e-08
-1.74087e-07
4.3803e-08
-1.85063e-07
4.38725e-08
-1.95999e-07
4.3874e-08
-2.06872e-07
4.37994e-08
-2.1766e-07
4.36387e-08
-2.28336e-07
4.33809e-08
-2.38873e-07
4.30144e-08
-2.49241e-07
4.25275e-08
-2.5941e-07
4.19081e-08
-2.69346e-07
4.11445e-08
-2.79015e-07
4.0225e-08
-2.8838e-07
3.91379e-08
-2.97403e-07
3.78715e-08
-3.06042e-07
3.64141e-08
-3.14257e-07
3.47541e-08
-3.22001e-07
3.28798e-08
-3.29228e-07
3.07801e-08
-3.35888e-07
2.84441e-08
-3.41931e-07
2.58619e-08
-3.47303e-07
2.30248e-08
-3.51949e-07
1.99262e-08
-3.55814e-07
1.65615e-08
-3.5884e-07
1.29293e-08
-3.60973e-07
9.03179e-09
-3.62155e-07
4.87528e-09
-3.62334e-07
4.71659e-10
-3.61459e-07
-4.16456e-09
-3.59486e-07
-9.00936e-09
-3.56372e-07
-1.40352e-08
-3.52085e-07
-1.9208e-08
-3.466e-07
-2.44872e-08
-3.399e-07
-2.98269e-08
-3.31981e-07
-3.51753e-08
-3.22849e-07
-4.0476e-08
-3.12523e-07
-4.56683e-08
-3.01035e-07
-5.06887e-08
-2.88434e-07
-5.54714e-08
-2.74779e-07
-5.99502e-08
-2.60147e-07
-6.40594e-08
-2.44627e-07
-6.77357e-08
-2.28321e-07
-7.09194e-08
-2.11347e-07
-7.35562e-08
-1.9383e-07
-7.55985e-08
-1.75909e-07
-7.70068e-08
-1.57727e-07
-7.77511e-08
-1.39437e-07
-7.78116e-08
-1.21192e-07
-7.71799e-08
-1.03149e-07
-7.5859e-08
-8.54617e-08
-7.38637e-08
-6.82814e-08
-7.12203e-08
-5.17518e-08
-6.79664e-08
-3.60081e-08
-6.41495e-08
-2.11744e-08
-5.98262e-08
-7.36165e-09
-5.50604e-08
5.33399e-09
-4.99221e-08
1.68323e-08
-4.44855e-08
2.70697e-08
-3.88268e-08
3.60003e-08
-3.30228e-08
4.35955e-08
-2.71491e-08
4.98439e-08
-2.12786e-08
5.47507e-08
-1.54804e-08
5.83369e-08
-9.8187e-09
6.06383e-08
-4.35282e-09
6.17048e-08
8.63111e-10
6.15989e-08
5.77945e-09
6.03952e-08
1.035e-08
5.81795e-08
1.45307e-08
5.50489e-08
1.82771e-08
5.11112e-08
2.15427e-08
4.64858e-08
2.42761e-08
4.13044e-08
2.64181e-08
3.5712e-08
2.78997e-08
2.98686e-08
2.86397e-08
2.39514e-08
2.85444e-08
1.81569e-08
2.75079e-08
1.27052e-08
2.5416e-08
7.84537e-09
2.21522e-08
3.86538e-09
1.76076e-08
1.10781e-09
1.16927e-08
4.36044e-09
-9.41648e-10
2.33491e-09
-3.59484e-09
8.20156e-09
-7.79125e-09
1.45045e-08
-1.33637e-08
2.07577e-08
-2.01474e-08
2.66488e-08
-2.79826e-08
3.19839e-08
-3.67177e-08
3.66644e-08
-4.62123e-08
4.06632e-08
-5.63389e-08
4.40033e-08
-6.69844e-08
4.67392e-08
-7.80507e-08
4.89433e-08
-8.94541e-08
5.06951e-08
-1.01124e-07
5.2073e-08
-1.13003e-07
5.31494e-08
-1.25042e-07
5.3987e-08
-1.37202e-07
5.46376e-08
-1.49449e-07
5.51416e-08
-1.61755e-07
5.55282e-08
-1.74093e-07
5.58166e-08
-1.86439e-07
5.60176e-08
-1.98771e-07
5.61346e-08
-2.11064e-07
5.61657e-08
-2.23295e-07
5.61047e-08
-2.35438e-07
5.59422e-08
-2.47466e-07
5.56672e-08
-2.59352e-07
5.52672e-08
-2.71067e-07
5.47293e-08
-2.8258e-07
5.40402e-08
-2.93859e-07
5.31868e-08
-3.0487e-07
5.21558e-08
-3.15579e-07
5.0934e-08
-3.25949e-07
4.95081e-08
-3.35942e-07
4.78649e-08
-3.45519e-07
4.59905e-08
-3.54636e-07
4.38712e-08
-3.63249e-07
4.14932e-08
-3.71311e-07
3.88424e-08
-3.78773e-07
3.59056e-08
-3.85581e-07
3.267e-08
-3.91681e-07
2.91246e-08
-3.97015e-07
2.52601e-08
-4.01523e-07
2.10702e-08
-4.05146e-07
1.6552e-08
-4.07821e-07
1.17071e-08
-4.09488e-07
6.54213e-09
-4.10087e-07
1.06986e-09
-4.09559e-07
-4.6919e-09
-4.07852e-07
-1.07162e-08
-4.04918e-07
-1.69699e-08
-4.00713e-07
-2.34123e-08
-3.95206e-07
-2.99949e-08
-3.88371e-07
-3.66619e-08
-3.80195e-07
-4.33507e-08
-3.70679e-07
-4.99925e-08
-3.59834e-07
-5.65132e-08
-3.47688e-07
-6.28346e-08
-3.34284e-07
-6.88757e-08
-3.1968e-07
-7.45542e-08
-3.03951e-07
-7.97885e-08
-2.87187e-07
-8.44992e-08
-2.69495e-07
-8.8611e-08
-2.50997e-07
-9.20547e-08
-2.31826e-07
-9.47691e-08
-2.12131e-07
-9.67025e-08
-1.92067e-07
-9.78148e-08
-1.718e-07
-9.80781e-08
-1.51502e-07
-9.74785e-08
-1.31345e-07
-9.60162e-08
-1.11502e-07
-9.37061e-08
-9.21448e-08
-9.05777e-08
-7.34368e-08
-8.66744e-08
-5.55338e-08
-8.20526e-08
-3.85795e-08
-7.67804e-08
-2.2704e-08
-7.09359e-08
-8.0213e-09
-6.46048e-08
5.37206e-09
-5.78788e-08
1.73984e-08
-5.08531e-08
2.79996e-08
-4.36239e-08
3.71371e-08
-3.62866e-08
4.4792e-08
-2.89335e-08
5.09645e-08
-2.16529e-08
5.5673e-08
-1.45272e-08
5.8953e-08
-7.63279e-09
6.08558e-08
-1.03971e-09
6.14477e-08
5.18761e-09
6.08084e-08
1.09893e-08
5.90306e-08
1.63085e-08
5.6219e-08
2.10886e-08
5.24906e-08
2.52711e-08
4.79744e-08
2.87924e-08
4.28121e-08
3.15804e-08
3.71597e-08
3.35521e-08
3.11889e-08
3.46105e-08
2.50896e-08
3.46437e-08
1.90731e-08
3.35244e-08
1.33774e-08
3.11118e-08
8.27379e-09
2.72558e-08
4.07818e-09
2.18032e-08
1.16642e-09
1.46045e-08
5.52686e-09
-1.1391e-09
3.474e-09
-4.29962e-09
1.13621e-08
-9.23959e-09
1.94445e-08
-1.57311e-08
2.72492e-08
-2.35612e-08
3.44789e-08
-3.25334e-08
4.09561e-08
-4.24691e-08
4.66001e-08
-5.32082e-08
5.14023e-08
-6.46094e-08
5.54045e-08
-7.655e-08
5.86798e-08
-8.89252e-08
6.13186e-08
-1.01647e-07
6.34164e-08
-1.1464e-07
6.50665e-08
-1.27844e-07
6.63537e-08
-1.41209e-07
6.73513e-08
-1.5469e-07
6.81194e-08
-1.68253e-07
6.87046e-08
-1.81866e-07
6.91407e-08
-1.95499e-07
6.94499e-08
-2.09126e-07
6.96446e-08
-2.22721e-07
6.97291e-08
-2.36256e-07
6.97015e-08
-2.49707e-07
6.95552e-08
-2.63045e-07
6.92803e-08
-2.76243e-07
6.88649e-08
-2.89271e-07
6.82958e-08
-3.02101e-07
6.75593e-08
-3.14702e-07
6.66414e-08
-3.27044e-07
6.55281e-08
-3.39093e-07
6.42054e-08
-3.50819e-07
6.2659e-08
-3.62185e-07
6.08745e-08
-3.73157e-07
5.88367e-08
-3.83696e-07
5.65302e-08
-3.93764e-07
5.39387e-08
-4.03316e-07
5.10455e-08
-4.12307e-07
4.78337e-08
-4.20688e-07
4.42863e-08
-4.28405e-07
4.03872e-08
-4.35402e-07
3.61216e-08
-4.41619e-07
3.14768e-08
-4.46992e-07
2.64432e-08
-4.51455e-07
2.10154e-08
-4.54941e-07
1.51931e-08
-4.57381e-07
8.98173e-09
-4.58705e-07
2.39426e-09
-4.58848e-07
-4.54958e-09
-4.57743e-07
-1.18207e-08
-4.55332e-07
-1.93812e-08
-4.5156e-07
-2.71841e-08
-4.46382e-07
-3.51734e-08
-4.3976e-07
-4.32836e-08
-4.3167e-07
-5.14408e-08
-4.22099e-07
-5.95634e-08
-4.1105e-07
-6.75628e-08
-3.98539e-07
-7.53451e-08
-3.84602e-07
-8.28125e-08
-3.69291e-07
-8.9865e-08
-3.52677e-07
-9.64027e-08
-3.34849e-07
-1.02328e-07
-3.15914e-07
-1.07546e-07
-2.95997e-07
-1.11972e-07
-2.75239e-07
-1.15526e-07
-2.53798e-07
-1.18144e-07
-2.31843e-07
-1.1977e-07
-2.09555e-07
-1.20366e-07
-1.87122e-07
-1.19911e-07
-1.64738e-07
-1.184e-07
-1.42598e-07
-1.15846e-07
-1.20895e-07
-1.1228e-07
-9.98182e-08
-1.07751e-07
-7.9547e-08
-1.02324e-07
-6.02492e-08
-9.60783e-08
-4.20778e-08
-8.91073e-08
-2.51685e-08
-8.15141e-08
-9.63759e-09
-7.34097e-08
4.41973e-09
-6.49104e-08
1.69303e-08
-5.61345e-08
2.78435e-08
-4.71998e-08
3.71312e-08
-3.82212e-08
4.47871e-08
-2.93088e-08
5.08261e-08
-2.05662e-08
5.52826e-08
-1.20893e-08
5.82096e-08
-3.96676e-09
5.96771e-08
3.72018e-09
5.97703e-08
1.08962e-08
5.85889e-08
1.74898e-08
5.62461e-08
2.34314e-08
5.28681e-08
2.86492e-08
4.85937e-08
3.30668e-08
4.35755e-08
3.65986e-08
3.79807e-08
3.91469e-08
3.1993e-08
4.05982e-08
2.58155e-08
4.08212e-08
1.96745e-08
3.96653e-08
1.38255e-08
3.69608e-08
8.56059e-09
3.25208e-08
4.21954e-09
2.61443e-08
1.20434e-09
1.76196e-08
6.7312e-09
-1.33183e-09
4.80583e-09
-4.99041e-09
1.50207e-08
-1.06629e-08
2.5117e-08
-1.80616e-08
3.4648e-08
-2.69255e-08
4.33427e-08
-3.70206e-08
5.10512e-08
-4.814e-08
5.77195e-08
-6.01031e-08
6.33654e-08
-7.27541e-08
6.80554e-08
-8.59601e-08
7.18859e-08
-9.96094e-08
7.49679e-08
-1.13609e-07
7.74158e-08
-1.27881e-07
7.93386e-08
-1.42362e-07
8.08345e-08
-1.56998e-07
8.19876e-08
-1.71745e-07
8.28665e-08
-1.86564e-07
8.3524e-08
-2.01422e-07
8.39983e-08
-2.16287e-07
8.43148e-08
-2.3113e-07
8.44875e-08
-2.45923e-07
8.45217e-08
-2.60637e-07
8.4416e-08
-2.75246e-07
8.41638e-08
-2.89721e-07
8.37552e-08
-3.04034e-07
8.31782e-08
-3.18158e-07
8.24196e-08
-3.32064e-07
8.14658e-08
-3.45726e-07
8.03028e-08
-3.59114e-07
7.89166e-08
-3.72202e-07
7.72929e-08
-3.8496e-07
7.54169e-08
-3.97358e-07
7.32731e-08
-4.09366e-07
7.08449e-08
-4.20951e-07
6.81146e-08
-4.32075e-07
6.50632e-08
-4.427e-07
6.16704e-08
-4.52782e-07
5.79154e-08
-4.62272e-07
5.37765e-08
-4.71118e-07
4.92326e-08
-4.7926e-07
4.42638e-08
-4.86635e-07
3.88523e-08
-4.93176e-07
3.29835e-08
-4.98808e-07
2.66477e-08
-5.03456e-07
1.98408e-08
-5.07039e-07
1.25656e-08
-5.09479e-07
4.83348e-09
-5.10693e-07
-3.3353e-09
-5.10602e-07
-1.19111e-08
-5.09132e-07
-2.0852e-08
-5.0621e-07
-3.0106e-08
-5.01774e-07
-3.96095e-08
-4.95769e-07
-4.92879e-08
-4.88154e-07
-5.90559e-08
-4.78899e-07
-6.88182e-08
-4.67991e-07
-7.84709e-08
-4.55433e-07
-8.79031e-08
-4.41248e-07
-9.69981e-08
-4.25477e-07
-1.05636e-07
-4.08183e-07
-1.13696e-07
-3.89452e-07
-1.21059e-07
-3.6939e-07
-1.27609e-07
-3.48123e-07
-1.33239e-07
-3.25799e-07
-1.3785e-07
-3.02586e-07
-1.41357e-07
-2.78666e-07
-1.4369e-07
-2.54236e-07
-1.44796e-07
-2.29507e-07
-1.44641e-07
-2.04694e-07
-1.43213e-07
-1.8002e-07
-1.40521e-07
-1.55704e-07
-1.36596e-07
-1.31966e-07
-1.3149e-07
-1.09013e-07
-1.25277e-07
-8.70426e-08
-1.18048e-07
-6.62371e-08
-1.09913e-07
-4.67587e-08
-1.00992e-07
-2.87483e-08
-9.14201e-08
-1.23232e-08
-8.13355e-08
2.42458e-09
-7.08823e-08
1.54292e-08
-6.02043e-08
2.66504e-08
-4.94424e-08
3.60738e-08
-3.87322e-08
4.37093e-08
-2.82017e-08
4.95901e-08
-1.79701e-08
5.37704e-08
-8.14709e-09
5.63242e-08
1.16637e-09
5.73431e-08
9.87726e-09
5.69349e-08
1.78981e-08
5.5222e-08
2.51442e-08
5.23412e-08
3.15301e-08
4.84425e-08
3.69654e-08
4.36906e-08
4.13506e-08
3.82648e-08
4.45726e-08
3.23622e-08
4.65008e-08
2.62001e-08
4.69834e-08
2.00203e-08
4.58451e-08
1.40957e-08
4.28854e-08
8.73778e-09
3.78787e-08
4.30743e-09
3.05747e-08
1.22754e-09
2.06995e-08
7.95874e-09
-1.51979e-09
6.32561e-09
-5.66547e-09
1.91664e-08
-1.20557e-08
3.15072e-08
-2.03446e-08
4.29368e-08
-3.02233e-08
5.32215e-08
-4.14204e-08
6.22483e-08
-5.37004e-08
6.99995e-08
-6.68616e-08
7.65266e-08
-8.07332e-08
8.1927e-08
-9.51719e-08
8.63246e-08
-1.10059e-07
8.98549e-08
-1.25296e-07
9.26531e-08
-1.40803e-07
9.48455e-08
-1.56513e-07
9.65447e-08
-1.72372e-07
9.7846e-08
-1.88332e-07
9.88265e-08
-2.04353e-07
9.95455e-08
-2.20401e-07
1.00046e-07
-2.36441e-07
1.00355e-07
-2.52445e-07
1.00491e-07
-2.68381e-07
1.00459e-07
-2.84223e-07
1.00258e-07
-2.99943e-07
9.98834e-08
-3.15513e-07
9.93256e-08
-3.30909e-07
9.85735e-08
-3.46104e-07
9.76149e-08
-3.61075e-07
9.64371e-08
-3.758e-07
9.50272e-08
-3.90255e-07
9.33718e-08
-4.04419e-07
9.14572e-08
-4.1827e-07
8.92683e-08
-4.31786e-07
8.6789e-08
-4.44942e-07
8.40009e-08
-4.57711e-07
8.08837e-08
-4.70063e-07
7.74148e-08
-4.81962e-07
7.35695e-08
-4.93368e-07
6.93212e-08
-5.04234e-07
6.46423e-08
-5.14506e-07
5.95048e-08
-5.24123e-07
5.38813e-08
-5.33018e-07
4.77469e-08
-5.41114e-07
4.10798e-08
-5.4833e-07
3.38635e-08
-5.54577e-07
2.60878e-08
-5.59762e-07
1.77508e-08
-5.63789e-07
8.85995e-09
-5.66559e-07
-5.65086e-10
-5.67973e-07
-1.04976e-08
-5.67933e-07
-2.08913e-08
-5.66349e-07
-3.16907e-08
-5.63132e-07
-4.28259e-08
-5.58207e-07
-5.42129e-08
-5.51509e-07
-6.57548e-08
-5.42984e-07
-7.73423e-08
-5.326e-07
-8.88549e-08
-5.20341e-07
-1.00163e-07
-5.0621e-07
-1.11129e-07
-4.90237e-07
-1.21609e-07
-4.72472e-07
-1.31461e-07
-4.52994e-07
-1.40537e-07
-4.31903e-07
-1.48699e-07
-4.09329e-07
-1.55812e-07
-3.85425e-07
-1.61754e-07
-3.60366e-07
-1.66416e-07
-3.34351e-07
-1.69705e-07
-3.07597e-07
-1.7155e-07
-2.80336e-07
-1.71902e-07
-2.52812e-07
-1.70737e-07
-2.25277e-07
-1.68056e-07
-1.97986e-07
-1.63887e-07
-1.7119e-07
-1.58285e-07
-1.45137e-07
-1.51331e-07
-1.20058e-07
-1.43127e-07
-9.61704e-08
-1.338e-07
-7.3671e-08
-1.23492e-07
-5.27316e-08
-1.12359e-07
-3.34973e-08
-1.0057e-07
-1.60843e-08
-8.82954e-08
-5.78402e-10
-7.57102e-08
1.29649e-08
-6.29857e-08
2.45201e-08
-5.02874e-08
3.40904e-08
-3.77721e-08
4.17066e-08
-2.55862e-08
4.7424e-08
-1.38646e-08
5.13213e-08
-2.73088e-09
5.34972e-08
7.70137e-09
5.40689e-08
1.73264e-08
5.31701e-08
2.60429e-08
5.09499e-08
3.37503e-08
4.75718e-08
4.03436e-08
4.32139e-08
4.57084e-08
3.80704e-08
4.97161e-08
3.23532e-08
5.22181e-08
2.62951e-08
5.30415e-08
2.01548e-08
5.19853e-08
1.4223e-08
4.88173e-08
8.82981e-09
4.32718e-08
4.35531e-09
3.50491e-08
1.2403e-09
2.38146e-08
9.19904e-09
-1.70302e-09
8.02863e-09
-6.32385e-09
2.37872e-08
-1.34147e-08
3.85981e-08
-2.25729e-08
5.2095e-08
-3.3443e-08
6.40915e-08
-4.57163e-08
7.45217e-08
-5.9129e-08
8.34122e-08
-7.34582e-08
9.08558e-08
-8.85178e-08
9.69866e-08
-1.04154e-07
1.01961e-07
-1.20241e-07
1.05942e-07
-1.36676e-07
1.09088e-07
-1.53375e-07
1.11545e-07
-1.7027e-07
1.13439e-07
-1.87304e-07
1.1488e-07
-2.04429e-07
1.15951e-07
-2.21603e-07
1.1672e-07
-2.38792e-07
1.17234e-07
-2.5596e-07
1.17524e-07
-2.73078e-07
1.17609e-07
-2.90117e-07
1.17497e-07
-3.07049e-07
1.1719e-07
-3.23849e-07
1.16683e-07
-3.40493e-07
1.15969e-07
-3.56958e-07
1.15039e-07
-3.73227e-07
1.13883e-07
-3.89281e-07
1.12491e-07
-4.05104e-07
1.10851e-07
-4.20683e-07
1.08951e-07
-4.36006e-07
1.0678e-07
-4.51059e-07
1.04322e-07
-4.6583e-07
1.0156e-07
-4.80303e-07
9.84736e-08
-4.94459e-07
9.50396e-08
-5.08274e-07
9.12305e-08
-5.2172e-07
8.70152e-08
-5.34759e-07
8.23599e-08
-5.47345e-07
7.72284e-08
-5.59423e-07
7.15835e-08
-5.7093e-07
6.53879e-08
-5.81789e-07
5.86063e-08
-5.91917e-07
5.12071e-08
-6.01217e-07
4.31639e-08
-6.09587e-07
3.44578e-08
-6.16915e-07
2.50791e-08
-6.23084e-07
1.50293e-08
-6.27973e-07
4.32307e-09
-6.31457e-07
-7.01285e-09
-6.33413e-07
-1.89352e-08
-6.33721e-07
-3.13834e-08
-6.32264e-07
-4.42824e-08
-6.28938e-07
-5.75392e-08
-6.23648e-07
-7.10452e-08
-6.16314e-07
-8.46762e-08
-6.06875e-07
-9.82938e-08
-5.9529e-07
-1.11747e-07
-5.81543e-07
-1.24876e-07
-5.65642e-07
-1.37511e-07
-5.47624e-07
-1.49479e-07
-5.27554e-07
-1.60607e-07
-5.05528e-07
-1.70725e-07
-4.81674e-07
-1.79666e-07
-4.56149e-07
-1.8728e-07
-4.29139e-07
-1.93426e-07
-4.00857e-07
-1.97987e-07
-3.71541e-07
-2.00865e-07
-3.41451e-07
-2.01992e-07
-3.10862e-07
-2.01326e-07
-2.80062e-07
-1.98856e-07
-2.49344e-07
-1.94605e-07
-2.19003e-07
-1.88626e-07
-1.89328e-07
-1.81006e-07
-1.60597e-07
-1.71859e-07
-1.3307e-07
-1.61327e-07
-1.06985e-07
-1.49576e-07
-8.25545e-08
-1.3679e-07
-5.9958e-08
-1.23166e-07
-3.9343e-08
-1.0891e-07
-2.08212e-08
-9.4232e-08
-4.46854e-09
-7.93383e-08
9.6746e-09
-6.44305e-08
2.16023e-08
-4.96998e-08
3.13409e-08