/*--------------------------------*- C++ -*----------------------------------*\
  =========                 |
  \\      /  F ield         | OpenFOAM: The Open Source CFD Toolbox
   \\    /   O peration     | Website:  https://openfoam.org
    \\  /    A nd           | Version:  9
     \\/     M anipulation  |
\*---------------------------------------------------------------------------*/
FoamFile
{
    format      ascii;
    class       volVectorField;
    location    "1";
    object      U;
}
// * * * * * * * * * * * * * * * * * * * * * * * * * * * * * * * * * * * * * //

dimensions      [0 1 -1 0 0 0 0];

internalField   nonuniform List<vector> 
10000
(
(7.20403e-06 -7.15438e-06 0)
(2.30541e-05 -9.35467e-06 0)
(3.43897e-05 -5.67327e-06 0)
(3.10326e-05 -6.71908e-08 0)
(1.04593e-05 5.46892e-06 0)
(-2.62731e-05 1.03195e-05 0)
(-7.71204e-05 1.42933e-05 0)
(-0.000139621 1.73703e-05 0)
(-0.000211413 1.96589e-05 0)
(-0.000290374 2.13041e-05 0)
(-0.000374719 2.24506e-05 0)
(-0.000463031 2.32295e-05 0)
(-0.000554228 2.3753e-05 0)
(-0.00064753 2.4113e-05 0)
(-0.000742406 2.43811e-05 0)
(-0.000838525 2.46106e-05 0)
(-0.000935702 2.48388e-05 0)
(-0.00103386 2.50891e-05 0)
(-0.00113299 2.53741e-05 0)
(-0.00123312 2.56972e-05 0)
(-0.00133427 2.60554e-05 0)
(-0.00143648 2.64407e-05 0)
(-0.00153973 2.68418e-05 0)
(-0.00164398 2.7245e-05 0)
(-0.00174916 2.76357e-05 0)
(-0.00185513 2.79982e-05 0)
(-0.00196172 2.83167e-05 0)
(-0.00206868 2.85754e-05 0)
(-0.00217574 2.87584e-05 0)
(-0.00228257 2.885e-05 0)
(-0.00238877 2.88343e-05 0)
(-0.00249391 2.86951e-05 0)
(-0.0025975 2.84161e-05 0)
(-0.00269899 2.79805e-05 0)
(-0.00279779 2.73712e-05 0)
(-0.00289326 2.65707e-05 0)
(-0.0029847 2.55614e-05 0)
(-0.00307134 2.43257e-05 0)
(-0.0031524 2.28465e-05 0)
(-0.00322702 2.11074e-05 0)
(-0.00329431 1.90937e-05 0)
(-0.00335335 1.67926e-05 0)
(-0.00340318 1.41943e-05 0)
(-0.00344284 1.12929e-05 0)
(-0.00347135 8.08703e-06 0)
(-0.00348778 4.58075e-06 0)
(-0.00349118 7.84006e-07 0)
(-0.00348071 -3.28756e-06 0)
(-0.00345557 -7.60845e-06 0)
(-0.00341507 -1.21462e-05 0)
(-0.00335865 -1.68603e-05 0)
(-0.0032859 -2.17021e-05 0)
(-0.00319657 -2.6615e-05 0)
(-0.00309063 -3.15353e-05 0)
(-0.00296824 -3.63928e-05 0)
(-0.00282981 -4.11126e-05 0)
(-0.00267597 -4.56162e-05 0)
(-0.00250763 -4.98235e-05 0)
(-0.00232591 -5.36552e-05 0)
(-0.00213221 -5.70347e-05 0)
(-0.00192813 -5.98905e-05 0)
(-0.00171549 -6.21589e-05 0)
(-0.0014963 -6.37859e-05 0)
(-0.0012727 -6.47292e-05 0)
(-0.00104697 -6.49601e-05 0)
(-0.000821426 -6.44645e-05 0)
(-0.00059843 -6.3244e-05 0)
(-0.00038031 -6.13158e-05 0)
(-0.000169325 -5.87128e-05 0)
(3.23816e-05 -5.54831e-05 0)
(0.000222825 -5.16849e-05 0)
(0.000400217 -4.73889e-05 0)
(0.000562997 -4.26752e-05 0)
(0.000709855 -3.763e-05 0)
(0.000839751 -3.2341e-05 0)
(0.000951916 -2.6897e-05 0)
(0.00104586 -2.13847e-05 0)
(0.00112136 -1.58861e-05 0)
(0.00117846 -1.04757e-05 0)
(0.00121742 -5.22015e-06 0)
(0.00123871 -1.76545e-07 0)
(0.001243 4.60824e-06 0)
(0.00123112 9.09975e-06 0)
(0.00120399 1.32698e-05 0)
(0.00116268 1.70991e-05 0)
(0.00110831 2.05752e-05 0)
(0.00104209 2.36883e-05 0)
(0.000965298 2.6428e-05 0)
(0.000879291 2.87781e-05 0)
(0.000785533 3.07099e-05 0)
(0.000685648 3.21736e-05 0)
(0.000581485 3.30861e-05 0)
(0.000475225 3.3314e-05 0)
(0.00036952 3.26505e-05 0)
(0.000267681 3.07842e-05 0)
(0.000173913 2.7271e-05 0)
(9.34678e-05 2.15583e-05 0)
(3.24103e-05 1.31419e-05 0)
(-2.82048e-06 2.26833e-06 0)
(-6.5808e-06 -6.56296e-06 0)
(9.62671e-06 -2.32041e-05 0)
(2.42116e-05 -2.38523e-05 0)
(1.92022e-05 -2.32278e-06 0)
(-2.05287e-05 2.74438e-05 0)
(-9.97327e-05 5.8362e-05 0)
(-0.000217112 8.68175e-05 0)
(-0.000369205 0.000111308 0)
(-0.000551128 0.000131411 0)
(-0.000757712 0.000147342 0)
(-0.000984074 0.000159614 0)
(-0.00122591 0.000168853 0)
(-0.00147964 0.000175697 0)
(-0.00174239 0.000180737 0)
(-0.00201198 0.000184485 0)
(-0.0022868 0.000187366 0)
(-0.00256573 0.00018971 0)
(-0.00284806 0.000191762 0)
(-0.00313331 0.00019369 0)
(-0.00342123 0.000195593 0)
(-0.00371164 0.000197518 0)
(-0.00400444 0.000199465 0)
(-0.00429948 0.000201403 0)
(-0.00459659 0.000203275 0)
(-0.00489551 0.000205008 0)
(-0.00519587 0.000206515 0)
(-0.0054972 0.000207705 0)
(-0.00579891 0.000208482 0)
(-0.00610026 0.000208747 0)
(-0.00640041 0.000208403 0)
(-0.00669838 0.000207351 0)
(-0.00699304 0.000205492 0)
(-0.00728318 0.000202728 0)
(-0.00756741 0.000198961 0)
(-0.00784426 0.00019409 0)
(-0.00811209 0.000188017 0)
(-0.00836918 0.000180643 0)
(-0.00861366 0.000171868 0)
(-0.00884354 0.000161599 0)
(-0.00905674 0.000149746 0)
(-0.00925106 0.000136226 0)
(-0.00942422 0.00012097 0)
(-0.00957389 0.000103922 0)
(-0.00969767 8.50469e-05 0)
(-0.00979317 6.4333e-05 0)
(-0.00985799 4.17987e-05 0)
(-0.00988984 1.74936e-05 0)
(-0.00988649 -8.5003e-06 0)
(-0.0098459 -3.60475e-05 0)
(-0.00976624 -6.49767e-05 0)
(-0.00964593 -9.50712e-05 0)
(-0.00948375 -0.000126067 0)
(-0.00927883 -0.000157656 0)
(-0.00903078 -0.000189487 0)
(-0.00873966 -0.000221167 0)
(-0.00840609 -0.000252277 0)
(-0.00803123 -0.000282366 0)
(-0.00761685 -0.000310971 0)
(-0.00716531 -0.000337623 0)
(-0.00667957 -0.000361859 0)
(-0.00616317 -0.000383235 0)
(-0.0056202 -0.000401337 0)
(-0.00505525 -0.000415797 0)
(-0.00447334 -0.000426303 0)
(-0.00387984 -0.000432608 0)
(-0.00328041 -0.000434542 0)
(-0.00268087 -0.000432018 0)
(-0.00208711 -0.000425034 0)
(-0.00150496 -0.00041368 0)
(-0.000940114 -0.000398128 0)
(-0.000397992 -0.00037864 0)
(0.000116339 -0.000355544 0)
(0.000598265 -0.000329234 0)
(0.0010437 -0.000300159 0)
(0.00144916 -0.000268815 0)
(0.00181177 -0.000235709 0)
(0.00212935 -0.000201363 0)
(0.00240037 -0.000166294 0)
(0.00262396 -0.000130998 0)
(0.0027999 -9.59445e-05 0)
(0.00292857 -6.15583e-05 0)
(0.00301089 -2.82199e-05 0)
(0.00304828 3.74169e-06 0)
(0.0030426 3.40506e-05 0)
(0.00299608 6.24746e-05 0)
(0.00291129 8.88227e-05 0)
(0.00279108 0.000112933 0)
(0.00263856 0.000134654 0)
(0.00245712 0.000153826 0)
(0.00225042 0.000170254 0)
(0.0020225 0.000183671 0)
(0.00177785 0.000193703 0)
(0.00152156 0.000199816 0)
(0.00125952 0.000201264 0)
(0.000998649 0.000197026 0)
(0.000747144 0.000185767 0)
(0.000514681 0.000165861 0)
(0.000312287 0.000135671 0)
(0.000151381 9.42776e-05 0)
(4.3542e-05 4.36084e-05 0)
(2.18895e-06 -2.86281e-06 0)
(6.09759e-06 -3.50968e-05 0)
(2.40056e-06 -1.88667e-05 0)
(-4.12112e-05 3.99058e-05 0)
(-0.000136888 0.00011579 0)
(-0.000288887 0.000194919 0)
(-0.000495743 0.000269051 0)
(-0.000752807 0.000334205 0)
(-0.0010537 0.000388978 0)
(-0.0013915 0.000433484 0)
(-0.00175952 0.000468674 0)
(-0.0021517 0.000495902 0)
(-0.00256286 0.000516643 0)
(-0.00298872 0.00053233 0)
(-0.00342595 0.000544246 0)
(-0.00387198 0.000553481 0)
(-0.00432494 0.000560906 0)
(-0.0047835 0.000567181 0)
(-0.00524672 0.000572772 0)
(-0.00571396 0.000577969 0)
(-0.00618473 0.000582917 0)
(-0.00665862 0.000587645 0)
(-0.00713522 0.000592088 0)
(-0.00761405 0.000596112 0)
(-0.00809454 0.000599533 0)
(-0.00857596 0.000602132 0)
(-0.00905744 0.000603671 0)
(-0.00953794 0.000603898 0)
(-0.0100162 0.000602555 0)
(-0.0104909 0.000599384 0)
(-0.0109603 0.000594124 0)
(-0.0114227 0.000586517 0)
(-0.0118763 0.000576305 0)
(-0.0123187 0.000563232 0)
(-0.0127478 0.000547042 0)
(-0.013161 0.000527481 0)
(-0.0135558 0.000504299 0)
(-0.0139293 0.000477254 0)
(-0.0142785 0.000446111 0)
(-0.0146004 0.000410656 0)
(-0.0148917 0.000370697 0)
(-0.0151491 0.000326074 0)
(-0.0153691 0.000276673 0)
(-0.0155483 0.000222433 0)
(-0.0156832 0.000163356 0)
(-0.0157705 9.95248e-05 0)
(-0.0158069 3.11066e-05 0)
(-0.0157893 -4.16405e-05 0)
(-0.0157147 -0.000118332 0)
(-0.0155807 -0.000198484 0)
(-0.0153852 -0.0002815 0)
(-0.0151266 -0.00036666 0)
(-0.0148037 -0.000453134 0)
(-0.0144162 -0.000539986 0)
(-0.0139644 -0.000626184 0)
(-0.0134492 -0.000710618 0)
(-0.0128726 -0.000792118 0)
(-0.0122373 -0.000869479 0)
(-0.0115468 -0.000941485 0)
(-0.0108054 -0.00100694 0)
(-0.0100185 -0.00106471 0)
(-0.00919189 -0.00111371 0)
(-0.00833237 -0.00115302 0)
(-0.0074472 -0.00118181 0)
(-0.00654421 -0.00119945 0)
(-0.0056316 -0.0012055 0)
(-0.00471781 -0.00119971 0)
(-0.00381143 -0.00118207 0)
(-0.00292098 -0.00115277 0)
(-0.00205478 -0.00111225 0)
(-0.00122084 -0.00106115 0)
(-0.000426649 -0.00100028 0)
(0.000320886 -0.000930643 0)
(0.00101558 -0.000853367 0)
(0.00165209 -0.000769719 0)
(0.00222596 -0.000681007 0)
(0.00273363 -0.00058858 0)
(0.00317254 -0.00049379 0)
(0.00354106 -0.000397953 0)
(0.00383849 -0.00030232 0)
(0.00406505 -0.000208051 0)
(0.00422175 -0.000116198 0)
(0.00431039 -2.76952e-05 0)
(0.00433345 5.66431e-05 0)
(0.00429402 0.000136114 0)
(0.00419574 0.00021011 0)
(0.00404276 0.000278087 0)
(0.00383969 0.000339526 0)
(0.0035916 0.000393883 0)
(0.00330408 0.00044052 0)
(0.00298327 0.000478635 0)
(0.00263604 0.000507171 0)
(0.00227013 0.000524724 0)
(0.00189432 0.000529452 0)
(0.00151871 0.000519009 0)
(0.00115487 0.00049056 0)
(0.000816003 0.000441003 0)
(0.000516512 0.000367666 0)
(0.000270726 0.000269754 0)
(9.45622e-05 0.00015149 0)
(1.30667e-05 3.22671e-05 0)
(3.01895e-07 -3.17993e-05 0)
(-3.00891e-05 2.29767e-05 0)
(-0.000125363 0.000137087 0)
(-0.000290151 0.000275719 0)
(-0.000525932 0.000418279 0)
(-0.00083009 0.000552261 0)
(-0.00119666 0.000671085 0)
(-0.00161797 0.000772161 0)
(-0.00208582 0.000855401 0)
(-0.00259222 0.000922184 0)
(-0.00312987 0.000974659 0)
(-0.00369242 0.00101527 0)
(-0.00427456 0.00104644 0)
(-0.004872 0.00107039 0)
(-0.0054814 0.00108904 0)
(-0.00610019 0.00110394 0)
(-0.00672646 0.00111629 0)
(-0.00735879 0.00112693 0)
(-0.00799609 0.00113641 0)
(-0.00863749 0.00114502 0)
(-0.0092822 0.00115283 0)
(-0.00992946 0.00115974 0)
(-0.0105784 0.00116553 0)
(-0.0112281 0.00116987 0)
(-0.0118774 0.0011724 0)
(-0.012525 0.00117268 0)
(-0.0131694 0.00117026 0)
(-0.0138089 0.00116469 0)
(-0.0144415 0.0011555 0)
(-0.0150651 0.00114223 0)
(-0.0156775 0.00112443 0)
(-0.0162759 0.00110164 0)
(-0.0168576 0.0010734 0)
(-0.0174197 0.00103926 0)
(-0.0179591 0.000998795 0)
(-0.0184723 0.000951559 0)
(-0.0189558 0.000897135 0)
(-0.019406 0.000835129 0)
(-0.0198188 0.000765176 0)
(-0.0201904 0.000686962 0)
(-0.0205165 0.000600232 0)
(-0.020793 0.000504815 0)
(-0.0210157 0.000400637 0)
(-0.0211802 0.000287745 0)
(-0.0212825 0.000166326 0)
(-0.0213186 3.67256e-05 0)
(-0.0212847 -0.000100539 0)
(-0.0211775 -0.000244752 0)
(-0.0209939 -0.000395003 0)
(-0.0207316 -0.000550176 0)
(-0.0203885 -0.000708951 0)
(-0.0199635 -0.000869811 0)
(-0.0194562 -0.00103105 0)
(-0.0188672 -0.00119081 0)
(-0.0181978 -0.00134709 0)
(-0.0174504 -0.00149778 0)
(-0.0166284 -0.00164073 0)
(-0.0157363 -0.00177378 0)
(-0.0147796 -0.00189478 0)
(-0.0137647 -0.00200169 0)
(-0.012699 -0.00209262 0)
(-0.0115908 -0.00216588 0)
(-0.0104491 -0.00222002 0)
(-0.00928355 -0.00225388 0)
(-0.00810437 -0.00226665 0)
(-0.00692203 -0.00225787 0)
(-0.00574718 -0.00222748 0)
(-0.00459047 -0.0021758 0)
(-0.00346235 -0.00210354 0)
(-0.0023729 -0.00201179 0)
(-0.00133163 -0.00190197 0)
(-0.000347367 -0.00177583 0)
(0.000571901 -0.00163536 0)
(0.00141917 -0.00148275 0)
(0.00218852 -0.00132036 0)
(0.00287513 -0.0011506 0)
(0.00347536 -0.000975905 0)
(0.00398675 -0.000798666 0)
(0.00440801 -0.000621178 0)
(0.00473896 -0.000445596 0)
(0.00498052 -0.000273896 0)
(0.00513457 -0.000107862 0)
(0.00520393 5.09208e-05 0)
(0.00519225 0.000201055 0)
(0.00510393 0.000341302 0)
(0.00494408 0.000470531 0)
(0.00471846 0.000587655 0)
(0.0044335 0.000691542 0)
(0.00409631 0.000780913 0)
(0.00371477 0.000854221 0)
(0.00329763 0.000909519 0)
(0.00285468 0.00094433 0)
(0.00239691 0.000955535 0)
(0.00193672 0.000939326 0)
(0.00148807 0.000891306 0)
(0.00106657 0.000806886 0)
(0.000689047 0.00068227 0)
(0.000372331 0.000516257 0)
(0.000137248 0.000313549 0)
(2.1634e-05 9.3586e-05 0)
(-6.10861e-06 -9.13804e-06 0)
(-6.72768e-05 0.000110443 0)
(-0.000221847 0.000299502 0)
(-0.000464057 0.000516504 0)
(-0.000791243 0.000735645 0)
(-0.00119869 0.000940854 0)
(-0.00167869 0.00112337 0)
(-0.00222217 0.0012796 0)
(-0.00281976 0.00140932 0)
(-0.00346243 0.00151439 0)
(-0.00414194 0.00159783 0)
(-0.00485106 0.0016631 0)
(-0.00558369 0.00171371 0)
(-0.00633482 0.0017529 0)
(-0.00710046 0.0017835 0)
(-0.00787746 0.00180782 0)
(-0.00866339 0.00182765 0)
(-0.00945634 0.00184428 0)
(-0.0102548 0.00185857 0)
(-0.0110574 0.00187094 0)
(-0.0118631 0.00188155 0)
(-0.0126705 0.00189025 0)
(-0.0134786 0.00189673 0)
(-0.0142859 0.00190051 0)
(-0.0150908 0.00190105 0)
(-0.0158916 0.00189771 0)
(-0.0166865 0.00188982 0)
(-0.0174731 0.00187672 0)
(-0.0182492 0.00185771 0)
(-0.0190121 0.00183212 0)
(-0.019759 0.00179926 0)
(-0.0204868 0.00175848 0)
(-0.0211923 0.0017091 0)
(-0.021872 0.00165046 0)
(-0.0225223 0.00158193 0)
(-0.0231392 0.00150287 0)
(-0.0237187 0.00141268 0)
(-0.0242566 0.00131078 0)
(-0.0247483 0.00119665 0)
(-0.0251893 0.00106985 0)
(-0.0255749 0.000930034 0)
(-0.0259004 0.000776968 0)
(-0.0261608 0.000610583 0)
(-0.0263514 0.000430991 0)
(-0.0264675 0.000238516 0)
(-0.0265047 3.37223e-05 0)
(-0.0264586 -0.000182559 0)
(-0.0263254 -0.000409211 0)
(-0.0261018 -0.000644819 0)
(-0.0257849 -0.000887658 0)
(-0.0253727 -0.0011357 0)
(-0.0248637 -0.00138663 0)
(-0.0242578 -0.00163785 0)
(-0.0235552 -0.00188652 0)
(-0.0227578 -0.00212963 0)
(-0.0218682 -0.00236399 0)
(-0.0208903 -0.00258633 0)
(-0.0198292 -0.00279339 0)
(-0.018691 -0.00298195 0)
(-0.0174833 -0.00314891 0)
(-0.0162144 -0.00329141 0)
(-0.0148937 -0.00340687 0)
(-0.0135317 -0.00349309 0)
(-0.0121395 -0.00354829 0)
(-0.0107286 -0.00357119 0)
(-0.0093114 -0.00356106 0)
(-0.00790012 -0.00351772 0)
(-0.00650721 -0.00344159 0)
(-0.00514491 -0.00333366 0)
(-0.00382511 -0.0031955 0)
(-0.0025591 -0.0030292 0)
(-0.00135742 -0.0028373 0)
(-0.000229708 -0.00262278 0)
(0.000815485 -0.0023889 0)
(0.00177082 -0.00213918 0)
(0.00263021 -0.00187729 0)
(0.00338893 -0.00160694 0)
(0.00404362 -0.00133178 0)
(0.00459227 -0.00105537 0)
(0.00503422 -0.00078107 0)
(0.00537009 -0.000511998 0)
(0.00560171 -0.000251003 0)
(0.00573201 -6.48892e-07 0)
(0.00576499 0.000236767 0)
(0.00570558 0.000459177 0)
(0.00555963 0.000664675 0)
(0.0053338 0.000851421 0)
(0.00503558 0.00101752 0)
(0.00467333 0.0011609 0)
(0.00425629 0.00127911 0)
(0.00379472 0.00136917 0)
(0.00329999 0.00142743 0)
(0.00278481 0.00144943 0)
(0.0022633 0.00142985 0)
(0.0017512 0.00136271 0)
(0.00126605 0.00124183 0)
(0.000826787 0.00106191 0)
(0.00045282 0.000820266 0)
(0.000169976 0.000519734 0)
(2.76879e-05 0.000175239 0)
(-1.25662e-05 3.39682e-05 0)
(-0.000106109 0.000247361 0)
(-0.000323853 0.000532892 0)
(-0.000648331 0.000844579 0)
(-0.00107173 0.00115309 0)
(-0.0015865 0.00143986 0)
(-0.00218274 0.00169466 0)
(-0.00284973 0.00191329 0)
(-0.00357686 0.00209569 0)
(-0.00435415 0.00224436 0)
(-0.00517255 0.00236325 0)
(-0.00602414 0.00245695 0)
(-0.0069022 0.00253011 0)
(-0.00780116 0.00258706 0)
(-0.00871652 0.00263156 0)
(-0.00964464 0.00266675 0)
(-0.0105826 0.00269504 0)
(-0.0115281 0.00271819 0)
(-0.0124792 0.00273735 0)
(-0.0134342 0.00275316 0)
(-0.0143913 0.0027658 0)
(-0.0153492 0.00277512 0)
(-0.016306 0.0027807 0)
(-0.0172601 0.00278193 0)
(-0.0182094 0.00277805 0)
(-0.0191519 0.00276823 0)
(-0.0200852 0.00275161 0)
(-0.0210067 0.00272728 0)
(-0.0219137 0.00269433 0)
(-0.0228033 0.00265187 0)
(-0.0236721 0.002599 0)
(-0.0245169 0.00253484 0)
(-0.0253341 0.00245851 0)
(-0.0261198 0.00236915 0)
(-0.02687 0.00226591 0)
(-0.0275806 0.00214795 0)
(-0.0282471 0.00201446 0)
(-0.0288648 0.00186468 0)
(-0.0294291 0.00169794 0)
(-0.0299348 0.00151365 0)
(-0.030377 0.00131134 0)
(-0.0307502 0.00109074 0)
(-0.0310494 0.000851775 0)
(-0.0312693 0.000594618 0)
(-0.0314047 0.000319742 0)
(-0.0314506 2.7952e-05 0)
(-0.0314024 -0.000279572 0)
(-0.0312558 -0.000601285 0)
(-0.0310069 -0.000935216 0)
(-0.0306526 -0.00127897 0)
(-0.0301905 -0.00162976 0)
(-0.029619 -0.00198435 0)
(-0.0289374 -0.0023392 0)
(-0.0281462 -0.00269039 0)
(-0.027247 -0.00303375 0)
(-0.0262427 -0.00336491 0)
(-0.0251372 -0.00367939 0)
(-0.023936 -0.00397266 0)
(-0.0226458 -0.00424029 0)
(-0.0212745 -0.00447801 0)
(-0.0198313 -0.00468185 0)
(-0.0183266 -0.0048482 0)
(-0.0167717 -0.00497398 0)
(-0.0151789 -0.00505668 0)
(-0.0135612 -0.00509443 0)
(-0.0119321 -0.00508613 0)
(-0.0103055 -0.00503143 0)
(-0.00869551 -0.00493077 0)
(-0.00711593 -0.00478541 0)
(-0.00558035 -0.00459738 0)
(-0.00410178 -0.00436943 0)
(-0.00269246 -0.00410499 0)
(-0.00136364 -0.00380805 0)
(-0.000125416 -0.00348308 0)
(0.0010134 -0.00313489 0)
(0.00204541 -0.00276852 0)
(0.00296472 -0.00238913 0)
(0.00376699 -0.00200184 0)
(0.0044494 -0.00161164 0)
(0.00501068 -0.0012233 0)
(0.00545106 -0.00084128 0)
(0.00577215 -0.000469705 0)
(0.00597691 -0.000112317 0)
(0.00606952 0.000227494 0)
(0.00605533 0.000546643 0)
(0.00594071 0.000842274 0)
(0.00573309 0.00111163 0)
(0.00544083 0.00135191 0)
(0.00507329 0.00156009 0)
(0.00464085 0.00173272 0)
(0.00415498 0.0018657 0)
(0.00362835 0.00195412 0)
(0.00307501 0.00199211 0)
(0.0025105 0.00197282 0)
(0.00195205 0.00188855 0)
(0.00141891 0.0017313 0)
(0.000932075 0.00149366 0)
(0.000513575 0.00117039 0)
(0.00019385 0.000760514 0)
(3.17514e-05 0.000271864 0)
(-1.88814e-05 9.77214e-05 0)
(-0.000145162 0.000435515 0)
(-0.000427633 0.000840189 0)
(-0.000836726 0.00126343 0)
(-0.00135889 0.00167399 0)
(-0.00198325 0.00205202 0)
(-0.00269729 0.00238667 0)
(-0.00348836 0.00267376 0)
(-0.0043445 0.00291377 0)
(-0.00525474 0.00311009 0)
(-0.00620927 0.0032678 0)
(-0.00719959 0.00339271 0)
(-0.00821846 0.00349068 0)
(-0.00925987 0.00356716 0)
(-0.0103189 0.0036269 0)
(-0.0113915 0.00367385 0)
(-0.0124744 0.00371107 0)
(-0.0135649 0.00374079 0)
(-0.0146606 0.00376449 0)
(-0.0157594 0.00378297 0)
(-0.0168593 0.00379648 0)
(-0.0179583 0.00380484 0)
(-0.0190544 0.00380755 0)
(-0.0201455 0.00380384 0)
(-0.0212292 0.00379279 0)
(-0.022303 0.00377339 0)
(-0.0233644 0.00374455 0)
(-0.0244104 0.00370518 0)
(-0.025438 0.00365417 0)
(-0.0264441 0.00359043 0)
(-0.0274252 0.00351285 0)
(-0.0283779 0.00342036 0)
(-0.0292983 0.00331189 0)
(-0.0301824 0.00318636 0)
(-0.0310262 0.00304272 0)
(-0.0318253 0.00287991 0)
(-0.032575 0.00269693 0)
(-0.0332706 0.00249281 0)
(-0.0339071 0.00226668 0)
(-0.0344791 0.00201779 0)
(-0.0349814 0.00174554 0)
(-0.0354083 0.00144958 0)
(-0.0357543 0.00112979 0)
(-0.0360136 0.000786401 0)
(-0.0361806 0.000420009 0)
(-0.0362499 3.16461e-05 0)
(-0.0362163 -0.000377169 0)
(-0.036075 -0.000804452 0)
(-0.0358215 -0.00124766 0)
(-0.0354522 -0.00170372 0)
(-0.0349641 -0.00216901 0)
(-0.0343551 -0.00263938 0)
(-0.0336241 -0.00311023 0)
(-0.0327712 -0.0035765 0)
(-0.0317976 -0.0040328 0)
(-0.030706 -0.00447346 0)
(-0.0295002 -0.00489265 0)
(-0.0281857 -0.00528448 0)
(-0.0267694 -0.00564315 0)
(-0.0252594 -0.00596309 0)
(-0.0236654 -0.00623903 0)
(-0.0219984 -0.00646624 0)
(-0.0202706 -0.00664056 0)
(-0.0184953 -0.0067586 0)
(-0.0166865 -0.0068178 0)
(-0.0148591 -0.00681652 0)
(-0.0130285 -0.00675414 0)
(-0.0112103 -0.00663105 0)
(-0.00942006 -0.00644869 0)
(-0.00767305 -0.00620952 0)
(-0.0059841 -0.00591696 0)
(-0.00436723 -0.00557532 0)
(-0.00283543 -0.00518969 0)
(-0.00140052 -0.0047658 0)
(-7.28839e-05 -0.00430988 0)
(0.00113862 -0.00382849 0)
(0.0022268 -0.00332839 0)
(0.00318617 -0.00281633 0)
(0.00401299 -0.00229895 0)
(0.00470529 -0.00178263 0)
(0.00526276 -0.00127338 0)
(0.00568674 -0.000776784 0)
(0.00598009 -0.000297973 0)
(0.00614713 0.000158378 0)
(0.00619348 0.000587993 0)
(0.00612603 0.000986895 0)
(0.00595281 0.00135127 0)
(0.00568296 0.00167726 0)
(0.00532673 0.00196081 0)
(0.00489546 0.00219734 0)
(0.00440168 0.00238158 0)
(0.00385919 0.0025073 0)
(0.0032832 0.00256716 0)
(0.0026905 0.00255267 0)
(0.00209972 0.00245428 0)
(0.00153171 0.00226179 0)
(0.0010095 0.00196515 0)
(0.000557673 0.00155558 0)
(0.000210637 0.001027 0)
(3.43865e-05 0.00037899 0)
(-2.49787e-05 0.000181857 0)
(-0.000183749 0.000675235 0)
(-0.000531157 0.00122242 0)
(-0.00102553 0.00177452 0)
(-0.00164735 0.00229984 0)
(-0.00238207 0.00277846 0)
(-0.00321425 0.00319986 0)
(-0.00412911 0.0035606 0)
(-0.00511318 0.00386218 0)
(-0.00615444 0.00410923 0)
(-0.00724231 0.00430819 0)
(-0.00836772 0.00446621 0)
(-0.00952301 0.00459046 0)
(-0.0107018 0.00468755 0)
(-0.0118988 0.00476325 0)
(-0.0131097 0.00482232 0)
(-0.0143308 0.00486847 0)
(-0.0155591 0.0049044 0)
(-0.0167919 0.00493188 0)
(-0.0180267 0.00495191 0)
(-0.0192612 0.00496479 0)
(-0.0204931 0.00497033 0)
(-0.0217199 0.00496793 0)
(-0.0229392 0.00495672 0)
(-0.0241485 0.00493563 0)
(-0.0253449 0.00490347 0)
(-0.0265257 0.00485902 0)
(-0.0276879 0.00480099 0)
(-0.0288283 0.00472813 0)
(-0.0299436 0.00463917 0)
(-0.0310305 0.00453286 0)
(-0.0320854 0.00440793 0)
(-0.0331046 0.00426313 0)
(-0.0340841 0.0040972 0)
(-0.0350198 0.00390886 0)
(-0.0359075 0.00369685 0)
(-0.0367425 0.00345993 0)
(-0.0375199 0.00319688 0)
(-0.0382347 0.00290662 0)
(-0.0388815 0.00258816 0)
(-0.0394546 0.00224074 0)
(-0.0399482 0.00186384 0)
(-0.0403563 0.00145726 0)
(-0.0406727 0.00102123 0)
(-0.0408913 0.000556401 0)
(-0.041006 6.3991e-05 0)
(-0.0410109 -0.000454206 0)
(-0.0409004 -0.000995781 0)
(-0.0406694 -0.00155765 0)
(-0.0403134 -0.00213604 0)
(-0.0398285 -0.00272652 0)
(-0.0392118 -0.00332399 0)
(-0.0384615 -0.00392275 0)
(-0.0375767 -0.00451654 0)
(-0.0365581 -0.00509866 0)
(-0.0354077 -0.00566204 0)
(-0.034129 -0.00619938 0)
(-0.0327269 -0.0067033 0)
(-0.0312082 -0.00716648 0)
(-0.0295812 -0.00758183 0)
(-0.0278556 -0.00794268 0)
(-0.026043 -0.0082429 0)
(-0.0241561 -0.00847712 0)
(-0.022209 -0.00864084 0)
(-0.0202171 -0.00873061 0)
(-0.0181965 -0.00874413 0)
(-0.016164 -0.0086803 0)
(-0.0141369 -0.00853934 0)
(-0.0121327 -0.00832278 0)
(-0.0101685 -0.00803343 0)
(-0.00826132 -0.00767535 0)
(-0.00642705 -0.00725374 0)
(-0.00468077 -0.00677482 0)
(-0.00303623 -0.00624568 0)
(-0.00150568 -0.00567406 0)
(-9.96818e-05 -0.00506822 0)
(0.00117303 -0.00443667 0)
(0.00230565 -0.00378801 0)
(0.00329334 -0.00313072 0)
(0.00413324 -0.00247301 0)
(0.00482442 -0.00182267 0)
(0.00536785 -0.00118697 0)
(0.00576623 -0.000572636 0)
(0.00602395 1.41741e-05 0)
(0.00614689 0.000567809 0)
(0.0061424 0.00108301 0)
(0.00601911 0.00155476 0)
(0.0057869 0.00197804 0)
(0.00545685 0.00234764 0)
(0.00504125 0.0026578 0)
(0.00455362 0.00290199 0)
(0.0040088 0.00307261 0)
(0.00342313 0.00316079 0)
(0.0028146 0.00315626 0)
(0.0022032 0.00304743 0)
(0.0016114 0.0028216 0)
(0.00106418 0.00246554 0)
(0.000588505 0.00196624 0)
(0.000222057 0.00131183 0)
(3.60477e-05 0.00049324 0)
(-3.08661e-05 0.000285983 0)
(-0.000221586 0.000966104 0)
(-0.000633341 0.00167945 0)
(-0.00121257 0.00237794 0)
(-0.0019337 0.00303076 0)
(-0.00277836 0.00361911 0)
(-0.00372801 0.00413376 0)
(-0.00476553 0.00457276 0)
(-0.00587585 0.00493916 0)
(-0.0070458 0.00523928 0)
(-0.00826402 0.00548114 0)
(-0.00952088 0.00567347 0)
(-0.0108083 0.0058248 0)
(-0.0121196 0.00594299 0)
(-0.0134492 0.00603482 0)
(-0.0147925 0.00610589 0)
(-0.0161456 0.00616055 0)
(-0.0175051 0.00620194 0)
(-0.0188681 0.00623215 0)
(-0.0202318 0.00625232 0)
(-0.0215935 0.00626285 0)
(-0.0229507 0.00626354 0)
(-0.0243007 0.00625373 0)
(-0.0256408 0.00623245 0)
(-0.0269683 0.00619853 0)
(-0.0282804 0.00615069 0)
(-0.0295741 0.00608756 0)
(-0.0308464 0.00600778 0)
(-0.0320943 0.00590996 0)
(-0.0333147 0.00579273 0)
(-0.0345042 0.00565469 0)
(-0.0356597 0.00549447 0)
(-0.0367775 0.00531063 0)
(-0.037854 0.00510172 0)
(-0.0388854 0.00486624 0)
(-0.0398675 0.00460268 0)
(-0.0407959 0.00430951 0)
(-0.0416657 0.00398524 0)
(-0.042472 0.00362846 0)
(-0.0432091 0.0032379 0)
(-0.0438713 0.00281251 0)
(-0.0444524 0.00235153 0)
(-0.0449459 0.00185457 0)
(-0.045345 0.00132174 0)
(-0.045643 0.000753673 0)
(-0.0458328 0.000151667 0)
(-0.0459078 -0.000482288 0)
(-0.0458612 -0.00114544 0)
(-0.0456868 -0.0018342 0)
(-0.0453789 -0.00254416 0)
(-0.0449324 -0.00327008 0)
(-0.0443431 -0.00400591 0)
(-0.043608 -0.00474482 0)
(-0.0427251 -0.00547931 0)
(-0.0416938 -0.00620127 0)
(-0.0405151 -0.00690213 0)
(-0.0391917 -0.00757298 0)
(-0.0377278 -0.00820477 0)
(-0.0361296 -0.00878849 0)
(-0.0344051 -0.00931532 0)
(-0.0325641 -0.0097769 0)
(-0.0306182 -0.0101655 0)
(-0.0285808 -0.0104743 0)
(-0.0264668 -0.0106974 0)
(-0.0242927 -0.0108302 0)
(-0.022076 -0.0108696 0)
(-0.0198353 -0.0108136 0)
(-0.0175896 -0.0106623 0)
(-0.0153586 -0.010417 0)
(-0.0131617 -0.0100809 0)
(-0.0110182 -0.00965848 0)
(-0.00894649 -0.0091559 0)
(-0.00696404 -0.00858054 0)
(-0.00508696 -0.00794091 0)
(-0.00332977 -0.00724643 0)
(-0.00170509 -0.0065072 0)
(-0.000223539 -0.0057337 0)
(0.00110644 -0.00493661 0)
(0.00227866 -0.0041265 0)
(0.00328918 -0.00331366 0)
(0.00413631 -0.00250793 0)
(0.00482048 -0.00171853 0)
(0.00534421 -0.000954001 0)
(0.0057119 -0.000222216 0)
(0.00592972 0.0004696 0)
(0.00600548 0.00111474 0)
(0.00594844 0.00170682 0)
(0.00576927 0.00223956 0)
(0.00547993 0.00270648 0)
(0.00509368 0.00310059 0)
(0.00462507 0.00341403 0)
(0.00409004 0.00363777 0)
(0.00350609 0.00376132 0)
(0.00289245 0.00377252 0)
(0.00227051 0.00365754 0)
(0.00166434 0.00340089 0)
(0.00110084 0.0029858 0)
(0.000609109 0.00239459 0)
(0.000229533 0.00160923 0)
(3.7061e-05 0.000612177 0)
(-3.65701e-05 0.000409631 0)
(-0.000258568 0.0013073 0)
(-0.000733608 0.0022104 0)
(-0.00139653 0.00307282 0)
(-0.00221577 0.00386588 0)
(-0.00316905 0.00457294 0)
(-0.00423464 0.00518705 0)
(-0.00539299 0.00570847 0)
(-0.00662731 0.00614248 0)
(-0.00792322 0.00649742 0)
(-0.00926856 0.00678329 0)
(-0.0106531 0.00701053 0)
(-0.0120685 0.00718921 0)
(-0.0135076 0.00732847 0)
(-0.0149647 0.00743616 0)
(-0.0164349 0.00751872 0)
(-0.0179141 0.00758111 0)
(-0.0193988 0.00762693 0)
(-0.0208857 0.00765857 0)
(-0.0223718 0.00767734 0)
(-0.0238543 0.00768371 0)
(-0.0253304 0.00767752 0)
(-0.0267972 0.00765807 0)
(-0.0282521 0.00762437 0)
(-0.0296922 0.0075752 0)
(-0.0311148 0.00750923 0)
(-0.032517 0.00742505 0)
(-0.0338961 0.00732127 0)
(-0.0352493 0.00719644 0)
(-0.0365738 0.00704915 0)
(-0.0378668 0.00687793 0)
(-0.0391254 0.00668126 0)
(-0.0403465 0.00645758 0)
(-0.041527 0.00620523 0)
(-0.0426634 0.00592246 0)
(-0.0437519 0.00560745 0)
(-0.0447883 0.00525832 0)
(-0.0457682 0.0048732 0)
(-0.0466863 0.00445025 0)
(-0.0475372 0.00398779 0)
(-0.0483147 0.00348433 0)
(-0.0490123 0.00293874 0)
(-0.0496227 0.00235028 0)
(-0.0501387 0.00171879 0)
(-0.0505522 0.00104474 0)
(-0.0508553 0.000329373 0)
(-0.05104 -0.00042524 0)
(-0.0510981 -0.00121613 0)
(-0.0510218 -0.0020393 0)
(-0.0508038 -0.00288977 0)
(-0.0504374 -0.00376153 0)
(-0.0499165 -0.00464759 0)
(-0.0492364 -0.00554 0)
(-0.0483934 -0.00642992 0)
(-0.0473854 -0.00730776 0)
(-0.0462118 -0.00816331 0)
(-0.0448738 -0.00898591 0)
(-0.0433747 -0.00976463 0)
(-0.0417197 -0.0104885 0)
(-0.0399161 -0.0111467 0)
(-0.0379736 -0.011729 0)
(-0.0359037 -0.0122256 0)
(-0.0337204 -0.0126279 0)
(-0.0314392 -0.0129284 0)
(-0.0290779 -0.013121 0)
(-0.0266554 -0.0132013 0)
(-0.0241922 -0.0131665 0)
(-0.0217097 -0.0130158 0)
(-0.0192299 -0.0127505 0)
(-0.0167749 -0.0123737 0)
(-0.0143669 -0.0118905 0)
(-0.0120273 -0.0113078 0)
(-0.00977641 -0.0106343 0)
(-0.00763333 -0.00987991 0)
(-0.00561532 -0.0090559 0)
(-0.00373763 -0.00817441 0)
(-0.00201321 -0.00724816 0)
(-0.000452538 -0.00629017 0)
(0.000936459 -0.00531341 0)
(0.00214848 -0.0043306 0)
(0.00318082 -0.00335391 0)
(0.00403328 -0.00239481 0)
(0.00470806 -0.00146399 0)
(0.00520955 -0.000571285 0)
(0.00554424 0.00027428 0)
(0.00572042 0.00106434 0)
(0.0057481 0.001791 0)
(0.00563883 0.00244657 0)
(0.00540558 0.00302323 0)
(0.00506268 0.00351265 0)
(0.00462586 0.0039056 0)
(0.00411227 0.00419155 0)
(0.00354068 0.00435831 0)
(0.0029317 0.00439174 0)
(0.00230816 0.00427558 0)
(0.00169581 0.00399135 0)
(0.00112337 0.00351847 0)
(0.000621953 0.00283438 0)
(0.000234155 0.00191479 0)
(3.76509e-05 0.000734065 0)
(-4.21141e-05 0.000552319 0)
(-0.000294656 0.0016978 0)
(-0.000831646 0.00281394 0)
(-0.00157663 0.00385769 0)
(-0.00249217 0.00480356 0)
(-0.0035521 0.00563816 0)
(-0.00473143 0.00635769 0)
(-0.00600817 0.00696542 0)
(-0.00736375 0.0074694 0)
(-0.00878255 0.00788053 0)
(-0.0102516 0.00821106 0)
(-0.01176 0.00847339 0)
(-0.0132991 0.00867927 0)
(-0.0148615 0.00883919 0)
(-0.0164412 0.00896213 0)
(-0.0180332 0.00905535 0)
(-0.0196332 0.00912446 0)
(-0.0212375 0.00917351 0)
(-0.0228427 0.00920516 0)
(-0.0244457 0.00922093 0)
(-0.0260434 0.00922141 0)
(-0.027633 0.00920647 0)
(-0.0292118 0.00917548 0)
(-0.030777 0.00912745 0)
(-0.0323259 0.00906122 0)
(-0.033856 0.00897549 0)
(-0.035365 0.00886891 0)
(-0.0368503 0.00874011 0)
(-0.0383098 0.00858771 0)
(-0.0397413 0.00841029 0)
(-0.0411427 0.00820634 0)
(-0.0425116 0.00797427 0)
(-0.0438459 0.00771236 0)
(-0.0451428 0.00741872 0)
(-0.0463997 0.00709128 0)
(-0.0476131 0.00672784 0)
(-0.0487795 0.00632605 0)
(-0.0498943 0.00588351 0)
(-0.0509526 0.00539782 0)
(-0.0519487 0.00486667 0)
(-0.052876 0.00428798 0)
(-0.0537275 0.00366001 0)
(-0.0544952 0.0029815 0)
(-0.0551706 0.0022518 0)
(-0.0557446 0.00147103 0)
(-0.0562076 0.000640171 0)
(-0.0565498 -0.000238796 0)
(-0.0567614 -0.00116275 0)
(-0.0568325 -0.00212752 0)
(-0.0567535 -0.00312761 0)
(-0.0565155 -0.00415632 0)
(-0.0561102 -0.00520573 0)
(-0.0555304 -0.00626673 0)
(-0.0547703 -0.00732912 0)
(-0.0538255 -0.00838171 0)
(-0.0526935 -0.00941251 0)
(-0.0513736 -0.0104089 0)
(-0.0498674 -0.0113577 0)
(-0.048179 -0.0122459 0)
(-0.0463146 -0.0130603 0)
(-0.0442833 -0.0137882 0)
(-0.0420967 -0.0144178 0)
(-0.0397687 -0.0149379 0)
(-0.037316 -0.0153391 0)
(-0.0347572 -0.0156134 0)
(-0.0321132 -0.0157546 0)
(-0.0294065 -0.0157588 0)
(-0.0266611 -0.0156242 0)
(-0.0239019 -0.0153514 0)
(-0.0211543 -0.0149435 0)
(-0.0184438 -0.0144059 0)
(-0.0157954 -0.0137462 0)
(-0.0132332 -0.0129743 0)
(-0.0107797 -0.0121019 0)
(-0.00845571 -0.011142 0)
(-0.00627978 -0.0101092 0)
(-0.00426779 -0.00901872 0)
(-0.00243284 -0.00788621 0)
(-0.000785065 -0.00672746 0)
(0.000668466 -0.00555797 0)
(0.00192372 -0.00439268 0)
(0.00297963 -0.00324571 0)
(0.00383793 -0.00213022 0)
(0.00450298 -0.00105835 0)
(0.00498155 -4.1223e-05 0)
(0.00528254 0.0009109 0)
(0.00541681 0.00178842 0)
(0.00539695 0.00258209 0)