/*--------------------------------*- C++ -*----------------------------------*\
  =========                 |
  \\      /  F ield         | OpenFOAM: The Open Source CFD Toolbox
   \\    /   O peration     | Website:  https://openfoam.org
    \\  /    A nd           | Version:  9
     \\/     M anipulation  |
\*---------------------------------------------------------------------------*/
FoamFile
{
    format      ascii;
    class       volScalarField;
    location    "1.25";
    object      p;
}
// * * * * * * * * * * * * * * * * * * * * * * * * * * * * * * * * * * * * * //

dimensions      [0 2 -2 0 0 0 0];

internalField   nonuniform List<scalar> 
10000
(
8.25528e-09
-3.57109e-07
-6.65926e-06
-1.7893e-05
-3.26409e-05
-4.97268e-05
-6.82197e-05
-8.74337e-05
-0.000106918
-0.000126412
-0.000145791
-0.000165025
-0.000184143
-0.000203201
-0.000222265
-0.000241387
-0.000260596
-0.000279892
-0.000299239
-0.000318562
-0.000337749
-0.00035665
-0.000375079
-0.000392818
-0.000409616
-0.000425194
-0.000439247
-0.000451448
-0.00046145
-0.00046889
-0.000473392
-0.000474572
-0.000472041
-0.000465412
-0.000454304
-0.000438353
-0.000417217
-0.000390588
-0.000358199
-0.000319842
-0.000275373
-0.000224732
-0.000167956
-0.000105188
-3.66955e-05
3.7118e-05
0.000115708
0.000198373
0.000284259
0.000372343
0.000461465
0.000550311
0.000637443
0.000721318
0.000800314
0.000872767
0.000937006
0.000991399
0.00103439
0.00106457
0.00108067
0.00108166
0.00106677
0.00103549
0.000987646
0.00092337
0.000843129
0.000747668
0.000638118
0.000515796
0.000382282
0.000239342
8.88778e-05
-6.71312e-05
-0.000226677
-0.000387779
-0.000548527
-0.00070713
-0.000861947
-0.00101151
-0.00115456
-0.00129003
-0.00141705
-0.00153496
-0.00164327
-0.00174165
-0.0018299
-0.00190793
-0.00197572
-0.00203331
-0.00208075
-0.00211812
-0.00214552
-0.0021631
-0.00217116
-0.0021703
-0.0021617
-0.00214757
-0.00213134
-0.00211862
3.25398e-07
-6.90929e-08
-5.58974e-06
-1.51319e-05
-2.7586e-05
-4.21977e-05
-5.82648e-05
-7.52576e-05
-9.27922e-05
-0.000110619
-0.000128592
-0.000146642
-0.000164751
-0.000182927
-0.000201187
-0.000219543
-0.00023799
-0.000256502
-0.000275023
-0.000293464
-0.000311707
-0.0003296
-0.000346963
-0.000363585
-0.000379228
-0.00039363
-0.000406505
-0.000417549
-0.000426441
-0.000432847
-0.000436422
-0.000436818
-0.000433679
-0.000426656
-0.000415408
-0.000399608
-0.000378953
-0.000353172
-0.000322034
-0.000285363
-0.000243044
-0.000195038
-0.0001414
-8.22794e-05
-1.7945e-05
5.12113e-05
0.000124665
0.000201745
0.000281627
0.000363395
0.000445913
0.000527953
0.000608168
0.000685114
0.000757273
0.000823091
0.000881008
0.000929503
0.000967135
0.000992581
0.00100469
0.0010025
0.000985311
0.000952674
0.000904439
0.000840757
0.000762085
0.000669174
0.00056305
0.000445007
0.000316533
0.000179295
3.5083e-05
-0.000114241
-0.000266793
-0.000420717
-0.000574228
-0.000725651
-0.000873454
-0.00101627
-0.00115292
-0.00128239
-0.0014039
-0.0015168
-0.00162064
-0.00171511
-0.00180003
-0.00187531
-0.00194096
-0.00199704
-0.00204365
-0.00208094
-0.00210911
-0.00212843
-0.00213931
-0.00214241
-0.0021388
-0.00213022
-0.00211868
-0.00210592
6.74038e-06
5.35398e-06
-3.27015e-07
-9.40839e-06
-2.0841e-05
-3.41971e-05
-4.89112e-05
-6.45504e-05
-8.08029e-05
-9.74571e-05
-0.000114382
-0.000131505
-0.000148795
-0.00016624
-0.000183836
-0.000201576
-0.000219437
-0.000237375
-0.000255321
-0.000273178
-0.000290824
-0.000308104
-0.000324841
-0.000340829
-0.000355837
-0.000369614
-0.000381887
-0.000392369
-0.000400757
-0.000406735
-0.000409982
-0.00041017
-0.000406968
-0.00040005
-0.000389098
-0.000373808
-0.0003539
-0.00032912
-0.000299257
-0.000264144
-0.000223677
-0.000177823
-0.000126632
-7.02515e-05
-8.93617e-06
5.69409e-05
0.000126877
0.000200234
0.00027624
0.000353973
0.000432374
0.00051026
0.000586332
0.000659197
0.000727389
0.000789405
0.000843739
0.000888916
0.000923538
0.000946328
0.000956167
0.000952133
0.000933544
0.000899978
0.000851298
0.000787665
0.000709536
0.000617661
0.000513059
0.000396991
0.000270933
0.000136514
-4.5145e-06
-0.000150337
-0.00029912
-0.000449063
-0.000598439
-0.000745635
-0.000889181
-0.00102777
-0.00116027
-0.00128575
-0.00140344
-0.00151277
-0.00161332
-0.00170482
-0.00178711
-0.00186016
-0.00192399
-0.0019787
-0.00202445
-0.0020614
-0.0020898
-0.00210994
-0.0021222
-0.00212713
-0.00212557
-0.00211878
-0.00210722
-0.00208961
1.84721e-05
1.49541e-05
8.36692e-06
-9.54419e-07
-1.2231e-05
-2.50355e-05
-3.89653e-05
-5.3701e-05
-6.901e-05
-8.47352e-05
-0.000100779
-0.000117089
-0.000133638
-0.000150416
-0.000167411
-0.000184607
-0.00020197
-0.000219448
-0.000236965
-0.000254417
-0.000271676
-0.000288588
-0.000304975
-0.000320634
-0.000335343
-0.000348856
-0.000360914
-0.00037124
-0.000379545
-0.000385531
-0.00038889
-0.000389313
-0.000386485
-0.000380096
-0.000369843
-0.000355437
-0.000336608
-0.000313111
-0.000284737
-0.000251322
-0.000212757
-0.000169001
-0.000120091
-6.61567e-05
-7.43115e-06
5.57375e-05
0.000122877
0.000193378
0.000266499
0.000341352
0.000416909
0.00049202
0.000565413
0.000635721
0.000701502
0.00076127
0.000813533
0.000856829
0.000889766
0.000911071
0.000919627
0.000914517
0.000895057
0.000860827
0.000811694
0.000747821
0.000669673
0.000578005
0.000473846
0.000358468
0.000233346
0.000100123
-3.94468e-05
-0.000183553
-0.000330368
-0.000478105
-0.000625057
-0.000769638
-0.000910408
-0.0010461
-0.00117563
-0.00129811
-0.00141282
-0.00151924
-0.001617
-0.00170588
-0.00178579
-0.00185671
-0.00191875
-0.00197203
-0.00201673
-0.00205307
-0.00208129
-0.00210165
-0.00211446
-0.00212007
-0.00211906
-0.00211225
-0.00209885
-0.00207548
3.43297e-05
2.7686e-05
1.94744e-05
9.47438e-06
-2.04532e-06
-1.46922e-05
-2.81693e-05
-4.22655e-05
-5.68332e-05
-7.17783e-05
-8.70487e-05
-0.000102622
-0.00011849
-0.000134652
-0.000151101
-0.000167816
-0.000184763
-0.000201881
-0.00021909
-0.000236284
-0.000253331
-0.000270077
-0.000286344
-0.000301932
-0.000316625
-0.000330185
-0.000342361
-0.000352888
-0.000361489
-0.000367879
-0.000371765
-0.000372847
-0.000370825
-0.000365402
-0.000356282
-0.000343182
-0.000325837
-0.000304
-0.000277458
-0.000246038
-0.000209616
-0.00016813
-0.000121599
-7.0121e-05
-1.39014e-05
4.67439e-05
0.000111375
0.000179416
0.000250149
0.00032273
0.000396149
0.000469275
0.000540855
0.00060953
0.000673862
0.000732363
0.000783533
0.000825894
0.000858039
0.000878675
0.000886665
0.000881069
0.000861186
0.000826583
0.000777119
0.000712952
0.000634553
0.000542688
0.000438404
0.000322995
0.000197971
6.49799e-05
-7.41642e-05
-0.00021764
-0.000363597
-0.00051023
-0.000655827
-0.000798801
-0.000937727
-0.00107136
-0.00119864
-0.00131873
-0.00143095
-0.00153484
-0.00163008
-0.00171652
-0.00179411
-0.00186292
-0.00192308
-0.00197478
-0.00201824
-0.0020537
-0.00208139
-0.00210154
-0.00211437
-0.00212006
-0.00211892
-0.00211144
-0.00209589
-0.00206723
5.31337e-05
4.27785e-05
3.25063e-05
2.13675e-05
9.22935e-06
-3.59444e-06
-1.69074e-05
-3.06051e-05
-4.46275e-05
-5.895e-05
-7.35737e-05
-8.8515e-05
-0.000103794
-0.000119427
-0.000135417
-0.00015175
-0.000168392
-0.000185284
-0.000202341
-0.000219457
-0.000236499
-0.000253314
-0.000269725
-0.000285537
-0.000300537
-0.000314496
-0.000327171
-0.000338307
-0.000347639
-0.00035489
-0.000359778
-0.000362016
-0.000361309
-0.000357365
-0.000349894
-0.000338612
-0.000323248
-0.000303546
-0.000279278
-0.000250251
-0.000216317
-0.000177386
-0.000133441
-8.4546e-05
-3.0868e-05
2.73166e-05
8.96071e-05
0.000155459
0.000224175
0.000294976
0.00036684
0.000438658
0.000509183
0.000577055
0.000640823
0.000698978
0.000749994
0.00079236
0.000824627
0.000845462
0.000853684
0.000848314
0.000828611
0.000794113
0.000744652
0.000680376
0.000601753
0.000509558
0.000404857
0.000288977
0.000163462
3.00258e-05
-0.000109497
-0.000253218
-0.00039924
-0.000545718
-0.000690905
-0.000833193
-0.000971146
-0.00110352
-0.00122928
-0.00134761
-0.00145787
-0.00155966
-0.00165271
-0.00173693
-0.00181234
-0.00187908
-0.00193734
-0.00198737
-0.00202942
-0.00206377
-0.00209064
-0.00211023
-0.00212267
-0.00212801
-0.00212635
-0.00211794
-0.00210036
-0.00206743
7.38472e-05
5.93435e-05
4.66847e-05
3.40912e-05
2.10423e-05
7.77585e-06
-5.60881e-06
-1.91137e-05
-3.27678e-05
-4.66195e-05
-6.07287e-05
-7.51571e-05
-8.99588e-05
-0.000105173
-0.000120821
-0.000136899
-0.000153378
-0.000170202
-0.00018729
-0.000204536
-0.00022181
-0.000238959
-0.000255811
-0.000272176
-0.000287846
-0.0003026
-0.000316206
-0.000328415
-0.000338973
-0.000347613
-0.00035406
-0.000358033
-0.000359244
-0.0003574
-0.000352209
-0.000343378
-0.000330624
-0.000313674
-0.000292273
-0.0002662
-0.00023527
-0.000199356
-0.000158394
-0.000112403
-6.15033e-05
-5.9235e-06
5.39808e-05
0.0001177
0.000184547
0.000253871
0.000324576
0.000395582
0.00046565
0.000533409
0.000597387
0.000656043
0.000707808
0.000751118
0.00078447
0.000806465
0.000815859
0.000811609
0.000792916
0.000759263
0.000710443
0.000646572
0.000568102
0.000475807
0.000370771
0.000254347
0.000128128
-6.11713e-06
-0.000146492
-0.000291036
-0.00043779
-0.000584835
-0.000730371
-0.000872742
-0.00101048
-0.00114232
-0.00126724
-0.00138441
-0.00149325
-0.00159338
-0.0016846
-0.00176688
-0.00184031
-0.00190509
-0.00196148
-0.0020098
-0.00205034
-0.00208341
-0.00210924
-0.00212802
-0.00213981
-0.00214455
-0.0021422
-0.00213283
-0.0021136
-0.00207753
9.53992e-05
7.64902e-05
6.12133e-05
4.69471e-05
3.27795e-05
1.88765e-05
5.24149e-06
-8.23391e-06
-2.16697e-05
-3.5189e-05
-4.89138e-05
-6.29545e-05
-7.74035e-05
-9.23285e-05
-0.000107771
-0.000123741
-0.000140221
-0.000157163
-0.000174491
-0.000192102
-0.000209872
-0.000227652
-0.000245277
-0.000262561
-0.000279308
-0.000295305
-0.000310327
-0.00032414
-0.000336495
-0.000347137
-0.000355798
-0.000362199
-0.000366053
-0.000367067
-0.000364939
-0.000359362
-0.000350032
-0.000336649
-0.000318925
-0.000296598
-0.000269437
-0.000237263
-0.000199957
-0.00015748
-0.000109892
-5.73636e-05
-1.97199e-07
6.11636e-05
0.000126124
0.000193863
0.000263508
0.000333949
0.000403942
0.000472103
0.000536933
0.000596852
0.000650237
0.000695461
0.000730946
0.00075521
0.000766923
0.000764954
0.00074842
0.000716724
0.000669588
0.000607077
0.000529601
0.000437916
0.000333107
0.000216548
8.98705e-05
-4.50974e-05
-0.000186389
-0.000331963
-0.000479771
-0.000627815
-0.000774207
-0.000917226
-0.00105534
-0.00118726
-0.00131191
-0.00142849
-0.00153642
-0.00163535
-0.00172513
-0.00180578
-0.00187747
-0.00194046
-0.00199508
-0.00204172
-0.00208073
-0.00211244
-0.00213713
-0.00215496
-0.00216597
-0.00217001
-0.00216697
-0.0021568
-0.00213638
-0.0020983
0.000116838
9.33297e-05
7.52757e-05
5.91892e-05
4.376e-05
2.90832e-05
1.50657e-05
1.49141e-06
-1.1852e-05
-2.51641e-05
-3.86307e-05
-5.24134e-05
-6.66451e-05
-8.1425e-05
-9.6817e-05
-0.000112851
-0.000129521
-0.000146792
-0.000164595
-0.000182837
-0.000201401
-0.000220147
-0.000238917
-0.000257539
-0.000275826
-0.000293576
-0.00031058
-0.000326612
-0.000341438
-0.00035481
-0.000366467
-0.000376136
-0.000383529
-0.000388344
-0.000390268
-0.000388975
-0.000384133
-0.000375406
-0.000362462
-0.000344988
-0.000322696
-0.00029534
-0.000262734
-0.000224764
-0.000181416
-0.00013279
-7.91135e-05
-2.07513e-05
4.17736e-05
0.000107608
0.000175987
0.000245814
0.000315866
0.000384749
0.000450938
0.000512814
0.000568694
0.000616878
0.000655697
0.000683569
0.000699053
0.000700901
0.000688112
0.000659976
0.000616112
0.00055649
0.000481449
0.000391695
0.000288286
0.000172597
4.62832e-05
-8.87776e-05
-0.000230548
-0.000376901
-0.000525688
-0.000674808
-0.00082227
-0.000966266
-0.00110517
-0.00123762
-0.00136251
-0.001479
-0.0015865
-0.00168469
-0.00177344
-0.00185283
-0.00192308
-0.00198453
-0.00203757
-0.00208265
-0.00212019
-0.00215058
-0.00217412
-0.00219098
-0.00220119
-0.00220458
-0.00220095
-0.00219022
-0.00216912
-0.00213003
0.000137206
0.000108961
8.80241e-05
7.00231e-05
5.324e-05
3.76971e-05
2.32021e-05
9.4288e-06
-3.92917e-06
-1.71488e-05
-3.04805e-05
-4.41387e-05
-5.82976e-05
-7.309e-05
-8.86056e-05
-0.000104895
-0.00012197
-0.000139807
-0.000158354
-0.000177528
-0.000197224
-0.000217316
-0.00023766
-0.000258099
-0.000278461
-0.000298562
-0.000318209
-0.000337192
-0.000355293
-0.000372275
-0.000387887
-0.00040186
-0.000413905
-0.000423713
-0.000430955
-0.000435281
-0.000436322
-0.000433701
-0.000427034
-0.000415943
-0.000400067
-0.000379082
-0.000352712
-0.000320754
-0.000283098
-0.000239747
-0.000190831
-0.000136616
-7.75784e-05
-1.45061e-05
5.20284e-05
0.000120849
0.000190792
0.00026048
0.000328377
0.000392829
0.000452096
0.000504398
0.000547964
0.00058109
0.000602196
0.000609884
0.000602994
0.00058066
0.000542347
0.000487883
0.000417487
0.000331768
0.000231713
0.000118662
-5.73506e-06
-0.00013957
-0.000280745
-0.000427049
-0.000576229
-0.000726066
-0.000874445
-0.00101943
-0.00115929
-0.00129256
-0.00141805
-0.00153488
-0.00164241
-0.00174032
-0.0018285
-0.00190705
-0.00197624
-0.00203646
-0.0020882
-0.00213195
-0.0021682
-0.0021974
-0.00221989
-0.00223587
-0.00224539
-0.00224825
-0.00224424
-0.00223323
-0.00221194
-0.00217272
0.000155547
0.000122465
9.85775e-05
7.86069e-05
6.0416e-05
4.39491e-05
2.89105e-05
1.48604e-05
1.39668e-06
-1.18367e-05
-2.51549e-05
-3.88257e-05
-5.30655e-05
-6.80419e-05
-8.38723e-05
-0.000100631
-0.000118349
-0.000137024
-0.000156617
-0.000177065
-0.000198281
-0.000220157
-0.000242569
-0.000265383
-0.000288448
-0.000311606
-0.000334685
-0.000357499
-0.000379849
-0.000401518
-0.000422267
-0.000441837
-0.000459938
-0.000476256
-0.000490443
-0.00050212
-0.000510882
-0.000516297
-0.000517919
-0.000515293
-0.00050797
-0.000495525
-0.000477576
-0.0004538
-0.000423964
-0.000387945
-0.000345743
-0.000297509
-0.000243642
-0.000184906
-0.000121198
-5.42195e-05
1.50505e-05
8.53158e-05
0.000155056
0.000222597
0.000286152
0.000343858
0.000393831
0.000434224
0.000463289
0.000479437
0.000481302
0.000467801
0.000438183
0.000392075
0.000329502
0.00025091
0.000157155
4.94862e-05
-7.04977e-05
-0.000200896
-0.000339577
-0.000484255
-0.000632574
-0.000782185
-0.000930832
-0.00107642
-0.00121708
-0.00135122
-0.00147752
-0.00159499
-0.00170295
-0.00180103
-0.0018891
-0.00196727
-0.00203585
-0.00209528
-0.00214609
-0.00218885
-0.00222411
-0.00225237
-0.00227402
-0.00228933
-0.00229834
-0.00230089
-0.00229676
-0.0022858
-0.00226477
-0.00222615
0.000170891
0.000132896
0.000106018
8.40519e-05
6.44276e-05
4.70048e-05
3.13779e-05
1.69898e-05
3.3403e-06
-1.00071e-05
-2.34325e-05
-3.72576e-05
-5.17417e-05
-6.70878e-05
-8.34439e-05
-0.000100909
-0.00011954
-0.000139355
-0.00016034
-0.000182454
-0.000205635
-0.000229802
-0.000254862
-0.000280708
-0.000307223
-0.000334281
-0.000361743
-0.000389457
-0.000417252
-0.000444938
-0.000472298
-0.000499087
-0.000525022
-0.000549783
-0.000573007
-0.000594286
-0.000613169
-0.000629166
-0.000641754
-0.000650386
-0.000654506
-0.000653564
-0.000647039
-0.000634459
-0.000615429
-0.000589655
-0.00055698
-0.000517397
-0.000470986
-0.000417919
-0.000359657
-0.000296152
-0.000228646
-0.000158441
-8.70146e-05
-1.60329e-05
5.26813e-05
0.000117189
0.000175489
0.000225569
0.000265481
0.000293399
0.000307692
0.000306995
0.000290263
0.000256831
0.000206447
0.000139304
5.60398e-05
-4.22692e-05
-0.000154144
-0.000277749
-0.000410964
-0.000551457
-0.000696778
-0.000844449
-0.000992052
-0.00113731
-0.00127818
-0.00141287
-0.00153991
-0.00165817
-0.00176686
-0.0018655
-0.00195393
-0.00203224
-0.00210073
-0.00215987
-0.00221024
-0.00225245
-0.00228712
-0.00231482
-0.00233598
-0.00235092
-0.00235972
-0.00236225
-0.0023583
-0.00234772
-0.00232738
-0.00228998
0.000182242
0.000139277
0.000109388
8.54221e-05
6.43595e-05
4.59669e-05
2.97223e-05
1.49462e-05
1.03759e-06
-1.25219e-05
-2.61779e-05
-4.03056e-05
-5.52086e-05
-7.11264e-05
-8.82395e-05
-0.000106676
-0.000126521
-0.000147822
-0.000170593
-0.000194825
-0.000220491
-0.000247545
-0.000275934
-0.000305594
-0.000336453
-0.00036843
-0.000401433
-0.000435355
-0.000470069
-0.000505424
-0.000541237
-0.000577286
-0.000613305
-0.000648974
-0.000683918
-0.000717697
-0.000749815
-0.000779712
-0.000806775
-0.000830346
-0.000849734
-0.000864237
-0.000873156
-0.000875826
-0.000871642
-0.000860086
-0.00084077
-0.000813459
-0.000778025
-0.000734534
-0.000683707
-0.000625699
-0.000561657
-0.000492676
-0.000420112
-0.000345591
-0.000270942
-0.000198168
-0.000129391
-6.67989e-05
-1.25755e-05
3.11687e-05
6.24753e-05
7.96138e-05
8.11551e-05
6.60366e-05
3.36176e-05
-1.62794e-05
-8.33467e-05
-0.000166792
-0.000265358
-0.000377363
-0.000500762
-0.000633233
-0.000772261
-0.000915247
-0.0010596
-0.00120284
-0.00134269
-0.00147714
-0.00160449
-0.00172341
-0.00183293
-0.00193243
-0.00202166
-0.00210062
-0.00216959
-0.00222904
-0.00227955
-0.00232178
-0.0023564
-0.00238402
-0.00240515
-0.00242013
-0.00242912
-0.00243199
-0.00242858
-0.00241874
-0.00239947
-0.0023638
0.000188572
0.000140595
0.000107691
8.17351e-05
5.92434e-05
3.98787e-05
2.29957e-05
7.78677e-06
-6.45199e-06
-2.03225e-05
-3.43373e-05
-4.89259e-05
-6.44368e-05
-8.11475e-05
-9.92744e-05
-0.00011898
-0.000140381
-0.000163561
-0.000188573
-0.00021545
-0.000244207
-0.000274851
-0.000307383
-0.000341794
-0.000378076
-0.00041621
-0.000456168
-0.000497907
-0.000541362
-0.000586439
-0.000633004
-0.000680877
-0.000729817
-0.000779515
-0.000829589
-0.000879571
-0.000928911
-0.00097697
-0.00102303
-0.00106629
-0.00110591
-0.00114097
-0.00117056
-0.00119377
-0.00120971
-0.00121758
-0.00121667
-0.00120643
-0.00118645
-0.00115649
-0.00111674
-0.00106759
-0.00100959
-0.000943666
-0.000871031
-0.000793233
-0.000712076
-0.000629599
-0.000548036
-0.00046976
-0.000397217
-0.000332846
-0.000279004
-0.000237871
-0.000211367
-0.000201073
-0.000208154
-0.000233299
-0.000276681
-0.000337937
-0.000416166
-0.000509965
-0.000617474
-0.000736457
-0.000864396
-0.000998596
-0.0011363
-0.00127481
-0.00141157
-0.00154428
-0.00167097
-0.00179
-0.00190018
-0.00200067
-0.00209102
-0.00217113
-0.00224118
-0.00230158
-0.00235292
-0.00239584
-0.00243106
-0.00245922
-0.00248088
-0.00249644
-0.00250608
-0.00250974
-0.00250726
-0.00249852
-0.00248068
-0.00244715
0.000188812
0.000135797
9.9886e-05
7.19617e-05
4.80594e-05
2.77272e-05
1.01888e-05
-5.49646e-06
-2.01391e-05
-3.44258e-05
-4.89372e-05
-6.41573e-05
-8.0483e-05
-9.82326e-05
-0.000117661
-0.000138969
-0.000162317
-0.000187831
-0.000215613
-0.000245749
-0.000278317
-0.000313388
-0.000351034
-0.000391327
-0.000434338
-0.000480135
-0.000528778
-0.000580312
-0.000634758
-0.000692102
-0.000752281
-0.000815175
-0.000880585
-0.000948228
-0.00101772
-0.00108856
-0.00116015
-0.00123176
-0.00130252
-0.00137149
-0.00143759
-0.00149968
-0.00155655
-0.00160698
-0.00164973
-0.00168362
-0.00170755
-0.00172055
-0.00172179
-0.00171061
-0.00168677
-0.00165088
-0.00160221
-0.00154188
-0.00147086
-0.00139054
-0.00130264
-0.00120919
-0.00111251
-0.00101516
-0.000919863
-0.000829421
-0.000746651
-0.000674271
-0.000614803
-0.000570479
-0.00054314
-0.000534158
-0.000544366
-0.000574011
-0.000622735
-0.000689578
-0.000773016
-0.000871028
-0.000981184
-0.00110076
-0.00122686
-0.00135656
-0.00148699
-0.00161551
-0.00173978
-0.00185781
-0.00196803
-0.00206931
-0.00216094
-0.00224259
-0.00231429
-0.00237633
-0.00242923
-0.00247363
-0.00251021
-0.00253965
-0.00256253
-0.0025793
-0.00259017
-0.00259512
-0.00259402
-0.00258677
-0.00257069
-0.00253962
0.000181859
0.000123794
8.48934e-05
5.50293e-05
2.97398e-05
8.44712e-06
-9.76413e-06
-2.59732e-05
-4.11e-05
-5.59173e-05
-7.10772e-05
-8.71196e-05
-0.00010449
-0.000123553
-0.000144608
-0.000167903
-0.000193646
-0.000222021
-0.000253192
-0.000287314
-0.000324544
-0.00036504
-0.000408968
-0.000456504
-0.000507828
-0.000563122
-0.000622564
-0.000686317
-0.000754519
-0.000827263
-0.000904588
-0.000986455
-0.00107273
-0.00116317
-0.00125739
-0.00135487
-0.00145494
-0.00155674
-0.00165926
-0.00176134
-0.00186164
-0.00195871
-0.00205099
-0.00213683
-0.00221457
-0.00228254
-0.00233916
-0.00238294
-0.00241255
-0.00242686
-0.00242527
-0.0024082
-0.00237243
-0.00232102
-0.00225411
-0.00217269
-0.00207833
-0.00197299
-0.00185905
-0.00173923
-0.00161652
-0.00149412
-0.00137537
-0.00126357
-0.00116196
-0.00107355
-0.00100104
-0.000946646
-0.000912083
-0.000898428
-0.000906086
-0.000934766
-0.000983487
-0.00105062
-0.00113398
-0.00123093
-0.00133848
-0.00145351
-0.00157284
-0.00169343
-0.00181247
-0.00192752
-0.00203653
-0.00213795
-0.00223068
-0.00231407
-0.0023879
-0.00245225
-0.00250751
-0.00255422
-0.00259302
-0.00262458
-0.00264949
-0.0026682
-0.00268096
-0.00268779
-0.00268858
-0.00268321
-0.00266921
-0.00264086
0.000166567
0.000103457
6.15941e-05
2.98242e-05
3.17251e-06
-1.90756e-05
-3.79821e-05
-5.47695e-05
-7.04728e-05
-8.59511e-05
-0.000101928
-0.000119006
-0.000137683
-0.000158372
-0.000181426
-0.000207148
-0.000235808
-0.00026766
-0.000302946
-0.000341913
-0.000384818
-0.000431932
-0.000483545
-0.000539965
-0.000601515
-0.000668529
-0.000741338
-0.000820261
-0.000905588
-0.00099756
-0.00109634
-0.00120201
-0.00131452
-0.00143366
-0.00155908
-0.00169022
-0.00182632
-0.00196637
-0.00210916
-0.00225325
-0.00239699
-0.00253853
-0.00267584
-0.0028068
-0.00292917
-0.00304073
-0.00313926
-0.00322267
-0.00328905
-0.00333671
-0.00336392
-0.00336883
-0.00335406
-0.0033166
-0.00325723
-0.00317691
-0.00307702
-0.00295943
-0.00282652
-0.00268112
-0.00252647
-0.00236617
-0.00220405
-0.00204409
-0.00189032
-0.00174665
-0.00161675
-0.00150392
-0.00141097
-0.00134004
-0.00129257
-0.00126923
-0.00126984
-0.00129342
-0.00133824
-0.00140192
-0.00148153
-0.00157382
-0.00167529
-0.00178249
-0.00189206
-0.00200098
-0.00210663
-0.00220685
-0.00230002
-0.00238504
-0.00246127
-0.00252852
-0.0025869
-0.00263681
-0.00267877
-0.00271339
-0.00274122
-0.00276272
-0.00277814
-0.0027875
-0.00279072
-0.00278767
-0.00277606
-0.00275061
0.000141758
7.36231e-05
2.88335e-05
-4.80551e-06
-3.27951e-05
-5.59975e-05
-7.56311e-05
-9.30644e-05
-0.00010945
-0.00012574
-0.00014273
-0.000161087
-0.000181366
-0.000204042
-0.000229523
-0.000258183
-0.000290368
-0.000326417
-0.000366676
-0.000411505
-0.000461289
-0.000516444
-0.000577417
-0.000644691
-0.00071877
-0.00080018
-0.000889454
-0.000987108
-0.00109363
-0.00120944
-0.00133489
-0.00147017
-0.00161535
-0.00177029
-0.00193464
-0.00210779
-0.00228885
-0.00247665
-0.00266969
-0.0028662
-0.0030641
-0.00326104
-0.00345445
-0.00364159
-0.00381957
-0.00398545
-0.00413631
-0.0042693
-0.00438182
-0.00447147
-0.00453594
-0.00457323
-0.004583
-0.00456407
-0.00451628
-0.00444002
-0.00433635
-0.00420693
-0.00405407
-0.00388064
-0.00369008
-0.00348631
-0.00327366
-0.0030568
-0.00284056
-0.00262983
-0.00242941
-0.00224382
-0.00207717
-0.00193296
-0.00181395
-0.00172208
-0.00165831
-0.00162265
-0.00161412
-0.00163087
-0.00167024
-0.00172897
-0.00180337
-0.00188952
-0.00198352
-0.00208163
-0.0021805
-0.00227723
-0.00236948
-0.0024555
-0.0025341
-0.00260462
-0.00266682
-0.0027208
-0.00276691
-0.0028056
-0.00283735
-0.00286256
-0.00288148
-0.00289411
-0.00290036
-0.0029001
-0.00289119
-0.00286878
0.000106218
3.30994e-05
-1.45716e-05
-5.00403e-05
-7.9348e-05
-0.000103513
-0.000123916
-0.000142081
-0.000159277
-0.000176553
-0.000194782
-0.0002147
-0.000236926
-0.000261999
-0.000290406
-0.000322597
-0.000359016
-0.00040011
-0.00044635
-0.000498242
-0.000556332
-0.000621219
-0.000693551
-0.000774024
-0.000863379
-0.000962384
-0.00107182
-0.00119246
-0.00132502
-0.00147017
-0.00162844
-0.00180021
-0.00198566
-0.00218472
-0.00239703
-0.00262189
-0.00285825
-0.00310469
-0.00335935
-0.00362003
-0.00388411
-0.00414864
-0.00441038
-0.00466583
-0.00491133
-0.00514314
-0.0053575
-0.00555074
-0.0057194
-0.00586028
-0.00597044
-0.00604738
-0.00608935
-0.006095
-0.00606367
-0.00599527
-0.00589044
-0.00575059
-0.00557781
-0.00537495
-0.00514553
-0.00489374
-0.00462432
-0.00434254
-0.00405404
-0.00376469
-0.00348047
-0.00320725
-0.00295062
-0.00271567
-0.00250681
-0.00232757
-0.00218046
-0.00206685
-0.00198696
-0.0019398
-0.00192331
-0.0019345
-0.0019696
-0.00202437
-0.00209431
-0.00217491
-0.00226194
-0.00235157
-0.00244053
-0.0025262
-0.00260663
-0.00268049
-0.00274701
-0.00280587
-0.00285709
-0.0029009
-0.00293763
-0.00296757
-0.00299091
-0.00300762
-0.00301757
-0.00302059
-0.0030147
-0.00299545
5.87118e-05
-1.93304e-05
-6.98305e-05
-0.000107089
-0.000137698
-0.000162845
-0.000184078
-0.000203079
-0.00022124
-0.000239708
-0.00025944
-0.000281244
-0.000305814
-0.000333767
-0.000365675
-0.00040209
-0.00044357
-0.0004907
-0.000544106
-0.000604473
-0.000672553
-0.000749168
-0.000835216
-0.000931666
-0.00103954
-0.00115992
-0.00129388
-0.0014425
-0.00160681
-0.00178772
-0.00198602
-0.00220226
-0.00243675
-0.00268948
-0.00296003
-0.00324759
-0.00355085
-0.00386804
-0.00419685
-0.00453451
-0.00487775
-0.00522289
-0.00556586
-0.00590232
-0.0062277
-0.00653734
-0.00682658
-0.00709084
-0.00732578
-0.00752734
-0.00769183
-0.00781606
-0.0078974
-0.00793407
-0.00792464
-0.00786859
-0.00776611
-0.00761825
-0.00742685
-0.00719457
-0.00692491
-0.00662217
-0.00629139
-0.0059383
-0.00556923
-0.00519098
-0.00481066
-0.00443552
-0.00407273
-0.00372916
-0.00341111
-0.00312406
-0.00287248
-0.00265959
-0.00248724
-0.00235584
-0.00226436
-0.00221045
-0.00219061
-0.00220043
-0.00223492
-0.00228878
-0.00235677
-0.00243394
-0.00251588
-0.00259884
-0.00267983
-0.00275661
-0.00282765
-0.00289202
-0.00294926
-0.00299924
-0.00304205
-0.0030778
-0.00310655
-0.0031282
-0.00314257
-0.00314942
-0.0031469
-0.00313093
-2.01845e-06
-8.48988e-05
-0.000138166
-0.000177175
-0.000209078
-0.000235239
-0.000257382
-0.000277349
-0.000296661
-0.000316565
-0.000338107
-0.000362176
-0.00038955
-0.000420939
-0.000457017
-0.000498459
-0.000545965
-0.000600286
-0.000662242
-0.000732738
-0.000812775
-0.000903455
-0.00100598
-0.00112166
-0.00125185
-0.001398
-0.00156156
-0.00174398
-0.0019466
-0.00217068
-0.00241723
-0.00268702
-0.00298046
-0.00329753
-0.00363775
-0.00400006
-0.00438282
-0.00478378
-0.00520004
-0.00562811
-0.00606393
-0.00650293
-0.0069401
-0.00737012
-0.00778742
-0.00818637
-0.00856131
-0.00890675
-0.00921743
-0.00948847
-0.0097154
-0.00989433
-0.0100219
-0.0100956
-0.0101136
-0.0100748
-0.00997889
-0.00982649
-0.00961908
-0.00935905
-0.00904973
-0.00869534
-0.00830102
-0.00787277
-0.00741741
-0.00694246
-0.00645604
-0.00596666
-0.00548308
-0.00501399
-0.00456774
-0.00415208
-0.0037738
-0.00343844
-0.00315006
-0.00291104
-0.002722
-0.00258177
-0.00248758
-0.00243523
-0.00241944
-0.00243423
-0.0024733
-0.00253044
-0.00259984
-0.00267633
-0.00275559
-0.00283416
-0.00290945
-0.00297967
-0.00304369
-0.00310085
-0.00315083
-0.0031935
-0.00322871
-0.00325624
-0.0032758
-0.00328709
-0.00328832
-0.00327576
-7.72363e-05
-0.000164846
-0.000220806
-0.00026153
-0.000294728
-0.000321952
-0.000345108
-0.000366201
-0.000386885
-0.000408511
-0.00043222
-0.000458994
-0.000489706
-0.000525174
-0.000566196
-0.000613594
-0.000668243
-0.000731094
-0.000803204
-0.000885745
-0.000980023
-0.00108748
-0.00120968
-0.00134833
-0.00150522
-0.00168221
-0.00188119
-0.00210401
-0.00235243
-0.00262799
-0.00293201
-0.00326542
-0.00362869
-0.00402176
-0.00444393
-0.00489382
-0.00536929
-0.00586745
-0.00638467
-0.00691657
-0.00745813
-0.00800374
-0.00854734
-0.00908251
-0.00960264
-0.010101
-0.0105711
-0.0110064
-0.0114008
-0.0117486
-0.0120447
-0.0122846
-0.0124642
-0.0125803
-0.012631
-0.0126144
-0.0125296
-0.012377
-0.0121575
-0.0118731
-0.0115269
-0.0111227
-0.0106657
-0.0101617
-0.00961791
-0.00904216
-0.00844331
-0.00783092
-0.00721511
-0.00660632
-0.00601498
-0.00545123
-0.00492446
-0.004443
-0.00401367
-0.00364148
-0.0033294
-0.00307818
-0.00288644
-0.00275076
-0.00266602
-0.00262579
-0.00262283
-0.00264957
-0.00269861
-0.00276308
-0.00283694
-0.00291516
-0.00299376
-0.00306975
-0.00314105
-0.00320625
-0.00326448
-0.00331518
-0.00335795
-0.00339234
-0.00341793
-0.0034343
-0.00343971
-0.00343075
-0.000168204
-0.000260403
-0.000318978
-0.000361379
-0.000395885
-0.000424241
-0.000448539
-0.000470952
-0.000493268
-0.000516951
-0.000543244
-0.00057323
-0.000607895
-0.00064818
-0.000695036
-0.00074946
-0.000812535
-0.000885456
-0.000969563
-0.00106635
-0.00117749
-0.00130483
-0.00145037
-0.00161627
-0.00180483
-0.00201839
-0.00225934
-0.00252998
-0.00283248
-0.00316873
-0.00354029
-0.0039482
-0.00439295
-0.00487429
-0.0053912
-0.00594178
-0.00652324
-0.00713188
-0.0077631
-0.00841148
-0.00907086
-0.00973449
-0.0103951
-0.0110452
-0.011677
-0.0122828
-0.012855
-0.0133865
-0.0138703
-0.0143
-0.01467
-0.0149752
-0.0152111
-0.0153742
-0.0154615
-0.0154713
-0.0154023
-0.0152541
-0.0150274
-0.0147236
-0.0143454
-0.0138961
-0.0133805
-0.0128041
-0.0121739
-0.0114979
-0.0107852
-0.010046
-0.0092914
-0.00853332
-0.00778409
-0.00705614
-0.00636164
-0.00571193
-0.0051171
-0.00458544
-0.00412305
-0.00373347
-0.00341759
-0.00317358
-0.00299716
-0.00288196
-0.00282009
-0.00280273
-0.00282074
-0.0028653
-0.0029283
-0.00300271
-0.00308272
-0.00316377
-0.00324245
-0.00331634
-0.00338378
-0.00344362
-0.00349504
-0.00353733
-0.00356985
-0.00359201
-0.00360209
-0.00359697
-0.000276169
-0.000372789
-0.000433885
-0.000477932
-0.000513771
-0.000543349
-0.000568947
-0.000592911
-0.000617166
-0.000643294
-0.00067265
-0.00070643
-0.000745749
-0.000791699
-0.000845404
-0.000908072
-0.000981035
-0.00106578
-0.00116398
-0.00127752
-0.0014085
-0.00155922
-0.00173222
-0.00193019
-0.00215598
-0.00241249
-0.00270265
-0.00302923
-0.00339483
-0.00380167
-0.00425148
-0.00474536
-0.00528364
-0.00586576
-0.00649019
-0.00715433
-0.0078545
-0.00858597
-0.009343
-0.0101189
-0.0109063
-0.0116971
-0.0124829
-0.0132549
-0.0140043
-0.0147224
-0.0154009
-0.0160318
-0.0166076
-0.0171216
-0.0175674
-0.0179398
-0.0182341
-0.0184464
-0.0185733
-0.0186129
-0.0185636
-0.0184246
-0.0181961
-0.0178791
-0.0174755
-0.0169882
-0.0164212
-0.0157795
-0.0150696
-0.0142989
-0.0134766
-0.0126128
-0.0117191
-0.0108085
-0.00989459
-0.00899193
-0.00811524
-0.00727896
-0.00649672
-0.00578062
-0.00514063
-0.00458404
-0.004115
-0.00373437
-0.00343966
-0.0032254
-0.00308363
-0.00300458
-0.00297748
-0.00299138
-0.00303575
-0.00310113
-0.00317939
-0.00326391
-0.00334953
-0.00343242
-0.00350984
-0.00357985