/*--------------------------------*- C++ -*----------------------------------*\
  =========                 |
  \\      /  F ield         | OpenFOAM: The Open Source CFD Toolbox
   \\    /   O peration     | Website:  https://openfoam.org
    \\  /    A nd           | Version:  9
     \\/     M anipulation  |
\*---------------------------------------------------------------------------*/
FoamFile
{
    format      ascii;
    class       surfaceScalarField;
    location    "1.25";
    object      phi;
}
// * * * * * * * * * * * * * * * * * * * * * * * * * * * * * * * * * * * * * //

dimensions      [0 3 -1 0 0 0 0];

internalField   nonuniform List<scalar> 
19800
(
1.3506e-10
-1.35124e-10
3.52067e-10
-2.17006e-10
5.13421e-10
-1.61353e-10
5.529e-10
-3.94834e-11
4.4897e-10
1.03925e-10
2.04213e-10
2.44753e-10
-1.6735e-10
3.71562e-10
-6.47196e-10
4.79846e-10
-1.21624e-09
5.69047e-10
-1.85704e-09
6.40796e-10
-2.55492e-09
6.97883e-10
-3.29846e-09
7.4353e-10
-4.07941e-09
7.80953e-10
-4.89253e-09
8.13124e-10
-5.73516e-09
8.42635e-10
-6.6068e-09
8.71638e-10
-7.50863e-09
9.0183e-10
-8.44311e-09
9.3448e-10
-9.41357e-09
9.70458e-10
-1.04239e-08
1.01029e-09
-1.14781e-08
1.0542e-09
-1.25802e-08
1.10216e-09
-1.37341e-08
1.1539e-09
-1.49431e-08
1.209e-09
-1.62099e-08
1.26682e-09
-1.75365e-08
1.3266e-09
-1.89239e-08
1.38743e-09
-2.03722e-08
1.44825e-09
-2.18801e-08
1.5079e-09
-2.34452e-08
1.56506e-09
-2.50635e-08
1.61831e-09
-2.67296e-08
1.66611e-09
-2.84364e-08
1.70679e-09
-3.0175e-08
1.73859e-09
-3.19347e-08
1.75969e-09
-3.37028e-08
1.76819e-09
-3.5465e-08
1.76213e-09
-3.72046e-08
1.73958e-09
-3.89032e-08
1.69864e-09
-4.05407e-08
1.63747e-09
-4.20951e-08
1.55438e-09
-4.35429e-08
1.44789e-09
-4.48597e-08
1.31675e-09
-4.60198e-08
1.16008e-09
-4.69971e-08
9.77367e-10
-4.77657e-08
7.68597e-10
-4.83e-08
5.34292e-10
-4.85756e-08
2.7561e-10
-4.85697e-08
-5.89079e-12
-4.82622e-08
-3.07498e-10
-4.76359e-08
-6.26393e-10
-4.66773e-08
-9.5856e-10
-4.53777e-08
-1.29958e-09
-4.37333e-08
-1.64439e-09
-4.17459e-08
-1.98743e-09
-3.94232e-08
-2.32273e-09
-3.67791e-08
-2.64404e-09
-3.38341e-08
-2.94501e-09
-3.06148e-08
-3.21936e-09
-2.71537e-08
-3.46107e-09
-2.34891e-08
-3.66457e-09
-1.96642e-08
-3.82493e-09
-1.57261e-08
-3.93808e-09
-1.17252e-08
-4.00091e-09
-7.71377e-09
-4.01143e-09
-3.74487e-09
-3.96889e-09
1.2898e-10
-3.87385e-09
3.85757e-09
-3.72859e-09
7.39279e-09
-3.53522e-09
1.06913e-08
-3.29852e-09
1.3715e-08
-3.02366e-09
1.64316e-08
-2.71664e-09
1.88157e-08
-2.38412e-09
2.08489e-08
-2.03311e-09
2.25196e-08
-1.67076e-09
2.38237e-08
-1.30412e-09
2.47636e-08
-9.39885e-10
2.53478e-08
-5.84218e-10
2.55904e-08
-2.42578e-10
2.551e-08
8.04187e-11
2.5129e-08
3.81054e-10
2.44724e-08
6.56578e-10
2.35672e-08
9.05153e-10
2.24414e-08
1.1258e-09
2.11232e-08
1.31826e-09
1.96403e-08
1.48287e-09
1.802e-08
1.62028e-09
1.62888e-08
1.73121e-09
1.44727e-08
1.81611e-09
1.2598e-08
1.87476e-09
1.06922e-08
1.90575e-09
8.78621e-09
1.906e-09
6.91617e-09
1.87004e-09
5.12676e-09
1.78941e-09
3.47474e-09
1.65202e-09
2.03243e-09
1.44231e-09
8.88578e-10
1.14385e-09
1.4115e-10
7.47428e-10
-1.35702e-10
2.76853e-10
-1.35699e-10
2.21266e-10
-3.56391e-10
4.81578e-10
-4.7732e-10
5.65776e-10
-2.45546e-10
3.5915e-10
1.67144e-10
-1.83935e-10
6.47007e-10
-1.06688e-09
1.1277e-09
-2.26639e-09
1.57106e-09
-3.74575e-09
1.95921e-09
-5.46412e-09
2.28742e-09
-7.38215e-09
2.55883e-09
-9.46519e-09
2.78092e-09
-1.1685e-08
2.96332e-09
-1.40202e-08
3.11617e-09
-1.64563e-08
3.24923e-09
-1.89849e-08
3.37121e-09
-2.16028e-08
3.48955e-09
-2.43112e-08
3.61023e-09
-2.71145e-08
3.73782e-09
-3.00196e-08
3.87556e-09
-3.30348e-08
4.02545e-09
-3.6169e-08
4.18842e-09
-3.94313e-08
4.36446e-09
-4.28301e-08
4.55271e-09
-4.63727e-08
4.75159e-09
-5.00647e-08
4.95887e-09
-5.39098e-08
5.17169e-09
-5.7909e-08
5.38667e-09
-6.20607e-08
5.59986e-09
-6.63596e-08
5.80686e-09
-7.07973e-08
6.00274e-09
-7.53612e-08
6.18218e-09
-8.00344e-08
6.33939e-09
-8.47959e-08
6.46823e-09
-8.96196e-08
6.56227e-09
-9.44747e-08
6.61479e-09
-9.93254e-08
6.61894e-09
-1.04131e-07
6.56784e-09
-1.08846e-07
6.45468e-09
-1.1342e-07
6.27288e-09
-1.17799e-07
6.0163e-09
-1.21924e-07
5.6794e-09
-1.25734e-07
5.25746e-09
-1.29164e-07
4.74682e-09
-1.32149e-07
4.14508e-09
-1.34623e-07
3.45136e-09
-1.36521e-07
2.66647e-09
-1.3778e-07
1.79317e-09
-1.3834e-07
8.36184e-10
-1.3815e-07
-1.96373e-10
-1.37159e-07
-1.2979e-09
-1.35331e-07
-2.4545e-09
-1.32637e-07
-3.65306e-09
-1.29059e-07
-4.87776e-09
-1.24592e-07
-6.11091e-09
-1.19246e-07
-7.33326e-09
-1.13045e-07
-8.52442e-09
-1.06025e-07
-9.66326e-09
-9.82419e-08
-1.07284e-08
-8.97623e-08
-1.1699e-08
-8.06685e-08
-1.25549e-08
-7.10554e-08
-1.32777e-08
-6.10292e-08
-1.38511e-08
-5.07058e-08
-1.42615e-08
-4.0208e-08
-1.44987e-08
-2.96635e-08
-1.45559e-08
-1.9202e-08
-1.44304e-08
-8.95236e-09
-1.41235e-08
9.60004e-10
-1.3641e-08
1.0417e-08
-1.29922e-08
1.93089e-08
-1.21904e-08
2.75377e-08
-1.12525e-08
3.50191e-08
-1.0198e-08
4.16837e-08
-9.04873e-09
4.74784e-08
-7.82782e-09
5.23668e-08
-6.55917e-09
5.63293e-08
-5.26661e-09
5.93626e-08
-3.97316e-09
6.14787e-08
-2.70032e-09
6.27037e-08
-1.46755e-09
6.30758e-08
-2.91747e-10
6.26439e-08
8.12989e-10
6.14649e-08
1.83564e-09
5.96019e-08
2.76809e-09
5.71227e-08
3.60506e-09
5.40972e-08
4.34369e-09
5.05971e-08
4.98302e-09
4.66941e-08
5.52327e-09
4.24604e-08
5.96489e-09
3.79689e-08
6.30755e-09
3.32949e-08
6.54882e-09
2.85178e-08
6.68278e-09
2.37253e-08
6.6985e-09
1.90168e-08
6.57862e-09
1.4508e-08
6.29815e-09
1.03355e-08
5.82452e-09
6.65743e-09
5.12039e-09
3.64787e-09
4.15341e-09
1.47805e-09
2.91725e-09
2.78573e-10
1.47633e-09
1.42873e-10
1.67924e-10
-5.24315e-10
2.45957e-10
-5.55358e-10
8.41088e-13
-4.31926e-13
-6.81e-10
8.48986e-10
-1.85834e-09
1.82435e-09
-3.5311e-09
2.80045e-09
-5.66805e-09
3.70801e-09
-8.22122e-09
4.51238e-09
-1.11362e-08
5.20237e-09
-1.43593e-08
5.78192e-09
-1.78424e-08
6.26402e-09
-2.15453e-08
6.6663e-09
-2.54372e-08
7.00807e-09
-2.94962e-08
7.30823e-09
-3.37091e-08
7.58403e-09
-3.80699e-08
7.85035e-09
-4.2579e-08
8.11936e-09
-4.72416e-08
8.40044e-09
-5.20664e-08
8.70034e-09
-5.70643e-08
9.02332e-09
-6.22472e-08
9.3714e-09
-6.76274e-08
9.74464e-09
-7.3216e-08
1.01413e-08
-7.90225e-08
1.05581e-08
-8.50538e-08
1.09902e-08
-9.13138e-08
1.14316e-08
-9.78021e-08
1.1875e-08
-1.04514e-07
1.2312e-08
-1.1144e-07
1.27329e-08
-1.18565e-07
1.31273e-08
-1.25866e-07
1.34837e-08
-1.33317e-07
1.37897e-08
-1.40881e-07
1.40322e-08
-1.48516e-07
1.41976e-08
-1.56173e-07
1.42719e-08
-1.63795e-07
1.42407e-08
-1.71317e-07
1.40899e-08
-1.78668e-07
1.38056e-08
-1.8577e-07
1.33746e-08
-1.92538e-07
1.27848e-08
-1.98884e-07
1.20256e-08
-2.04715e-07
1.10882e-08
-2.09934e-07
9.96614e-09
-2.14445e-07
8.65577e-09
-2.1815e-07
7.15661e-09
-2.20956e-07
5.47178e-09
-2.22771e-07
3.60831e-09
-2.23512e-07
1.57757e-09
-2.23104e-07
-6.04403e-10
-2.21482e-07
-2.91998e-09
-2.18594e-07
-5.34236e-09
-2.14404e-07
-7.84358e-09
-2.0889e-07
-1.03912e-08
-2.02052e-07
-1.29494e-08
-1.93905e-07
-1.54795e-08
-1.84489e-07
-1.79407e-08
-1.73861e-07
-2.02912e-08
-1.62101e-07
-2.2489e-08
-1.49307e-07
-2.44928e-08
-1.35598e-07
-2.62634e-08
-1.21111e-07
-2.77647e-08
-1.05998e-07
-2.89647e-08
-9.04224e-08
-2.98367e-08
-7.45609e-08
-3.03603e-08
-5.8595e-08
-3.05218e-08
-4.27102e-08
-3.03152e-08
-2.70914e-08
-2.97423e-08
-1.19194e-08
-2.88129e-08
2.63296e-09
-2.75446e-08
1.64049e-08
-2.59624e-08
2.92501e-08
-2.40976e-08
4.104e-08
-2.19879e-08
5.16664e-08
-1.96752e-08
6.1043e-08
-1.72045e-08
6.91066e-08
-1.46227e-08
7.58171e-08
-1.19772e-08
8.1158e-08
-9.31408e-09
8.5135e-08
-6.67725e-09
8.77743e-08
-4.10689e-09
8.91212e-08
-1.63867e-09
8.92373e-08
6.96929e-10
8.81978e-08
2.87513e-09
8.60891e-08
4.87677e-09
8.30061e-08
6.68813e-09
7.90495e-08
8.30026e-09
7.43245e-08
9.70801e-09
6.89391e-08
1.09087e-08
6.30037e-08
1.19003e-08
5.66317e-08
1.26796e-08
4.99408e-08
1.32397e-08
4.30557e-08
1.35679e-08
3.61114e-08
1.36427e-08
2.9258e-08
1.3432e-08
2.2664e-08
1.28922e-08
1.65197e-08
1.19688e-08
1.10363e-08
1.06037e-08
6.43913e-09
8.75063e-09
2.95047e-09
6.40591e-09
7.60073e-10
3.66673e-09
9.02946e-10
3.7039e-11
-5.61349e-10
-2.14531e-10
-3.03788e-10
-9.53611e-10
7.38644e-10
-2.29296e-09
2.18834e-09
-4.26657e-09
3.79795e-09
-6.8657e-09
5.39959e-09
-1.00496e-08
6.89186e-09
-1.37599e-08
8.22269e-09
-1.79318e-08
9.3743e-09
-2.25016e-08
1.03518e-08
-2.74119e-08
1.11743e-08
-3.26143e-08
1.18687e-08
-3.80712e-08
1.2465e-08
-4.37558e-08
1.29928e-08
-4.96512e-08
1.34794e-08
-5.57497e-08
1.39488e-08
-6.20508e-08
1.44205e-08
-6.85603e-08
1.49099e-08
-7.5288e-08
1.54281e-08
-8.22468e-08
1.59821e-08
-8.94507e-08
1.65753e-08
-9.69139e-08
1.72078e-08
-1.04649e-07
1.78768e-08
-1.12668e-07
1.85765e-08
-1.20977e-07
1.9299e-08
-1.29579e-07
2.00338e-08
-1.38472e-07
2.07684e-08
-1.47648e-07
2.14884e-08
-1.57093e-07
2.21773e-08
-1.66783e-07
2.28172e-08
-1.76687e-07
2.33883e-08
-1.86767e-07
2.38697e-08
-1.96974e-07
2.42392e-08
-2.07251e-07
2.44738e-08
-2.17529e-07
2.45499e-08
-2.27732e-07
2.44439e-08
-2.37774e-07
2.41323e-08
-2.47561e-07
2.35928e-08
-2.56991e-07
2.2804e-08
-2.65953e-07
2.17471e-08
-2.74333e-07
2.04054e-08
-2.82011e-07
1.87661e-08
-2.88865e-07
1.68201e-08
-2.94772e-07
1.45631e-08
-2.99612e-07
1.19963e-08
-3.03267e-07
9.12664e-09
-3.05626e-07
5.96759e-09
-3.06588e-07
2.53952e-09
-3.06062e-07
-1.1305e-09
-3.03971e-07
-5.01083e-09
-3.00255e-07
-9.05818e-09
-2.94873e-07
-1.32261e-08
-2.87802e-07
-1.74616e-08
-2.79045e-07
-2.17068e-08
-2.68625e-07
-2.58995e-08
-2.56591e-07
-2.99748e-08
-2.43016e-07
-3.38661e-08
-2.27998e-07
-3.75067e-08
-2.1166e-07
-4.08314e-08
-1.94145e-07
-4.37783e-08
-1.75619e-07
-4.62903e-08
-1.56267e-07
-4.83166e-08
-1.36289e-07
-4.98147e-08
-1.15898e-07
-5.07514e-08
-9.53158e-08
-5.11041e-08
-7.47691e-08
-5.08619e-08
-5.44855e-08
-5.00258e-08
-3.46891e-08
-4.86094e-08
-1.55954e-08
-4.66382e-08
2.59179e-09
-4.41496e-08
1.96857e-08
-4.11915e-08
3.55183e-08
-3.78206e-08
4.99456e-08
-3.41025e-08
6.28484e-08
-3.01072e-08
7.41345e-08
-2.59089e-08
8.37402e-08
-2.15828e-08
9.16296e-08
-1.72035e-08
9.77947e-08
-1.28423e-08
1.02254e-07
-8.5659e-09
1.05049e-07
-4.4342e-09
1.06246e-07
-4.99581e-10
1.05927e-07
3.1941e-09
1.04192e-07
6.61169e-09
1.01154e-07
9.72646e-09
9.69346e-08
1.25193e-08
9.16655e-08
1.49771e-08
8.5483e-08
1.70912e-08
7.8529e-08
1.88543e-08
7.09506e-08
2.02579e-08
6.29016e-08
2.12888e-08
5.45441e-08
2.19254e-08
4.60521e-08
2.21347e-08
3.76149e-08
2.18693e-08
2.94405e-08
2.10665e-08
2.17582e-08
1.96512e-08
1.48179e-08
1.7544e-08
8.88734e-09
1.46812e-08
4.24516e-09
1.10481e-08
1.1767e-09
6.73519e-09
2.07965e-09
-1.36977e-10
-4.24368e-10
-8.11995e-10
3.71235e-10
-2.17654e-09
2.10319e-09
-4.30213e-09
4.31393e-09
-7.20038e-09
6.69619e-09
-1.08423e-08
9.04148e-09
-1.51721e-08
1.12217e-08
-2.01198e-08
1.31704e-08
-2.56108e-08
1.48653e-08
-3.15732e-08
1.63141e-08
-3.79426e-08
1.75436e-08
-4.46651e-08
1.85913e-08
-5.16989e-08
1.94988e-08
-5.9014e-08
2.03078e-08
-6.65916e-08
2.1057e-08
-7.4423e-08
2.17803e-08
-8.25082e-08
2.25056e-08
-9.08534e-08
2.32551e-08
-9.947e-08
2.40447e-08
-1.08373e-07
2.48847e-08
-1.17577e-07
2.57798e-08
-1.271e-07
2.67303e-08
-1.36955e-07
2.77316e-08
-1.47153e-07
2.87753e-08
-1.57704e-07
2.98492e-08
-1.68607e-07
3.09375e-08
-1.7986e-07
3.20213e-08
-1.9145e-07
3.30786e-08
-2.03358e-07
3.40845e-08
-2.15552e-07
3.50118e-08
-2.27995e-07
3.58308e-08
-2.40635e-07
3.65099e-08
-2.53412e-07
3.7016e-08
-2.66253e-07
3.73147e-08
-2.79074e-07
3.73713e-08
-2.91781e-07
3.71509e-08
-3.04268e-07
3.66197e-08
-3.16421e-07
3.57452e-08
-3.28114e-07
3.44974e-08
-3.39217e-07
3.28497e-08
-3.49591e-07
3.07795e-08
-3.59095e-07
2.82697e-08
-3.67584e-07
2.53093e-08
-3.74915e-07
2.18942e-08
-3.80947e-07
1.80284e-08
-3.85545e-07
1.37243e-08
-3.8858e-07
9.00348e-09
-3.89938e-07
3.89747e-09
-3.89516e-07
-1.55282e-09
-3.87226e-07
-7.30048e-09
-3.83002e-07
-1.32823e-08
-3.76798e-07
-1.94307e-08
-3.6859e-07
-2.56698e-08
-3.5838e-07
-3.19166e-08
-3.46196e-07
-3.8083e-08
-3.32094e-07
-4.40769e-08
-3.16156e-07
-4.98042e-08
-2.98492e-07
-5.5171e-08
-2.79238e-07
-6.00854e-08
-2.58556e-07
-6.44599e-08
-2.36633e-07
-6.82138e-08
-2.13675e-07
-7.12748e-08
-1.89907e-07
-7.3582e-08
-1.65572e-07
-7.50868e-08
-1.4092e-07
-7.57555e-08
-1.16212e-07
-7.557e-08
-9.17095e-08
-7.45286e-08
-6.76717e-08
-7.26472e-08
-4.43517e-08
-6.99583e-08
-2.19905e-08
-6.65107e-08
-8.13229e-10
-6.23688e-08
1.89767e-08
-5.76106e-08
3.71986e-08
-5.23243e-08
5.36997e-08
-4.66083e-08
6.83572e-08
-4.05664e-08
8.10795e-08
-3.43051e-08
9.18072e-08
-2.79312e-08
1.00513e-07
-2.1548e-08
1.072e-07
-1.52531e-08
1.11902e-07
-9.13603e-09
1.14678e-07
-3.27606e-09
1.15614e-07
2.2587e-09
1.14813e-07
7.41214e-09
1.124e-07
1.21397e-08
1.08512e-07
1.64075e-08
1.03298e-07
2.01908e-08
9.69182e-08
2.34711e-08
8.95396e-08
2.62329e-08
8.13375e-08
2.84599e-08
7.24958e-08
3.01305e-08
6.32078e-08
3.12134e-08
5.36794e-08
3.16631e-08
4.41318e-08
3.14169e-08
3.48046e-08
3.03937e-08
2.59587e-08
2.84971e-08
1.78784e-08
2.56243e-08
1.08738e-08
2.16859e-08
5.28562e-09
1.66363e-08
1.50003e-09
1.05208e-08
3.57969e-09
-3.32531e-10
-9.1836e-11
-1.49527e-09
1.53397e-09
-3.57233e-09
4.18025e-09
-6.58526e-09
7.32686e-09
-1.051e-08
1.06209e-08
-1.52907e-08
1.38222e-08
-2.0852e-08
1.6783e-08
-2.71093e-08
1.94278e-08
-3.39777e-08
2.17336e-08
-4.13774e-08
2.37138e-08
-4.92386e-08
2.54048e-08
-5.75036e-08
2.68563e-08
-6.61279e-08
2.81232e-08
-7.50803e-08
2.92602e-08
-8.43418e-08
3.03185e-08
-9.3904e-08
3.13425e-08
-1.03768e-07
3.23697e-08
-1.13942e-07
3.34291e-08
-1.24439e-07
3.4542e-08
-1.35277e-07
3.57221e-08
-1.46473e-07
3.69757e-08
-1.58045e-07
3.83028e-08
-1.7001e-07
3.96969e-08
-1.82381e-07
4.11461e-08
-1.95165e-07
4.26332e-08
-2.08363e-07
4.41361e-08
-2.2197e-07
4.56281e-08
-2.3597e-07
4.70784e-08
-2.50338e-07
4.84521e-08
-2.65037e-07
4.97111e-08
-2.8002e-07
5.08137e-08
-2.95226e-07
5.17162e-08
-3.10583e-07
5.23726e-08
-3.26004e-07
5.27356e-08
-3.4139e-07
5.27576e-08
-3.5663e-07
5.23914e-08
-3.71602e-07
5.15912e-08
-3.8617e-07
5.03137e-08
-4.00192e-07
4.85193e-08
-4.13516e-07
4.61735e-08
-4.25984e-07
4.32476e-08
-4.37435e-07
3.97205e-08
-4.47705e-07
3.55796e-08
-4.56633e-07
3.08219e-08
-4.64059e-07
2.54551e-08
-4.69834e-07
1.94984e-08
-4.73813e-07
1.29828e-08
-4.75868e-07
5.95238e-09
-4.75885e-07
-1.53535e-09
-4.73767e-07
-9.41925e-09
-4.69437e-07
-1.76121e-08
-4.62843e-07
-2.60243e-08
-4.53958e-07
-3.45551e-08
-4.4278e-07
-4.30948e-08
-4.29336e-07
-5.15271e-08
-4.13682e-07
-5.97309e-08
-3.95903e-07
-6.75827e-08
-3.76115e-07
-7.4959e-08
-3.54462e-07
-8.17387e-08
-3.31115e-07
-8.78064e-08
-3.06274e-07
-9.30548e-08
-2.80161e-07
-9.73875e-08
-2.53021e-07
-1.00722e-07
-2.25117e-07
-1.02991e-07
-1.96725e-07
-1.04148e-07
-1.68132e-07
-1.04163e-07
-1.39631e-07
-1.0303e-07
-1.11514e-07
-1.00764e-07
-8.40679e-08
-9.74039e-08
-5.75713e-08
-9.30073e-08
-3.22857e-08
-8.76544e-08
-8.45323e-09
-8.1443e-08
1.37093e-08
-7.44868e-08
3.40131e-08
-6.69121e-08
5.23011e-08
-5.88544e-08
6.84505e-08
-5.04545e-08
8.23736e-08
-4.18543e-08
9.40189e-08
-3.31933e-08
1.0337e-07
-2.46045e-08
1.10446e-07
-1.62115e-08
1.15295e-07
-8.12571e-09
1.17999e-07
-4.44625e-10
1.18661e-07
6.74972e-09
1.17411e-07
1.33898e-08
1.14396e-07
1.94226e-08
1.0978e-07
2.48072e-08
1.03739e-07
2.95116e-08
9.64632e-08
3.35088e-08
8.81508e-08
3.67723e-08
7.9011e-08
3.92703e-08
6.9264e-08
4.09604e-08
5.91431e-08
4.17841e-08
4.88967e-08
4.16633e-08
3.87922e-08
4.04982e-08
2.91197e-08
3.81696e-08
2.01969e-08
3.45471e-08
1.23773e-08
2.95054e-08
6.06377e-09
2.29498e-08
1.7339e-09
1.48507e-08
5.31359e-09
-5.41177e-10
4.4934e-10
-2.23336e-09
3.22615e-09
-5.08488e-09
7.03177e-09
-9.05976e-09
1.13017e-08
-1.40899e-08
1.56511e-08
-2.00865e-08
1.98188e-08
-2.695e-08
2.36465e-08
-3.45787e-08
2.70566e-08
-4.28758e-08
3.00307e-08
-5.17536e-08
3.25916e-08
-6.11373e-08
3.47886e-08
-7.09666e-08
3.66856e-08
-8.11959e-08
3.83525e-08
-9.17942e-08
3.98585e-08
-1.02744e-07
4.12679e-08
-1.14038e-07
4.26368e-08
-1.25681e-07
4.40123e-08
-1.37683e-07
4.54311e-08
-1.50061e-07
4.69201e-08
-1.62835e-07
4.84962e-08
-1.76027e-07
5.01676e-08
-1.89657e-07
5.19333e-08
-2.03745e-07
5.37848e-08
-2.18305e-07
5.5706e-08
-2.33346e-07
5.76737e-08
-2.48868e-07
5.96586e-08
-2.64865e-07
6.16248e-08
-2.81318e-07
6.35314e-08
-2.98197e-07
6.53318e-08
-3.15462e-07
6.69753e-08
-3.33055e-07
6.84069e-08
-3.50907e-07
6.95687e-08
-3.68935e-07
7.04003e-08
-3.8704e-07
7.08401e-08
-4.05108e-07
7.0826e-08
-4.23014e-07
7.02972e-08
-4.40617e-07
6.91948e-08
-4.57768e-07
6.74641e-08
-4.74304e-07
6.50551e-08
-4.90055e-07
6.1925e-08
-5.04847e-07
5.8039e-08
-5.18498e-07
5.3372e-08
-5.30829e-07
4.79101e-08
-5.41659e-07
4.1652e-08
-5.50813e-07
3.46096e-08
-5.58124e-07
2.68094e-08
-5.63434e-07
1.82929e-08
-5.66599e-07
9.11687e-09
-5.67494e-07
-6.40442e-10
-5.66003e-07
-1.09095e-08
-5.62044e-07
-2.15719e-08
-5.5555e-07
-3.25176e-08
-5.46486e-07
-4.36193e-08
-5.34841e-07
-5.47396e-08
-5.20636e-07
-6.57327e-08
-5.0392e-07
-7.64467e-08
-4.84776e-07
-8.67268e-08
-4.63317e-07
-9.64175e-08
-4.3969e-07
-1.05366e-07
-4.14069e-07
-1.13427e-07
-3.86662e-07
-1.20462e-07
-3.57701e-07
-1.26349e-07
-3.27445e-07
-1.30978e-07
-2.96175e-07
-1.34261e-07
-2.64189e-07
-1.36133e-07
-2.31801e-07
-1.36551e-07
-1.99333e-07
-1.35499e-07
-1.67108e-07
-1.32989e-07
-1.35451e-07
-1.29061e-07
-1.04677e-07
-1.23781e-07
-7.50881e-08
-1.17244e-07
-4.69662e-08
-1.09565e-07
-2.05696e-08
-1.00883e-07
3.87325e-09
-9.13549e-08
2.6167e-08
-8.11481e-08
4.61526e-08
-7.04401e-08
6.37099e-08
-5.94116e-08
7.87582e-08
-4.82416e-08
9.12571e-08
-3.71034e-08
1.01205e-07
-2.61595e-08
1.08638e-07
-1.55585e-08
1.13626e-07
-5.43251e-09
1.16271e-07
4.10479e-09
1.16702e-07
1.29583e-08
1.15074e-07
2.10506e-08
1.11561e-07
2.83201e-08
1.06355e-07
3.47176e-08
9.96628e-08
4.02014e-08
9.17033e-08
4.47318e-08
8.27087e-08
4.82649e-08
7.29231e-08
5.07459e-08
6.26044e-08
5.21028e-08
5.20265e-08
5.22412e-08
4.14832e-08
5.10415e-08
3.12932e-08
4.83596e-08
2.18079e-08
4.40324e-08
1.34235e-08
3.78899e-08
6.59972e-09
2.97736e-08
1.89026e-09
1.95601e-08
7.20385e-09
-7.58863e-10
1.2082e-09
-3.00855e-09
5.47584e-09
-6.67902e-09
1.07022e-08
-1.16709e-08
1.62936e-08
-1.78666e-08
2.18467e-08
-2.51393e-08
2.70915e-08
-3.33617e-08
3.18689e-08
-4.24125e-08
3.61073e-08
-5.21812e-08
3.97994e-08
-6.2572e-08
4.29824e-08
-7.35055e-08
4.5722e-08
-8.49192e-08
4.80993e-08
-9.67679e-08
5.02012e-08
-1.09022e-07
5.21128e-08
-1.21667e-07
5.39125e-08
-1.34699e-07
5.56691e-08
-1.48126e-07
5.74396e-08
-1.61964e-07
5.9269e-08
-1.76234e-07
6.11898e-08
-1.9096e-07
6.32226e-08
-2.06169e-07
6.53765e-08
-2.21886e-07
6.76501e-08
-2.38133e-07
7.00318e-08
-2.54928e-07
7.25007e-08
-2.72281e-07
7.50268e-08
-2.90195e-07
7.75721e-08
-3.08661e-07
8.00908e-08
-3.27659e-07
8.25298e-08
-3.47157e-07
8.48297e-08
-3.67107e-07
8.69254e-08
-3.87447e-07
8.87469e-08
-4.08099e-07
9.02205e-08
-4.28968e-07
9.12698e-08
-4.49945e-07
9.18172e-08
-4.70904e-07
9.17849e-08
-4.91704e-07
9.10971e-08
-5.1219e-07
8.96811e-08
-5.32196e-07
8.74695e-08
-5.51542e-07
8.44016e-08
-5.70043e-07
8.04256e-08
-5.87504e-07
7.55002e-08
-6.03729e-07
6.95963e-08
-6.18517e-07
6.26986e-08
-6.31672e-07
5.48072e-08
-6.43001e-07
4.59387e-08
-6.52319e-07
3.61268e-08
-6.59449e-07
2.54235e-08
-6.64232e-07
1.38991e-08
-6.66521e-07
1.64863e-09
-6.6619e-07
-1.12396e-08
-6.63136e-07
-2.46267e-08
-6.57277e-07
-3.83765e-08
-6.48561e-07
-5.23353e-08
-6.36963e-07
-6.63369e-08
-6.22491e-07
-8.02048e-08
-6.05183e-07
-9.3755e-08
-5.85111e-07
-1.06799e-07
-5.62381e-07
-1.19148e-07
-5.37133e-07
-1.30613e-07
-5.09544e-07
-1.41016e-07
-4.79821e-07
-1.50185e-07
-4.48205e-07
-1.57965e-07
-4.14965e-07
-1.64218e-07
-3.80398e-07
-1.68828e-07
-3.44824e-07
-1.71707e-07
-3.08581e-07
-1.72793e-07
-2.72022e-07
-1.72058e-07
-2.35507e-07
-1.69504e-07
-1.99397e-07
-1.65171e-07
-1.64049e-07
-1.59129e-07
-1.2981e-07
-1.51482e-07
-9.70085e-08
-1.42367e-07
-6.59477e-08
-1.31944e-07
-3.69024e-08
-1.204e-07
-1.01121e-08
-1.07938e-07
1.42225e-08
-9.47748e-08
3.5943e-08
-8.11321e-08
5.49342e-08
-6.72329e-08
7.11268e-08
-5.3296e-08
8.44952e-08
-3.95279e-08
9.50566e-08
-2.612e-08
1.02869e-07
-1.32448e-08
1.08027e-07
-1.05337e-09
1.10659e-07
1.0326e-08
1.10924e-07
2.07863e-08
1.09003e-07
3.02408e-08
1.05102e-07
3.86185e-08
9.94441e-08
4.58595e-08
9.22676e-08
5.19083e-08
8.38257e-08
5.67068e-08
7.43854e-08
6.01863e-08
6.42285e-08
6.22598e-08
5.36538e-08
6.28158e-08
4.29816e-08
6.17137e-08
3.25597e-08
5.87815e-08
2.27729e-08
5.38192e-08
1.40576e-08
4.66051e-08
6.92324e-09
3.6908e-08
1.98196e-09
2.45014e-08
9.18582e-09
-9.82848e-10
2.19105e-09
-3.81049e-09
8.30347e-09
-8.33231e-09
1.52241e-08
-1.43821e-08
2.23434e-08
-2.17884e-08
2.92531e-08
-3.03833e-08
3.56864e-08
-4.00086e-08
4.14942e-08
-5.05212e-08
4.66199e-08
-6.17961e-08
5.10744e-08
-7.37287e-08
5.49149e-08
-8.62349e-08
5.82282e-08
-9.92512e-08
6.11157e-08
-1.12734e-07
6.36836e-08
-1.26656e-07
6.60347e-08
-1.41006e-07
6.82631e-08
-1.55788e-07
7.04507e-08
-1.71014e-07
7.26655e-08
-1.86705e-07
7.49607e-08
-2.0289e-07
7.73749e-08
-2.196e-07
7.99321e-08
-2.36866e-07
8.26426e-08
-2.5472e-07
8.55038e-08
-2.73189e-07
8.85005e-08
-2.92294e-07
9.16062e-08
-3.1205e-07
9.47831e-08
-3.32462e-07
9.79834e-08
-3.5352e-07
1.0115e-07
-3.75206e-07
1.04215e-07
-3.97483e-07
1.07107e-07
-4.20299e-07
1.09742e-07
-4.43588e-07
1.12035e-07
-4.67262e-07
1.13895e-07
-4.91219e-07
1.15227e-07
-5.15338e-07
1.15936e-07
-5.39481e-07
1.15928e-07
-5.63493e-07
1.15109e-07
-5.87206e-07
1.13394e-07
-6.10436e-07
1.107e-07
-6.32989e-07
1.06955e-07
-6.54661e-07
1.02097e-07
-6.7524e-07
9.6079e-08
-6.94509e-07
8.88661e-08
-7.12252e-07
8.04415e-08
-7.28251e-07
7.0806e-08
-7.42293e-07
5.99803e-08
-7.54171e-07
4.80051e-08
-7.6369e-07
3.49424e-08
-7.70667e-07
2.08757e-08
-7.74931e-07
5.91304e-09
-7.76342e-07
-9.82876e-09
-7.74766e-07
-2.62022e-08
-7.70104e-07
-4.30393e-08
-7.62279e-07
-6.01598e-08
-7.51248e-07
-7.73681e-08
-7.36997e-07
-9.44561e-08
-7.19546e-07
-1.11206e-07
-6.98952e-07
-1.27393e-07
-6.75307e-07
-1.42792e-07
-6.48743e-07
-1.57178e-07
-6.19428e-07
-1.70331e-07
-5.87569e-07
-1.82044e-07
-5.53411e-07
-1.92124e-07
-5.1723e-07
-2.00398e-07
-4.7934e-07
-2.06719e-07
-4.4008e-07
-2.10967e-07
-3.99814e-07
-2.13059e-07
-3.58929e-07
-2.12944e-07
-3.1782e-07
-2.10613e-07
-2.76894e-07
-2.06097e-07
-2.36553e-07
-1.99469e-07
-1.97195e-07
-1.9084e-07
-1.592e-07
-1.80362e-07
-1.22925e-07
-1.68219e-07
-8.86986e-08
-1.54627e-07
-5.68112e-08
-1.39826e-07
-2.75129e-08
-1.24073e-07
-1.00753e-09
-1.07637e-07
2.25507e-08
-9.07911e-08
4.3056e-08
-7.38013e-08
6.04539e-08
-5.69258e-08
7.47395e-08
-4.04055e-08
8.59543e-08
-2.44596e-08
9.41838e-08
-9.28283e-09
9.95531e-08
4.95673e-09
1.02222e-07
1.81172e-08
1.02382e-07
3.00812e-08
1.00249e-07
4.07516e-08
9.60617e-08
5.00464e-08
9.00788e-08
5.78912e-08
8.25744e-08
6.42113e-08
7.38384e-08
6.89222e-08
6.41773e-08
7.19209e-08
5.39157e-08
7.30774e-08
4.34012e-08
7.22282e-08
3.30111e-08
6.91716e-08
2.31633e-08
6.3667e-08
1.43311e-08
5.54372e-08
7.06506e-09
4.41741e-08
2.0204e-09
2.95461e-08
1.12062e-08
-1.21188e-09
3.40293e-09
-4.63295e-09
1.17245e-08
-1.00302e-08
2.06214e-08
-1.7168e-08
2.94812e-08
-2.58186e-08
3.79036e-08
-3.57699e-08
4.56377e-08
-4.68311e-08
5.25554e-08
-5.88357e-08
5.86245e-08
-7.16434e-08
6.3882e-08
-8.51402e-08
6.84118e-08
-9.92381e-08
7.23261e-08
-1.13873e-07
7.57507e-08
-1.29004e-07
7.8814e-08
-1.44607e-07
8.16383e-08
-1.60679e-07
8.43348e-08
-1.77228e-07
8.69997e-08
-1.94275e-07
8.97126e-08
-2.1185e-07
9.25356e-08
-2.29988e-07
9.55133e-08
-2.48729e-07
9.86732e-08
-2.68113e-07
1.02027e-07
-2.88178e-07
1.05569e-07
-3.08959e-07
1.09281e-07
-3.30483e-07
1.1313e-07
-3.52769e-07
1.17069e-07
-3.75824e-07
1.21039e-07
-3.99644e-07
1.24969e-07
-4.24207e-07
1.28778e-07
-4.49476e-07
1.32376e-07
-4.75397e-07
1.35663e-07
-5.01897e-07
1.38535e-07
-5.28883e-07
1.40881e-07
-5.56243e-07
1.42587e-07
-5.83845e-07
1.43539e-07
-6.11541e-07
1.43624e-07
-6.39163e-07
1.42731e-07
-6.66526e-07
1.40757e-07
-6.93432e-07
1.37606e-07
-7.19669e-07
1.33192e-07
-7.45015e-07
1.27443e-07
-7.69239e-07
1.20303e-07
-7.92103e-07
1.11731e-07
-8.1337e-07
1.01708e-07
-8.32799e-07
9.0235e-08
-8.50154e-07
7.73349e-08
-8.65203e-07
6.30547e-08
-8.77726e-07
4.74654e-08
-8.87513e-07
3.06625e-08
-8.94368e-07
1.27681e-08
-8.98127e-07
-6.06979e-09
-8.98619e-07
-2.57101e-08
-8.95721e-07
-4.59376e-08
-8.89331e-07
-6.655e-08
-8.79377e-07
-8.73222e-08
-8.6582e-07
-1.08013e-07
-8.48657e-07
-1.28369e-07
-8.27923e-07
-1.48128e-07
-8.03692e-07
-1.67023e-07
-7.7608e-07
-1.84789e-07
-7.45246e-07
-2.01165e-07
-7.1139e-07
-2.15899e-07
-6.74757e-07
-2.28757e-07
-6.35632e-07
-2.39524e-07
-5.94337e-07
-2.48013e-07
-5.51234e-07
-2.5407e-07
-5.06714e-07
-2.57578e-07
-4.61196e-07
-2.58462e-07
-4.15117e-07
-2.56691e-07
-3.68931e-07
-2.52284e-07
-3.23092e-07
-2.45308e-07
-2.78054e-07
-2.35878e-07
-2.34259e-07
-2.24158e-07
-1.92124e-07
-2.10354e-07
-1.52039e-07
-1.94711e-07
-1.14357e-07
-1.77508e-07
-7.93857e-08
-1.59045e-07
-4.73818e-08
-1.39641e-07
-1.85495e-08
-1.19623e-07
6.96449e-09
-9.93153e-08
2.90706e-08
-7.90319e-08
4.77358e-08
-5.90707e-08
6.29818e-08
-3.97057e-08
7.48816e-08
-2.11825e-08
8.35546e-08
-3.71631e-09
8.91623e-08
1.25096e-08
9.19025e-08
2.7341e-08
9.20042e-08
4.06499e-08
8.97229e-08
5.23277e-08
8.53363e-08
6.22778e-08
7.91416e-08
7.0406e-08
7.14534e-08
7.66104e-08
6.26043e-08
8.077e-08
5.29465e-08
8.27353e-08
4.28563e-08
8.23184e-08
3.27414e-08
7.92864e-08
2.30518e-08
7.33566e-08
1.42946e-08
6.41944e-08
7.05396e-09
5.14147e-08
2.01533e-09
3.45847e-08
1.32216e-08
-1.44534e-09
4.84827e-09
-5.47201e-09
1.57512e-08
-1.1763e-08
2.69123e-08
-2.0011e-08
3.77292e-08
-2.99301e-08
4.78227e-08
-4.12625e-08
5.69701e-08
-5.37833e-08
6.50761e-08
-6.73017e-08
7.21429e-08
-8.16615e-08
7.82419e-08
-9.67399e-08
8.34902e-08
-1.12445e-07
8.80312e-08
-1.28713e-07
9.2019e-08
-1.45507e-07
9.56072e-08
-1.62808e-07
9.89401e-08
-1.80621e-07
1.02148e-07
-1.98963e-07
1.05341e-07
-2.17864e-07
1.08614e-07
-2.37364e-07
1.12036e-07
-2.57509e-07
1.15658e-07
-2.78348e-07
1.19513e-07
-2.99932e-07
1.2361e-07
-3.22308e-07
1.27945e-07
-3.4552e-07
1.32493e-07
-3.69602e-07
1.37212e-07
-3.94579e-07
1.42047e-07
-4.20464e-07
1.46924e-07
-4.47255e-07
1.5176e-07
-4.74932e-07
1.56455e-07
-5.03457e-07
1.60901e-07
-5.32773e-07
1.6498e-07
-5.62803e-07
1.68565e-07
-5.93447e-07
1.71524e-07
-6.24584e-07
1.73724e-07
-6.56075e-07
1.75029e-07
-6.87756e-07
1.75305e-07
-7.19446e-07
1.74421e-07
-7.50947e-07
1.72257e-07
-7.82041e-07
1.687e-07
-8.12499e-07
1.6365e-07
-8.42077e-07
1.57022e-07
-8.70525e-07
1.4875e-07
-8.97581e-07
1.38787e-07
-9.22981e-07
1.27109e-07
-9.46461e-07
1.13715e-07
-9.67756e-07
9.86297e-08
-9.86606e-07
8.19054e-08
-1.00276e-06
6.36208e-08
-1.01598e-06
4.38822e-08
-1.02603e-06
2.28199e-08
-1.03275e-06
6.42493e-10
-1.03588e-06
-2.25796e-08
-1.03529e-06
-4.65188e-08
-1.03086e-06
-7.09821e-08
-1.02248e-06
-9.57088e-08
-1.01007e-06
-1.20423e-07
-9.93602e-07
-1.44833e-07
-9.73091e-07
-1.68638e-07
-9.48585e-07
-1.91529e-07
-9.20182e-07
-2.13193e-07
-8.88023e-07
-2.33323e-07
-8.52301e-07
-2.51621e-07
-8.13255e-07
-2.67803e-07
-7.71172e-07
-2.81607e-07
-7.26386e-07
-2.92799e-07
-6.79274e-07
-3.01182e-07
-6.30254e-07
-3.06599e-07
-5.79778e-07
-3.08938e-07
-5.28327e-07
-3.08142e-07
-4.76403e-07
-3.04208e-07
-4.24519e-07
-2.97191e-07
-3.73192e-07
-2.87205e-07
-3.2293e-07
-2.7442e-07
-2.74222e-07
-2.59061e-07
-2.27531e-07
-2.41402e-07
-1.83281e-07
-2.21759e-07
-1.41846e-07
-2.00479e-07
-1.0355e-07
-1.77938e-07
-6.8654e-08
-1.54519e-07
-3.73571e-08
-1.30612e-07
-9.79152e-09
-1.06597e-07
1.39755e-08
-8.28377e-08
3.39404e-08
-5.96706e-08
5.01597e-08
-3.74018e-08
6.27451e-08
-1.63017e-08
7.18581e-08
3.39655e-09
7.77034e-08
2.14958e-08
8.05229e-08
3.78303e-08
8.05902e-08
5.22605e-08
7.82047e-08
6.46633e-08
7.36885e-08
7.49222e-08
6.73835e-08
8.29153e-08
5.9651e-08
8.85026e-08
5.08729e-08
9.15133e-08
4.14565e-08
9.17348e-08
3.1841e-08
8.89019e-08
2.25081e-08
8.26895e-08
1.39958e-08
7.27067e-08
6.91612e-09
5.84945e-08
1.97519e-09
3.95256e-08
1.51967e-08
-1.68279e-09
6.53106e-09
-6.3249e-09
2.03933e-08
-1.35233e-08
3.41108e-08
-2.28977e-08
4.71036e-08
-3.41023e-08
5.90273e-08
-4.68327e-08
6.97006e-08
-6.0829e-08
7.90724e-08
-7.58758e-08
8.71898e-08
-9.18014e-08
9.41674e-08
-1.08474e-07
1.00163e-07
-1.25799e-07
1.05356e-07
-1.43714e-07
1.09934e-07
-1.62186e-07
1.14079e-07
-1.81206e-07
1.1796e-07
-2.00785e-07
1.21727e-07
-2.20953e-07
1.25509e-07
-2.41751e-07
1.29412e-07
-2.63231e-07
1.33516e-07
-2.85452e-07
1.37879e-07
-3.08475e-07
1.42536e-07
-3.32363e-07
1.47498e-07
-3.57175e-07
1.52757e-07
-3.82964e-07
1.58282e-07
-4.09775e-07
1.64023e-07
-4.3764e-07
1.69911e-07
-4.66577e-07
1.75861e-07
-4.96588e-07
1.81771e-07
-5.27656e-07
1.87523e-07
-5.59744e-07
1.92988e-07
-5.92791e-07
1.98027e-07
-6.26715e-07
2.02489e-07
-6.61411e-07
2.0622e-07
-6.96749e-07
2.09063e-07
-7.32577e-07
2.10857e-07
-7.6872e-07
2.11448e-07
-8.04982e-07
2.10683e-07
-8.41145e-07
2.08421e-07
-8.76975e-07
2.0453e-07
-9.12219e-07
1.98895e-07
-9.46614e-07
1.91416e-07
-9.7988e-07
1.82016e-07
-1.01173e-06
1.70639e-07
-1.04188e-06
1.57254e-07
-1.07002e-06
1.41858e-07
-1.09587e-06
1.24477e-07
-1.11913e-06
1.05165e-07
-1.13951e-06
8.40078e-08
-1.15676e-06
6.11229e-08
-1.1706e-06
3.66598e-08
-1.18076e-06
1.08071e-08
-1.18708e-06
-1.62549e-08
-1.18933e-06
-4.42703e-08
-1.18734e-06
-7.2972e-08
-1.18098e-06
-1.02072e-07
-1.17014e-06
-1.31262e-07
-1.15476e-06
-1.6021e-07
-1.13483e-06
-1.88574e-07
-1.11036e-06
-2.15998e-07
-1.08143e-06
-2.42124e-07
-1.04816e-06
-2.66593e-07
-1.01073e-06
-2.89053e-07
-9.69363e-07
-3.09168e-07
-9.2435e-07
-3.2662e-07
-8.76026e-07
-3.41123e-07
-8.24782e-07
-3.52426e-07
-7.71058e-07
-3.60323e-07
-7.15337e-07
-3.64659e-07
-6.58142e-07
-3.65337e-07
-6.00025e-07
-3.62325e-07
-5.4156e-07
-3.55657e-07
-4.83331e-07
-3.45434e-07
-4.25921e-07
-3.3183e-07
-3.69901e-07
-3.15081e-07
-3.15815e-07
-2.95488e-07
-2.64169e-07
-2.73404e-07
-2.15422e-07
-2.49227e-07
-1.69972e-07
-2.23387e-07
-1.28153e-07
-1.96338e-07
-9.0226e-08
-1.68539e-07
-5.6377e-08
-1.40446e-07
-2.67165e-08
-1.12498e-07
-1.28042e-09
-8.51067e-08
1.99662e-08
-5.86485e-08
3.71236e-08
-3.34591e-08
5.03511e-08