/*--------------------------------*- C++ -*----------------------------------*\
  =========                 |
  \\      /  F ield         | OpenFOAM: The Open Source CFD Toolbox
   \\    /   O peration     | Website:  https://openfoam.org
    \\  /    A nd           | Version:  9
     \\/     M anipulation  |
\*---------------------------------------------------------------------------*/
FoamFile
{
    format      ascii;
    class       volVectorField;
    location    "1.25";
    object      U;
}
// * * * * * * * * * * * * * * * * * * * * * * * * * * * * * * * * * * * * * //

dimensions      [0 1 -1 0 0 0 0];

internalField   nonuniform List<vector> 
10000
(
(6.19987e-06 -6.1436e-06 0)
(2.43302e-05 -1.07035e-05 0)
(4.5125e-05 -9.34662e-06 0)
(5.62128e-05 -5.27405e-06 0)
(5.32338e-05 -5.09393e-07 0)
(3.56655e-05 4.05024e-06 0)
(4.5319e-06 7.99313e-06 0)
(-3.84315e-05 1.12142e-05 0)
(-9.12668e-05 1.37424e-05 0)
(-0.000152107 1.56691e-05 0)
(-0.000219331 1.71148e-05 0)
(-0.000291625 1.82035e-05 0)
(-0.000368008 1.90508e-05 0)
(-0.00044781 1.9758e-05 0)
(-0.000530643 2.04098e-05 0)
(-0.00061636 2.10742e-05 0)
(-0.000705002 2.18026e-05 0)
(-0.000796761 2.26321e-05 0)
(-0.000891935 2.35871e-05 0)
(-0.000990891 2.46811e-05 0)
(-0.00109403 2.59188e-05 0)
(-0.00120177 2.72977e-05 0)
(-0.00131449 2.88091e-05 0)
(-0.00143258 3.04394e-05 0)
(-0.00155632 3.21705e-05 0)
(-0.00168597 3.39805e-05 0)
(-0.00182166 3.58439e-05 0)
(-0.00196347 3.77315e-05 0)
(-0.00211133 3.9611e-05 0)
(-0.00226506 4.14464e-05 0)
(-0.00242435 4.31982e-05 0)
(-0.00258873 4.48232e-05 0)
(-0.00275757 4.62749e-05 0)
(-0.00293008 4.7503e-05 0)
(-0.00310528 4.84543e-05 0)
(-0.00328199 4.90726e-05 0)
(-0.00345888 4.92995e-05 0)
(-0.00363438 4.9075e-05 0)
(-0.00380674 4.83385e-05 0)
(-0.00397404 4.70305e-05 0)
(-0.00413415 4.50936e-05 0)
(-0.00428482 4.24746e-05 0)
(-0.00442362 3.91271e-05 0)
(-0.00454805 3.5013e-05 0)
(-0.0046555 3.01053e-05 0)
(-0.00474338 2.43909e-05 0)
(-0.00480907 1.7874e-05 0)
(-0.00485008 1.05805e-05 0)
(-0.00486403 2.55689e-06 0)
(-0.00484876 -6.17036e-06 0)
(-0.00480238 -1.54805e-05 0)
(-0.00472336 -2.52633e-05 0)
(-0.00461057 -3.53871e-05 0)
(-0.00446337 -4.56966e-05 0)
(-0.00428165 -5.60167e-05 0)
(-0.00406587 -6.61562e-05 0)
(-0.00381714 -7.59125e-05 0)
(-0.00353715 -8.50773e-05 0)
(-0.00322826 -9.34427e-05 0)
(-0.00289345 -0.000100808 0)
(-0.00253626 -0.000106986 0)
(-0.00216079 -0.000111812 0)
(-0.00177156 -0.000115149 0)
(-0.00137348 -0.000116892 0)
(-0.0009717 -0.000116978 0)
(-0.000571515 -0.000115383 0)
(-0.000178198 -0.000112132 0)
(0.00020302 -0.00010732 0)
(0.000567194 -0.000100997 0)
(0.000909799 -9.3347e-05 0)
(0.00122671 -8.45496e-05 0)
(0.0015144 -7.481e-05 0)
(0.00176996 -6.43544e-05 0)
(0.0019912 -5.34178e-05 0)
(0.00217661 -4.22369e-05 0)
(0.00232542 -3.10405e-05 0)
(0.00243755 -2.0042e-05 0)
(0.00251355 -9.43291e-06 0)
(0.00255457 6.22699e-07 0)
(0.00256226 9.99166e-06 0)
(0.00253869 1.8574e-05 0)
(0.00248625 2.63035e-05 0)
(0.00240756 3.31458e-05 0)
(0.0023054 3.90955e-05 0)
(0.00218256 4.41722e-05 0)
(0.00204188 4.8414e-05 0)
(0.00188609 5.18707e-05 0)
(0.0017179 5.45933e-05 0)
(0.0015399 5.66229e-05 0)
(0.0013547 5.7976e-05 0)
(0.00116496 5.86262e-05 0)
(0.000973573 5.84803e-05 0)
(0.000783824 5.73478e-05 0)
(0.000599703 5.48998e-05 0)
(0.000426235 5.06207e-05 0)
(0.000269884 4.37735e-05 0)
(0.00013877 3.3471e-05 0)
(4.21311e-05 1.90338e-05 0)
(-1.02224e-05 1.32291e-06 0)
(-1.20331e-05 -1.20378e-05 0)
(1.10278e-05 -2.44918e-05 0)
(3.70981e-05 -3.66206e-05 0)
(5.79242e-05 -2.5548e-05 0)
(5.39277e-05 -2.90576e-06 0)
(1.70042e-05 2.36908e-05 0)
(-5.45859e-05 5.0129e-05 0)
(-0.000159445 7.41898e-05 0)
(-0.000294311 9.49359e-05 0)
(-0.000455152 0.000112191 0)
(-0.000637855 0.000126208 0)
(-0.000838662 0.00013747 0)
(-0.0010544 0.000146557 0)
(-0.00128259 0.000154061 0)
(-0.00152143 0.000160536 0)
(-0.00176981 0.000166469 0)
(-0.00202717 0.000172268 0)
(-0.00229342 0.00017826 0)
(-0.00256888 0.000184687 0)
(-0.00285413 0.00019172 0)
(-0.00314994 0.000199462 0)
(-0.0034572 0.00020796 0)
(-0.00377682 0.00021721 0)
(-0.0041097 0.000227164 0)
(-0.00445662 0.000237737 0)
(-0.00481824 0.000248813 0)
(-0.00519505 0.000260242 0)
(-0.00558729 0.000271848 0)
(-0.00599492 0.000283429 0)
(-0.00641763 0.000294755 0)
(-0.00685473 0.000305573 0)
(-0.00730517 0.000315607 0)
(-0.0077675 0.000324557 0)
(-0.00823982 0.000332103 0)
(-0.00871978 0.000337906 0)
(-0.00920454 0.000341613 0)
(-0.00969077 0.000342858 0)
(-0.0101746 0.00034127 0)
(-0.0106519 0.00033648 0)
(-0.0111176 0.000328126 0)
(-0.0115666 0.000315864 0)
(-0.0119933 0.000299377 0)
(-0.0123915 0.000278389 0)
(-0.0127551 0.000252675 0)
(-0.0130774 0.000222076 0)
(-0.0133519 0.00018651 0)
(-0.013572 0.000145987 0)
(-0.0137313 0.000100621 0)
(-0.0138236 5.06373e-05 0)
(-0.0138433 -3.62514e-06 0)
(-0.0137853 -6.169e-05 0)
(-0.0136451 -0.000122942 0)
(-0.0134195 -0.000186652 0)
(-0.0131061 -0.000251969 0)
(-0.0127038 -0.000317929 0)
(-0.0122127 -0.000383476 0)
(-0.0116346 -0.000447481 0)
(-0.0109724 -0.000508768 0)
(-0.0102308 -0.000566143 0)
(-0.0094159 -0.000618428 0)
(-0.00853513 -0.000664494 0)
(-0.00759739 -0.0007033 0)
(-0.0066128 -0.000733926 0)
(-0.0055925 -0.000755606 0)
(-0.00454847 -0.000767762 0)
(-0.00349331 -0.00077002 0)
(-0.00243995 -0.000762239 0)
(-0.00140138 -0.000744517 0)
(-0.000390365 -0.000717222 0)
(0.000580824 -0.00068085 0)
(0.00150074 -0.000636207 0)
(0.00235898 -0.000584271 0)
(0.00314636 -0.000526161 0)
(0.00385516 -0.000463117 0)
(0.00447925 -0.000396453 0)
(0.00501413 -0.00032751 0)
(0.00545702 -0.000257615 0)
(0.00580677 -0.000188036 0)
(0.00606385 -0.000119945 0)
(0.0062302 -5.43845e-05 0)
(0.00630907 7.75418e-06 0)
(0.00630486 6.57495e-05 0)
(0.00622291 0.000119054 0)
(0.00606928 0.000167291 0)
(0.00585053 0.000210245 0)
(0.00557361 0.000247838 0)
(0.00524561 0.000280097 0)
(0.00487371 0.000307111 0)
(0.00446511 0.000328983 0)
(0.00402704 0.000345761 0)
(0.00356687 0.000357371 0)
(0.00309228 0.000363523 0)
(0.00261153 0.000363615 0)
(0.00213388 0.000356631 0)
(0.00166999 0.000341037 0)
(0.00123242 0.000314719 0)
(0.000836017 0.000275091 0)
(0.000497617 0.000219653 0)
(0.000234426 0.000147445 0)
(6.32527e-05 6.28932e-05 0)
(1.38929e-06 -1.0263e-05 0)
(9.94465e-06 -4.60331e-05 0)
(2.61482e-05 -5.77043e-05 0)
(2.20285e-05 -2.26497e-05 0)
(-2.20788e-05 3.66748e-05 0)
(-0.000114711 0.000105499 0)
(-0.000257643 0.000174555 0)
(-0.000449113 0.000238555 0)
(-0.000684887 0.000294931 0)
(-0.000959623 0.000342921 0)
(-0.00126777 0.000382878 0)
(-0.00160417 0.000415804 0)
(-0.00196434 0.000443023 0)
(-0.00234474 0.000465957 0)
(-0.00274271 0.000485984 0)
(-0.00315654 0.000504351 0)
(-0.0035853 0.000522123 0)
(-0.00402873 0.000540167 0)
(-0.00448715 0.000559145 0)
(-0.00496129 0.00057953 0)
(-0.00545214 0.000601619 0)
(-0.0059609 0.00062555 0)
(-0.00648877 0.000651326 0)
(-0.00703696 0.000678824 0)
(-0.00760652 0.000707816 0)
(-0.00819829 0.000737975 0)
(-0.00881282 0.000768883 0)
(-0.0094503 0.000800042 0)
(-0.0101105 0.000830873 0)
(-0.0107927 0.000860726 0)
(-0.0114957 0.000888878 0)
(-0.0122177 0.000914543 0)
(-0.012956 0.000936874 0)
(-0.0137077 0.00095497 0)
(-0.0144688 0.000967886 0)
(-0.0152348 0.000974644 0)
(-0.0160002 0.000974248 0)
(-0.0167591 0.000965697 0)
(-0.0175046 0.000948007 0)
(-0.0182292 0.000920237 0)
(-0.0189248 0.000881506 0)
(-0.0195828 0.000831033 0)
(-0.020194 0.000768156 0)
(-0.0207488 0.000692372 0)
(-0.0212377 0.000603368 0)
(-0.0216508 0.000501049 0)
(-0.0219786 0.000385573 0)
(-0.0222117 0.000257372 0)
(-0.0223415 0.000117175 0)
(-0.0223598 -3.3981e-05 0)
(-0.0222597 -0.000194686 0)
(-0.0220352 -0.000363272 0)
(-0.021682 -0.000537736 0)
(-0.021197 -0.000715782 0)
(-0.0205792 -0.000894858 0)
(-0.0198293 -0.0010722 0)
(-0.01895 -0.00124488 0)
(-0.0179461 -0.00140989 0)
(-0.0168244 -0.00156418 0)
(-0.0155941 -0.00170476 0)
(-0.0142659 -0.00182879 0)
(-0.0128526 -0.00193366 0)
(-0.0113688 -0.00201703 0)
(-0.00983023 -0.002077 0)
(-0.00825409 -0.00211208 0)
(-0.00665829 -0.00212131 0)
(-0.00506128 -0.00210428 0)
(-0.00348168 -0.00206118 0)
(-0.00193786 -0.00199278 0)
(-0.000447585 -0.0019004 0)
(0.000972377 -0.00178589 0)
(0.00230659 -0.00165162 0)
(0.00354125 -0.00150034 0)
(0.00466449 -0.00133514 0)
(0.00566652 -0.0011593 0)
(0.00653985 -0.000976226 0)
(0.00727932 -0.000789319 0)
(0.0078821 -0.000601884 0)
(0.00834768 -0.000417026 0)
(0.00867769 -0.000237568 0)
(0.00887577 -6.59817e-05 0)
(0.00894731 9.56549e-05 0)
(0.00889921 0.000245684 0)
(0.00873963 0.000382868 0)
(0.00847768 0.000506368 0)
(0.00812319 0.000615688 0)
(0.00768652 0.000710603 0)
(0.00717832 0.000791059 0)
(0.00660954 0.000857041 0)
(0.00599133 0.000908426 0)
(0.00533519 0.000944805 0)
(0.00465319 0.000965291 0)
(0.00395822 0.000968321 0)
(0.00326443 0.000951475 0)
(0.00258765 0.000911357 0)
(0.00194581 0.000843659 0)
(0.00135917 0.000743628 0)
(0.000849664 0.000607409 0)
(0.000438748 0.000434764 0)
(0.000149769 0.00023466 0)
(1.95223e-05 4.26145e-05 0)
(5.79448e-06 -5.76909e-05 0)
(1.30412e-06 -5.215e-05 0)
(-4.46785e-05 2.27754e-05 0)
(-0.000146901 0.000133957 0)
(-0.000312253 0.000259712 0)
(-0.000541565 0.000385503 0)
(-0.000831975 0.000502721 0)
(-0.00117823 0.000606987 0)
(-0.00157394 0.000696825 0)
(-0.00201254 0.000772663 0)
(-0.00248785 0.00083608 0)
(-0.00299455 0.000889274 0)
(-0.00352832 0.000934669 0)
(-0.00408594 0.000974659 0)
(-0.00466524 0.00101144 0)
(-0.00526504 0.00104693 0)
(-0.00588496 0.00108267 0)
(-0.0065253 0.00111989 0)
(-0.00718688 0.00115946 0)
(-0.00787088 0.00120193 0)
(-0.00857867 0.00124757 0)
(-0.00931169 0.00129639 0)
(-0.0100713 0.00134817 0)
(-0.0108588 0.00140247 0)
(-0.011675 0.00145867 0)
(-0.0125206 0.00151598 0)
(-0.0133955 0.00157344 0)
(-0.0142993 0.00162994 0)
(-0.0152308 0.00168422 0)
(-0.0161882 0.0017349 0)
(-0.0171688 0.00178048 0)
(-0.0181691 0.00181932 0)
(-0.0191848 0.00184973 0)
(-0.0202105 0.00186991 0)
(-0.02124 0.00187804 0)
(-0.0222661 0.00187226 0)
(-0.0232806 0.00185074 0)
(-0.0242745 0.00181169 0)
(-0.025238 0.00175342 0)
(-0.0261603 0.00167439 0)
(-0.0270303 0.00157325 0)
(-0.0278362 0.00144893 0)
(-0.0285658 0.00130063 0)
(-0.0292069 0.00112794 0)
(-0.0297471 0.000930853 0)
(-0.0301746 0.00070984 0)
(-0.0304779 0.000465868 0)
(-0.0306463 0.000200448 0)
(-0.0306701 -8.43533e-05 0)
(-0.0305409 -0.000385934 0)
(-0.0302518 -0.000701102 0)
(-0.0297976 -0.00102615 0)
(-0.0291752 -0.00135688 0)
(-0.0283835 -0.0016887 0)
(-0.0274237 -0.00201664 0)
(-0.0262994 -0.0023355 0)
(-0.0250169 -0.00263994 0)
(-0.0235846 -0.0029246 0)
(-0.0220135 -0.00318425 0)
(-0.020317 -0.0034139 0)
(-0.0185108 -0.00360895 0)
(-0.0166122 -0.00376535 0)
(-0.0146407 -0.00387969 0)
(-0.012617 -0.00394936 0)
(-0.0105629 -0.00397259 0)
(-0.00850088 -0.00394858 0)
(-0.00645387 -0.0038775 0)
(-0.00444451 -0.00376055 0)
(-0.00249488 -0.0035999 0)
(-0.000626034 -0.00339865 0)
(0.00114239 -0.00316075 0)
(0.00279257 -0.0028909 0)
(0.00430885 -0.0025944 0)
(0.00567801 -0.00227696 0)
(0.00688945 -0.00194453 0)
(0.00793535 -0.00160316 0)
(0.00881073 -0.00125877 0)
(0.00951341 -0.000917006 0)
(0.010044 -0.000583074 0)
(0.0104054 -0.000261634 0)
(0.0106033 4.33041e-05 0)
(0.010645 0.000328434 0)
(0.0105397 0.000591164 0)
(0.0102982 0.000829587 0)
(0.00993224 0.0010424 0)
(0.00945455 0.0012288 0)
(0.00887854 0.00138828 0)
(0.00821815 0.00152046 0)
(0.00748781 0.00162481 0)
(0.00670254 0.00170038 0)
(0.00587804 0.00174549 0)
(0.00503107 0.00175742 0)
(0.00417968 0.00173222 0)
(0.00334367 0.00166457 0)
(0.00254488 0.001548 0)
(0.00180746 0.00137568 0)
(0.00115716 0.00114229 0)
(0.000619343 0.000847424 0)
(0.000225559 0.000501491 0)
(3.47448e-05 0.000141408 0)
(3.49346e-07 -5.34414e-05 0)
(-3.12491e-05 -7.69646e-06 0)
(-0.000130883 0.000125643 0)
(-0.000304737 0.000304376 0)
(-0.000556181 0.000500489 0)
(-0.000884266 0.00069495 0)
(-0.00128445 0.000876132 0)
(-0.00175016 0.001038 0)
(-0.00227393 0.00117848 0)
(-0.0028483 0.00129814 0)
(-0.00346636 0.00139925 0)
(-0.00412216 0.00148499 0)
(-0.00481087 0.00155889 0)
(-0.00552892 0.00162449 0)
(-0.00627389 0.00168508 0)
(-0.00704446 0.00174351 0)
(-0.00784022 0.00180216 0)
(-0.00866152 0.00186286 0)
(-0.00950929 0.00192696 0)
(-0.0103849 0.00199533 0)
(-0.0112898 0.00206837 0)
(-0.0122258 0.0021461 0)
(-0.0131944 0.00222815 0)
(-0.0141968 0.00231384 0)
(-0.0152342 0.00240218 0)
(-0.0163069 0.00249188 0)
(-0.0174149 0.00258141 0)
(-0.0185575 0.00266897 0)
(-0.019733 0.00275254 0)
(-0.0209389 0.00282991 0)
(-0.0221719 0.00289864 0)
(-0.0234274 0.00295616 0)
(-0.0246999 0.00299975 0)
(-0.0259828 0.00302657 0)
(-0.0272681 0.00303377 0)
(-0.028547 0.00301845 0)
(-0.0298095 0.00297778 0)
(-0.0310445 0.00290903 0)
(-0.0322399 0.00280968 0)
(-0.0333831 0.00267744 0)
(-0.0344604 0.00251038 0)
(-0.0354578 0.00230697 0)
(-0.036361 0.0020662 0)
(-0.0371555 0.00178763 0)
(-0.0378271 0.0014715 0)
(-0.0383618 0.00111872 0)
(-0.0387464 0.000731016 0)
(-0.0389688 0.000310903 0)
(-0.0390179 -0.000138275 0)
(-0.0388841 -0.000612437 0)
(-0.0385598 -0.00110657 0)
(-0.0380391 -0.00161494 0)
(-0.0373187 -0.00213118 0)
(-0.0363974 -0.00264828 0)
(-0.0352767 -0.00315878 0)
(-0.0339607 -0.00365491 0)
(-0.0324563 -0.00412868 0)
(-0.0307732 -0.00457212 0)
(-0.0289236 -0.00497744 0)
(-0.0269226 -0.00533724 0)
(-0.0247875 -0.00564468 0)
(-0.0225382 -0.00589369 0)
(-0.0201962 -0.00607915 0)
(-0.0177851 -0.00619705 0)
(-0.0153295 -0.00624463 0)
(-0.0128552 -0.00622049 0)
(-0.0103883 -0.00612467 0)
(-0.00795495 -0.00595867 0)
(-0.005581 -0.00572544 0)
(-0.0032912 -0.0054293 0)
(-0.00110894 -0.00507588 0)
(0.000944196 -0.00467191 0)
(0.0028489 -0.00422506 0)
(0.00458852 -0.00374372 0)
(0.00614918 -0.0032367 0)
(0.00752013 -0.00271305 0)
(0.0086938 -0.00218173 0)
(0.00966587 -0.00165138 0)
(0.0104352 -0.00113009 0)
(0.0110036 -0.000625229 0)
(0.0113758 -0.000143247 0)
(0.0115591 0.00031038 0)
(0.0115631 0.000731213 0)
(0.0113992 0.00111581 0)
(0.0110806 0.00146162 0)
(0.0106217 0.00176687 0)
(0.010038 0.00203028 0)
(0.00934581 0.00225079 0)
(0.00856233 0.00242722 0)
(0.00770545 0.00255788 0)
(0.00679399 0.00264015 0)
(0.00584785 0.00267012 0)
(0.00488831 0.00264229 0)
(0.00393831 0.00254948 0)
(0.00302284 0.00238314 0)
(0.0021693 0.00213427 0)
(0.00140699 0.00179544 0)
(0.000765618 0.00136416 0)
(0.000285416 0.000848059 0)
(4.59955e-05 0.000277008 0)
(-5.72659e-06 -3.04423e-05 0)
(-6.83601e-05 8.29834e-05 0)
(-0.000229521 0.000295943 0)
(-0.00048477 0.000559203 0)
(-0.000832672 0.000839439 0)
(-0.00126957 0.00111395 0)
(-0.0017887 0.00136875 0)
(-0.00238177 0.00159657 0)
(-0.00304013 0.00179505 0)
(-0.00375541 0.00196514 0)
(-0.00452005 0.00210994 0)
(-0.00532764 0.00223376 0)
(-0.00617306 0.00234139 0)
(-0.00705253 0.00243761 0)
(-0.00796356 0.0025269 0)
(-0.00890484 0.00261315 0)
(-0.00987604 0.00269962 0)
(-0.0108777 0.00278885 0)
(-0.0119109 0.0028827 0)
(-0.0129772 0.00298235 0)
(-0.0140784 0.00308838 0)
(-0.0152164 0.00320079 0)
(-0.0163929 0.00331904 0)
(-0.0176094 0.00344213 0)
(-0.0188671 0.00356862 0)
(-0.0201662 0.00369663 0)
(-0.0215068 0.00382392 0)
(-0.0228876 0.00394788 0)
(-0.0243068 0.00406558 0)
(-0.0257611 0.00417376 0)
(-0.0272466 0.00426892 0)
(-0.0287577 0.00434733 0)
(-0.0302879 0.00440507 0)
(-0.031829 0.00443811 0)
(-0.033372 0.00444237 0)
(-0.0349063 0.00441377 0)
(-0.0364201 0.00434837 0)
(-0.0379005 0.00424239 0)
(-0.0393337 0.00409237 0)
(-0.0407049 0.00389525 0)
(-0.0419984 0.00364849 0)
(-0.0431984 0.00335016 0)
(-0.0442885 0.00299907 0)
(-0.0452523 0.00259486 0)
(-0.0460739 0.00213807 0)
(-0.0467375 0.00163027 0)
(-0.0472285 0.00107406 0)
(-0.0475332 0.000473151 0)
(-0.0476394 -0.000167638 0)
(-0.0475364 -0.00084254 0)
(-0.0472155 -0.0015445 0)
(-0.0466703 -0.00226557 0)
(-0.0458966 -0.00299695 0)
(-0.0448931 -0.00372905 0)
(-0.0436609 -0.00445167 0)
(-0.0422043 -0.00515423 0)
(-0.0405302 -0.00582587 0)
(-0.0386486 -0.00645579 0)
(-0.0365727 -0.0070334 0)
(-0.0343182 -0.00754863 0)
(-0.0319036 -0.00799212 0)
(-0.0293502 -0.00835555 0)
(-0.0266814 -0.00863179 0)
(-0.0239226 -0.00881519 0)
(-0.0211009 -0.00890172 0)
(-0.0182446 -0.00888915 0)
(-0.0153828 -0.00877714 0)
(-0.0125447 -0.0085673 0)
(-0.00975963 -0.00826321 0)
(-0.00705587 -0.00787029 0)
(-0.00446052 -0.00739579 0)
(-0.0019989 -0.00684849 0)
(0.000305924 -0.0062385 0)
(0.00243359 -0.00557701 0)
(0.00436674 -0.00487596 0)
(0.00609132 -0.00414764 0)
(0.00759678 -0.00340441 0)
(0.00887616 -0.0026583 0)
(0.00992608 -0.00192076 0)
(0.0107467 -0.0012023 0)
(0.0113414 -0.000512345 0)
(0.0117169 0.00014096 0)
(0.0118823 0.000750812 0)
(0.0118496 0.00131175 0)
(0.0116325 0.00181955 0)
(0.0112467 0.00227102 0)
(0.0107093 0.00266373 0)
(0.0100387 0.00299565 0)
(0.00925422 0.00326469 0)
(0.00837626 0.00346823 0)
(0.00742626 0.00360261 0)
(0.00642684 0.00366266 0)
(0.00540202 0.00364135 0)
(0.00437748 0.00352964 0)
(0.00338101 0.00331683 0)
(0.00244307 0.00299138 0)
(0.00159661 0.00254279 0)
(0.000875889 0.00196446 0)
(0.000329376 0.00125774 0)
(5.37252e-05 0.000440379 0)
(-1.20655e-05 1.29652e-05 0)
(-0.000108186 0.000224908 0)
(-0.000336303 0.000541093 0)
(-0.000680018 0.000907039 0)
(-0.00113223 0.00128551 0)
(-0.00168587 0.00165116 0)
(-0.00233142 0.00198845 0)
(-0.00305854 0.00228954 0)
(-0.00385715 0.0025522 0)
(-0.00471793 0.00277812 0)
(-0.0056327 0.00297152 0)
(-0.00659468 0.003138 0)
(-0.00759858 0.00328377 0)
(-0.00864058 0.00341498 0)
(-0.00971827 0.00353736 0)
(-0.0108305 0.00365595 0)
(-0.0119772 0.00377494 0)
(-0.0131591 0.00389762 0)
(-0.0143776 0.00402639 0)
(-0.0156347 0.00416279 0)
(-0.0169325 0.00430752 0)
(-0.0182731 0.00446056 0)
(-0.0196586 0.00462117 0)
(-0.0210907 0.00478797 0)
(-0.0225706 0.00495895 0)
(-0.0240988 0.00513158 0)
(-0.0256751 0.00530277 0)
(-0.0272982 0.00546894 0)
(-0.0289657 0.00562609 0)
(-0.0306741 0.0057698 0)
(-0.0324186 0.00589529 0)
(-0.0341928 0.00599752 0)
(-0.0359891 0.0060712 0)
(-0.0377983 0.00611093 0)
(-0.03961 0.00611126 0)
(-0.041412 0.00606682 0)
(-0.0431911 0.00597241 0)
(-0.0449327 0.00582314 0)
(-0.0466211 0.00561456 0)
(-0.0482398 0.00534279 0)
(-0.0497714 0.00500467 0)
(-0.051198 0.0045979 0)
(-0.0525016 0.00412114 0)
(-0.053664 0.00357417 0)
(-0.0546675 0.00295796 0)
(-0.0554947 0.00227478 0)
(-0.0561295 0.00152823 0)
(-0.0565565 0.000723326 0)
(-0.0567624 -0.000133549 0)
(-0.056735 -0.00103456 0)
(-0.0564643 -0.00197077 0)
(-0.0559429 -0.00293182 0)
(-0.0551655 -0.00390631 0)
(-0.0541299 -0.00488193 0)
(-0.0528365 -0.00584559 0)
(-0.0512887 -0.00678371 0)
(-0.0494933 -0.00768238 0)
(-0.04746 -0.00852775 0)
(-0.0452018 -0.00930619 0)
(-0.0427347 -0.0100047 0)
(-0.0400779 -0.0106111 0)
(-0.0372535 -0.0111145 0)
(-0.034286 -0.0115056 0)
(-0.0312027 -0.0117765 0)
(-0.0280324 -0.0119218 0)
(-0.024806 -0.0119379 0)
(-0.0215552 -0.0118239 0)
(-0.0183126 -0.0115812 0)
(-0.0151107 -0.0112138 0)
(-0.0119815 -0.010728 0)
(-0.00895612 -0.0101325 0)
(-0.00606385 -0.00943808 0)
(-0.00333183 -0.00865732 0)
(-0.00078451 -0.00780433 0)
(0.00155681 -0.00689426 0)
(0.00367436 -0.00594297 0)
(0.00555412 -0.00496648 0)
(0.00718603 -0.00398062 0)
(0.00856405 -0.00300061 0)
(0.00968609 -0.00204062 0)
(0.0105539 -0.00111353 0)
(0.0111729 -0.000230653 0)
(0.0115518 0.000598315 0)
(0.0117021 0.0013654 0)
(0.0116383 0.00206419 0)
(0.0113767 0.00268968 0)
(0.0109358 0.0032379 0)
(0.0103356 0.00370551 0)
(0.00959735 0.00408926 0)
(0.00874369 0.00438541 0)
(0.0077984 0.00458913 0)
(0.00678652 0.00469393 0)
(0.00573457 0.00469121 0)
(0.00467081 0.00457003 0)
(0.00362574 0.0043173 0)
(0.00263286 0.00391845 0)
(0.0017288 0.00335893 0)
(0.000952376 0.00262635 0)
(0.000359158 0.00171337 0)
(5.8635e-05 0.000623088 0)
(-1.85899e-05 7.78157e-05 0)
(-0.000149836 0.000421424 0)
(-0.000448672 0.000866279 0)
(-0.000885991 0.00135424 0)
(-0.0014484 0.00184555 0)
(-0.00212492 0.00231337 0)
(-0.00290281 0.00274156 0)
(-0.00376939 0.00312245 0)
(-0.00471295 0.00345458 0)
(-0.00572314 0.00374082 0)
(-0.00679113 0.00398682 0)
(-0.00790984 0.00419974 0)
(-0.00907391 0.00438738 0)
(-0.0102796 0.0045574 0)
(-0.0115248 0.00471691 0)
(-0.0128086 0.00487213 0)
(-0.0141313 0.00502826 0)
(-0.0154941 0.00518937 0)
(-0.0168989 0.00535843 0)
(-0.0183481 0.00553731 0)
(-0.0198442 0.00572688 0)
(-0.0213899 0.00592703 0)
(-0.0229876 0.00613678 0)
(-0.0246393 0.00635428 0)
(-0.0263465 0.00657691 0)
(-0.0281099 0.00680133 0)
(-0.0299293 0.00702349 0)
(-0.0318031 0.00723873 0)
(-0.033729 0.00744179 0)
(-0.0357027 0.00762691 0)
(-0.037719 0.00778791 0)
(-0.0397707 0.00791823 0)
(-0.0418494 0.00801108 0)
(-0.0439446 0.00805953 0)
(-0.0460448 0.00805663 0)
(-0.0481364 0.00799558 0)
(-0.0502048 0.00786983 0)
(-0.0522337 0.00767328 0)
(-0.0542058 0.00740044 0)
(-0.0561029 0.00704657 0)
(-0.0579059 0.00660789 0)
(-0.0595951 0.0060817 0)
(-0.0611507 0.00546654 0)
(-0.0625527 0.00476236 0)
(-0.0637816 0.00397057 0)
(-0.0648183 0.00309419 0)
(-0.0656449 0.0021379 0)
(-0.0662442 0.001108 0)
(-0.0666011 1.25754e-05 0)
(-0.0667019 -0.00113846 0)
(-0.0665348 -0.00233426 0)
(-0.0660907 -0.00356196 0)
(-0.0653629 -0.00480749 0)
(-0.0643474 -0.00605568 0)
(-0.0630433 -0.00729046 0)
(-0.0614529 -0.00849506 0)
(-0.0595817 -0.00965239 0)
(-0.0574385 -0.0107453 0)
(-0.0550358 -0.0117568 0)
(-0.0523893 -0.0126707 0)
(-0.0495182 -0.0134717 0)
(-0.046445 -0.014146 0)
(-0.0431952 -0.0146813 0)
(-0.0397974 -0.0150677 0)
(-0.0362823 -0.0152975 0)
(-0.032683 -0.0153656 0)
(-0.0290342 -0.0152699 0)
(-0.0253716 -0.0150114 0)
(-0.0217315 -0.0145939 0)
(-0.0181499 -0.0140246 0)
(-0.0146622 -0.0133132 0)
(-0.0113023 -0.0124726 0)
(-0.00810193 -0.0115177 0)
(-0.00509015 -0.0104655 0)
(-0.0022928 -0.00933473 0)
(0.000268038 -0.00814487 0)
(0.00257433 -0.00691602 0)
(0.00461236 -0.00566816 0)
(0.00637288 -0.00442077 0)
(0.00785117 -0.00319215 0)
(0.00904685 -0.00199917 0)
(0.00996375 -0.000856902 0)
(0.0106096 0.000221564 0)
(0.0109956 0.00122518 0)
(0.0111363 0.00214488 0)
(0.0110487 0.00297336 0)
(0.0107523 0.00370472 0)
(0.0102686 0.00433396 0)
(0.0096207 0.00485639 0)
(0.00883327 0.00526698 0)
(0.00793228 0.00555957 0)
(0.00694513 0.00572627 0)
(0.00590077 0.00575679 0)
(0.00483002 0.00563817 0)
(0.00376612 0.00535468 0)
(0.00274566 0.00488824 0)
(0.00180886 0.0042194 0)
(0.000998823 0.00332884 0)
(0.000376871 0.00219916 0)
(6.13503e-05 0.000817983 0)
(-2.52378e-05 0.000164767 0)
(-0.000192782 0.000674864 0)
(-0.000565066 0.00127522 0)
(-0.00109976 0.00190548 0)
(-0.00177677 0.00252472 0)
(-0.0025808 0.0031058 0)
(-0.00349559 0.00363305 0)
(-0.00450587 0.00409981 0)
(-0.00559813 0.00450607 0)
(-0.00676087 0.00485641 0)
(-0.00798466 0.00515833 0)
(-0.00926214 0.00542088 0)
(-0.010588 0.00565363 0)
(-0.0119587 0.00586594 0)
(-0.0133724 0.0060664 0)
(-0.0148288 0.00626252 0)
(-0.0163288 0.00646053 0)
(-0.017874 0.00666533 0)
(-0.0194672 0.00688047 0)
(-0.0211111 0.00710818 0)
(-0.0228091 0.00734945 0)
(-0.0245643 0.00760407 0)
(-0.0263798 0.00787074 0)
(-0.0282581 0.00814708 0)
(-0.030201 0.00842977 0)
(-0.0322094 0.00871452 0)
(-0.0342832 0.00899621 0)
(-0.0364211 0.00926891 0)
(-0.0386203 0.00952599 0)
(-0.0408765 0.00976019 0)
(-0.0431837 0.00996371 0)
(-0.0455342 0.0101284 0)
(-0.0479186 0.0102456 0)
(-0.0503256 0.010307 0)
(-0.0527424 0.0103037 0)
(-0.0551542 0.0102276 0)
(-0.0575449 0.0100706 0)
(-0.0598967 0.00982525 0)
(-0.0621909 0.009485 0)
(-0.0644073 0.00904418 0)
(-0.0665251 0.00849833 0)
(-0.068523 0.00784432 0)
(-0.070379 0.00708055 0)
(-0.0720714 0.00620708 0)
(-0.0735786 0.00522579 0)
(-0.0748796 0.00414041 0)
(-0.0759541 0.00295666 0)
(-0.0767832 0.00168221 0)
(-0.077349 0.000326836 0)
(-0.0776362 -0.00109783 0)
(-0.0776308 -0.00257888 0)
(-0.077321 -0.00410068 0)
(-0.076698 -0.00564652 0)
(-0.0757559 -0.00719834 0)
(-0.0744916 -0.00873693 0)
(-0.0729056 -0.0102423 0)
(-0.0710015 -0.0116938 0)
(-0.0687868 -0.0130707 0)
(-0.0662727 -0.0143527 0)
(-0.0634741 -0.0155197 0)
(-0.06041 -0.016553 0)
(-0.0571027 -0.0174352 0)
(-0.0535786 -0.0181511 0)
(-0.0498671 -0.0186876 0)
(-0.0460009 -0.0190345 0)
(-0.0420155 -0.0191845 0)
(-0.0379483 -0.0191341 0)
(-0.0338387 -0.0188829 0)
(-0.029727 -0.0184346 0)
(-0.0256538 -0.0177964 0)
(-0.0216592 -0.0169794 0)
(-0.0177824 -0.0159978 0)
(-0.0140603 -0.014869 0)
(-0.0105274 -0.013613 0)
(-0.00721489 -0.0122521 0)
(-0.00414982 -0.0108098 0)
(-0.00135496 -0.00931052 0)
(0.00115161 -0.00777897 0)
(0.00335688 -0.00623926 0)
(0.00525293 -0.00471446 0)
(0.0068368 -0.00322601 0)
(0.00811037 -0.00179333 0)
(0.00908007 -0.000433532 0)
(0.00975654 0.000838702 0)
(0.0101542 0.0020111 0)
(0.0102905 0.00307357 0)
(0.0101862 0.00401785 0)
(0.00986402 0.00483691 0)
(0.00934887 0.00552436 0)
(0.00866742 0.00607361 0)
(0.00784792 0.00647703 0)
(0.00692013 0.00672517 0)
(0.00591555 0.006806 0)
(0.00486761 0.00670432 0)
(0.0038124 0.00640152 0)
(0.00278961 0.00587562 0)
(0.00184292 0.00510173 0)
(0.0010193 0.00405293 0)
(0.000384508 0.00270128 0)
(6.23586e-05 0.00101918 0)
(-3.19982e-05 0.000274391 0)
(-0.000236746 0.000986974 0)
(-0.000684522 0.00177069 0)
(-0.00131939 0.00256425 0)
(-0.00211425 0.00332689 0)
(-0.00304923 0.00403243 0)
(-0.00410435 0.00466672 0)
(-0.0052615 0.00522507 0)
(-0.0065053 0.00570968 0)
(-0.00782306 0.00612744 0)
(-0.00920471 0.00648816 0)
(-0.0106427 0.00680312 0)
(-0.0121318 0.00708397 0)
(-0.0136688 0.0073419 0)
(-0.0152525 0.00758714 0)
(-0.0168832 0.00782857 0)
(-0.0185624 0.00807355 0)
(-0.0202927 0.00832783 0)
(-0.0220774 0.00859557 0)
(-0.0239204 0.00887935 0)
(-0.0258256 0.00918024 0)
(-0.0277972 0.00949792 0)
(-0.0298387 0.00983068 0)
(-0.0319533 0.0101756 0)
(-0.0341435 0.0105284 0)
(-0.0364105 0.0108838 0)
(-0.0387546 0.0112355 0)
(-0.0411744 0.0115762 0)
(-0.0436672 0.0118975 0)
(-0.0462283 0.0121907 0)
(-0.0488515 0.0124461 0)
(-0.0515283 0.0126537 0)
(-0.0542486 0.0128031 0)
(-0.0570003 0.012884 0)
(-0.0597692 0.012886 0)
(-0.0625395 0.012799 0)
(-0.0652935 0.0126135 0)
(-0.0680121 0.0123206 0)
(-0.0706747 0.0119124 0)
(-0.0732595 0.0113825 0)
(-0.0757438 0.0107254 0)
(-0.0781042 0.00993757 0)
(-0.0803167 0.0090172 0)
(-0.0823574 0.0079644 0)
(-0.0842024 0.00678137 0)
(-0.0858282 0.00547253 0)
(-0.0872121 0.00404454 0)
(-0.0883325 0.0025064 0)
(-0.0891691 0.000869421 0)
(-0.0897039 -0.000853007 0)
(-0.08992 -0.00264592 0)
(-0.0898024 -0.00449092 0)
(-0.0893401 -0.00636866 0)
(-0.0885242 -0.0082581 0)
(-0.0873491 -0.0101368 0)
(-0.0858127 -0.0119813 0)
(-0.0839165 -0.0137673 0)
(-0.0816659 -0.0154702 0)
(-0.0790704 -0.0170657 0)
(-0.0761437 -0.0185298 0)
(-0.0729038 -0.0198397 0)
(-0.0693729 -0.0209741 0)
(-0.0655775 -0.021914 0)
(-0.0615481 -0.0226426 0)
(-0.0573191 -0.0231465 0)
(-0.052928 -0.0234159 0)
(-0.0484156 -0.0234445 0)
(-0.0438248 -0.0232308 0)
(-0.0392004 -0.0227772 0)
(-0.0345878 -0.0220909 0)
(-0.0300329 -0.0211834 0)
(-0.0255806 -0.0200704 0)
(-0.0212739 -0.0187716 0)
(-0.0171536 -0.0173101 0)
(-0.013257 -0.0157116 0)
(-0.00961712 -0.0140041 0)
(-0.00626243 -0.0122169 0)
(-0.00321607 -0.0103796 0)
(-0.000495638 -0.00852175 0)
(0.00188707 -0.00667177 0)
(0.00392593 -0.00485637 0)
(0.00562046 -0.00310001 0)
(0.00697548 -0.00142452 0)
(0.00800071 0.000151144 0)
(0.00871034 0.00161087 0)
(0.00912245 0.00294124 0)
(0.00925852 0.00413114 0)
(0.00914289 0.00517114 0)
(0.0088023 0.00605279 0)
(0.00826556 0.0067677 0)
(0.00756329 0.0073066 0)
(0.00672782 0.00765833 0)
(0.00579331 0.00780895 0)
(0.00479603 0.00774092 0)
(0.00377499 0.00743252 0)
(0.00277304 0.00685762 0)
(0.00183715 0.00598562 0)
(0.00101772 0.00478182 0)
(0.000383836 0.00320784 0)
(6.2038e-05 0.00122186 0)
(-3.88769e-05 0.000407158 0)
(-0.000281574 0.00135911 0)
(-0.000806411 0.00235473 0)
(-0.00154353 0.0033331 0)
(-0.00245861 0.0042549 0)
(-0.00352704 0.00509615 0)
(-0.00472492 0.00584538 0)
(-0.00603124 0.00650082 0)
(-0.00742865 0.0070677 0)
(-0.00890326 0.00755589 0)
(-0.0104444 0.00797802 0)
(-0.0120443 0.008348 0)
(-0.0136981 0.00867982 0)
(-0.015403 0.00898677 0)
(-0.0171585 0.00928085 0)
(-0.0189656 0.00957243 0)
(-0.0208269 0.00987007 0)
(-0.0227459 0.0101804 0)
(-0.0247269 0.0105083 0)
(-0.0267749 0.0108565 0)
(-0.0288948 0.0112264 0)
(-0.0310917 0.0116173 0)
(-0.0333701 0.0120271 0)
(-0.035734 0.0124521 0)
(-0.0381865 0.0128872 0)
(-0.0407295 0.0133259 0)
(-0.0433636 0.0137604 0)
(-0.0460877 0.0141819 0)
(-0.0488989 0.0145803 0)
(-0.0517927 0.0149449 0)
(-0.0547622 0.0152642 0)
(-0.0577987 0.0155262 0)
(-0.0608911 0.0157184 0)
(-0.0640263 0.0158284 0)
(-0.0671892 0.0158439 0)
(-0.0703625 0.0157531 0)
(-0.0735273 0.0155445 0)
(-0.0766626 0.015208 0)
(-0.0797461 0.0147341 0)
(-0.0827542 0.0141152 0)
(-0.0856619 0.0133451 0)
(-0.0884435 0.0124196 0)
(-0.091073 0.0113364 0)
(-0.0935235 0.0100956 0)
(-0.0957688 0.00869966 0)
(-0.0977824 0.0071535 0)
(-0.0995387 0.00546463 0)
(-0.101013 0.00364313 0)
(-0.102182 0.00170153 0)
(-0.103025 -0.000344824 0)
(-0.103521 -0.00247682 0)
(-0.103653 -0.00467609 0)
(-0.103405 -0.00692011 0)
(-0.102766 -0.00918457 0)
(-0.101727 -0.0114436 0)
(-0.100284 -0.0136701 0)
(-0.0984342 -0.0158358 0)
(-0.0961816 -0.0179121 0)
(-0.0935332 -0.0198702 0)
(-0.090501 -0.0216817 0)
(-0.0871017 -0.0233194 0)
(-0.0833569 -0.0247573 0)
(-0.0792928 -0.0259718 0)
(-0.0749407 -0.0269422 0)
(-0.070336 -0.027651 0)
(-0.0655188 -0.0280847 0)
(-0.0605325 -0.0282342 0)
(-0.0554241 -0.0280953 0)
(-0.0502429 -0.027669 0)
(-0.0450397 -0.0269616 0)
(-0.0398665 -0.0259847 0)
(-0.0347746 -0.024755 0)
(-0.0298142 -0.0232943 0)
(-0.0250332 -0.0216286 0)
(-0.020476 -0.0197874 0)
(-0.0161829 -0.0178033 0)
(-0.0121889 -0.0157106 0)
(-0.00852337 -0.013545 0)
(-0.00520942 -0.0113418 0)
(-0.00226361 -0.00913551 0)
(0.000304077 -0.00695899 0)
(0.00249018 -0.00484256 0)
(0.00429743 -0.00281355 0)
(0.00573436 -0.000896009 0)
(0.0068148 0.000889433 0)
(0.00755719 0.00252539 0)
(0.00798403 0.00399735 0)
(0.00812121 0.00529302 0)
(0.00799752 0.00640153 0)
(0.00764411 0.00731241 0)
(0.00709421 0.00801452 0)
(0.00638298 0.00849486 0)
(0.00554752 0.00873744 0)
(0.00462713 0.00872224 0)
(0.00366395 0.00842436 0)
(0.002704 0.00781339 0)
(0.00179744 0.00685301 0)
(0.000997731 0.0055009 0)
(0.000376411 0.00370883 0)
(6.06936e-05 0.00142211 0)