/*--------------------------------*- C++ -*----------------------------------*\
  =========                 |
  \\      /  F ield         | OpenFOAM: The Open Source CFD Toolbox
   \\    /   O peration     | Website:  https://openfoam.org
    \\  /    A nd           | Version:  9
     \\/     M anipulation  |
\*---------------------------------------------------------------------------*/
FoamFile
{
    format      ascii;
    class       volScalarField;
    location    "1.75";
    object      p;
}
// * * * * * * * * * * * * * * * * * * * * * * * * * * * * * * * * * * * * * //

dimensions      [0 2 -2 0 0 0 0];

internalField   nonuniform List<scalar> 
1250
(
-0.00194403
-0.00205121
-0.00215532
-0.002255
-0.00234874
-0.00243494
-0.00251187
-0.00257776
-0.00263077
-0.00266908
-0.0026909
-0.00269453
-0.00267846
-0.00264135
-0.0025822
-0.00250032
-0.00239547
-0.00226788
-0.00211832
-0.00194811
-0.00175922
-0.00155423
-0.00133622
-0.00110909
-0.000877094
-0.000644968
-0.000417834
-0.000201041
-3.27238e-08
0.000179811
0.000333343
0.000455844
0.00054317
-0.00185221
-0.00195425
-0.00205357
-0.00214889
-0.00223884
-0.00232193
-0.00239657
-0.00246111
-0.00251384
-0.00255304
-0.00257704
-0.00258425
-0.00257319
-0.00254262
-0.00249154
-0.00241927
-0.00232555
-0.00221053
-0.00207489
-0.00191985
-0.00174726
-0.00155959
-0.00135933
-0.00115039
-0.000936784
-0.000722963
-0.000513743
-0.000314178
-0.000129414
3.54522e-05
0.000175539
0.000286392
0.000364113
-0.00178027
-0.00187965
-0.00197676
-0.0020704
-0.00215928
-0.00224198
-0.00231699
-0.00238273
-0.00243754
-0.00247975
-0.00250771
-0.00251982
-0.00251463
-0.00249084
-0.0024474
-0.0023836
-0.00229905
-0.00219383
-0.00206851
-0.00192418
-0.00176249
-0.0015856
-0.00139647
-0.00119844
-0.000995399
-0.000791702
-0.000592054
-0.0004014
-0.000224794
-6.72513e-05
6.64096e-05
0.000171817
0.000245149
-0.00171752
-0.00181613
-0.00191308
-0.00200724
-0.00209736
-0.00218209
-0.00225995
-0.00232937
-0.00238871
-0.00243628
-0.00247039
-0.0024894
-0.00249176
-0.0024761
-0.00244126
-0.00238639
-0.00231099
-0.002215
-0.00209885
-0.0019635
-0.00181049
-0.00164179
-0.00146044
-0.00126955
-0.00107297
-0.000875023
-0.000680385
-0.000493997
-0.000320929
-0.000166234
-3.47822e-05
6.90336e-05
0.000141359
-0.00166301
-0.00176287
-0.0018619
-0.00195897
-0.0020529
-0.00214235
-0.00222585
-0.00230181
-0.00236854
-0.00242429
-0.00246727
-0.00249572
-0.00250798
-0.00250251
-0.00247802
-0.00243348
-0.00236823
-0.00228205
-0.00217522
-0.00204857
-0.00190351
-0.00174196
-0.00156675
-0.00138104
-0.00118865
-0.00099389
-0.000801458
-0.00061635
-0.00044371
-0.0002887
-0.000156308
-5.10072e-05
2.32357e-05
-0.00162244
-0.00172622
-0.0018302
-0.00193327
-0.00203426
-0.00213182
-0.00222443
-0.00231044
-0.00238806
-0.0024554
-0.00251054
-0.00255155
-0.00257657
-0.00258388
-0.00257197
-0.00253962
-0.002486
-0.00241068
-0.00231379
-0.00219601
-0.00205864
-0.00190351
-0.00173335
-0.00155132
-0.00136123
-0.00116741
-0.000974622
-0.000787941
-0.000612638
-0.000454033
-0.000317267
-0.000206935
-0.000127212
-0.00160207
-0.00171314
-0.00182567
-0.00193857
-0.00205062
-0.00216042
-0.00226637
-0.00236668
-0.00245941
-0.00254249
-0.00261377
-0.00267112
-0.00271244
-0.00273577
-0.00273936
-0.00272176
-0.00268191
-0.0026192
-0.00253355
-0.00242551
-0.00229623
-0.00214747
-0.00198186
-0.00180253
-0.0016133
-0.00141852
-0.00122303
-0.00103201
-0.000850871
-0.000685102
-0.000539996
-0.000420341
-0.000330748
-0.00160891
-0.00173142
-0.00185692
-0.00198428
-0.00211222
-0.00223923
-0.00236357
-0.00248326
-0.00259614
-0.00269991
-0.00279217
-0.00287048
-0.00293249
-0.00297594
-0.00299881
-0.00299939
-0.00297637
-0.0029289
-0.00285671
-0.00276014
-0.00264019
-0.00249856
-0.00233769
-0.00216071
-0.00197139
-0.00177412
-0.00157381
-0.00137573
-0.00118537
-0.00100833
-0.000850129
-0.00071616
-0.000611601
-0.00165127
-0.0017902
-0.00193396
-0.00208132
-0.00223089
-0.00238101
-0.00252972
-0.0026748
-0.00281383
-0.00294421
-0.00306322
-0.00316811
-0.00325618
-0.00332488
-0.00337185
-0.00339509
-0.00339299
-0.00336446
-0.00330896
-0.00322659
-0.00311813
-0.00298521
-0.00283005
-0.00265569
-0.00246583
-0.00226489
-0.00205782
-0.00184983
-0.00164631
-0.0014533
-0.00127712
-0.00173867
-0.00189998
-0.00206825
-0.00224214
-0.00242008
-0.0026002
-0.00278029
-0.00295782
-0.00313005
-0.00329402
-0.00344666
-0.00358485
-0.00370551
-0.00380573
-0.00388279
-0.00393433
-0.00395842
-0.00395363
-0.00391914
-0.00385474
-0.00376096
-0.00363922
-0.00349151
-0.0033207
-0.0031304
-0.00292497
-0.00270931
-0.0024883
-0.00226771
-0.00188185
-0.00207249
-0.00227256
-0.00248054
-0.00269467
-0.00291279
-0.00313235
-0.00335051
-0.00356412
-0.00376984
-0.00396416
-0.00414357
-0.00430456
-0.00444378
-0.00455812
-0.00464482
-0.00470153
-0.00472646
-0.00471841
-0.00467681
-0.00460186
-0.00449468
-0.00435697
-0.00419136
-0.00400128
-0.00379098
-0.00356519
-0.00332857
-0.00308726
-0.00209268
-0.00232064
-0.00256086
-0.00281161
-0.00307083
-0.00333604
-0.00360433
-0.00387244
-0.00413678
-0.00439356
-0.00463881
-0.00486852
-0.00507873
-0.00526561
-0.00542557
-0.00555537
-0.00565223
-0.00571388
-0.00573868
-0.00572567
-0.00567461
-0.00558622
-0.00546187
-0.00530385
-0.00511535
-0.00490039
-0.00466347
-0.00440907
-0.00414359
-0.002384
-0.00265834
-0.00294813
-0.00325138
-0.0035657
-0.0038882
-0.00421556
-0.00454402
-0.00486952
-0.00518773
-0.00549418
-0.00578431
-0.00605361
-0.00629772
-0.00651251
-0.00669423
-0.00683955
-0.0069457
-0.00701054
-0.0070326
-0.00701121
-0.00694656
-0.00683963
-0.00669232
-0.00650747
-0.0062888
-0.0060405
-0.00576682
-0.00547433
-0.00276941
-0.00310019
-0.00344999
-0.00381649
-0.0041969
-0.00458787
-0.00498555
-0.00538568
-0.00578361
-0.00617444
-0.00655308
-0.00691439
-0.00725325
-0.0075647
-0.00784402
-0.00808687
-0.00828935
-0.00844814
-0.00856054
-0.00862457
-0.00863901
-0.00860349
-0.00851862
-0.00838578
-0.00820738
-0.00798677
-0.00772775
-0.00743429
-0.007113
-0.00326292
-0.00366112
-0.00408225
-0.00452359
-0.00498186
-0.00545318
-0.00593312
-0.00641679
-0.00689889
-0.00737386
-0.00783595
-0.00827935
-0.00869828
-0.00908711
-0.00944053
-0.00975355
-0.0100217
-0.0102411
-0.0104084
-0.0105212
-0.0105776
-0.0105768
-0.0105189
-0.0104047
-0.0102362
-0.0100163
-0.00974829
-0.00943582
-0.00908537
-0.00387851
-0.00435582
-0.00486024
-0.00538857
-0.00593695
-0.00650085
-0.00707518
-0.00765431
-0.00823224
-0.00880264
-0.00935904
-0.00989489
-0.0104037
-0.0108792
-0.0113155
-0.0117068
-0.0120483
-0.0123353
-0.0125641
-0.0127317
-0.0128359
-0.0128751
-0.0128489
-0.0127578
-0.0126031
-0.0123873
-0.0121132
-0.0117839
-0.0114057
-0.00462955
-0.00519809
-0.00579807
-0.0064257
-0.00707643
-0.00774497
-0.00842544
-0.00911141
-0.00979603
-0.0104722
-0.0111326
-0.01177
-0.0123771
-0.0129471
-0.0134732
-0.0139494
-0.0143702
-0.0147304
-0.0150259
-0.0152533
-0.0154098
-0.0154934
-0.0155033
-0.0154395
-0.0153029
-0.0150952
-0.0148187
-0.0144763
-0.0140735
-0.00552817
-0.00620008
-0.00690775
-0.00764665
-0.00841139
-0.00919583
-0.00999315
-0.010796
-0.0115967
-0.0123872
-0.0131594
-0.0139052
-0.0146168
-0.0152866
-0.0159075
-0.0164729
-0.0169766
-0.0174136
-0.017779
-0.0180692
-0.0182811
-0.0184125
-0.0184617
-0.0184289
-0.0183142
-0.0181189
-0.0178448
-0.017494
-0.0170715
-0.00658452
-0.00737152
-0.00819832
-0.0090595
-0.00994871
-0.0108588
-0.0117819
-0.0127097
-0.0136335
-0.0145443
-0.0154334
-0.0162919
-0.0171113
-0.0178836
-0.0186011
-0.0192569
-0.0198448
-0.0203592
-0.0207954
-0.0211493
-0.0214179
-0.0215984
-0.021689
-0.02169
-0.0216007
-0.0214219
-0.0211548
-0.0208013
-0.0203654
-0.00780609
-0.00871889
-0.00967497
-0.0106679
-0.0116901
-0.0127334
-0.0137888
-0.0148468
-0.0158978
-0.0169321
-0.01794
-0.018912
-0.0198392
-0.0207131
-0.0215259
-0.0222705
-0.0229406
-0.0235306
-0.0240356
-0.0244518
-0.0247759
-0.0250053
-0.0251379
-0.0251742
-0.0251126
-0.0249537
-0.0246984
-0.024348
-0.0239057
-0.00820236
-0.00919702
-0.0102448
-0.0113384
-0.0124703
-0.0136317
-0.0148129
-0.016004
-0.0171944
-0.0183735
-0.0195306
-0.0206556
-0.0217385
-0.02277
-0.0237415
-0.0246451
-0.0254737
-0.0262211
-0.0268819
-0.0274515
-0.027926
-0.0283025
-0.0285787
-0.0287535
-0.0288238
-0.0287908
-0.0286543
-0.0284148
-0.0280731
-0.0276315
-0.0096237
-0.0107576
-0.0119473
-0.0131845
-0.0144599
-0.0157634
-0.0170843
-0.0184112
-0.0197325
-0.0210368
-0.0223128
-0.0235497
-0.0247374
-0.0258665
-0.0269283
-0.0279151
-0.0288201
-0.0296374
-0.030362
-0.0309896
-0.0315167
-0.0319407
-0.0322595
-0.0324719
-0.032576
-0.0325718
-0.0324592
-0.0322384
-0.0319101
-0.0314757
-0.0112048
-0.0124839
-0.0138201
-0.0152038
-0.0166242
-0.0180698
-0.0195285
-0.0209877
-0.022435
-0.0238583
-0.0252457
-0.0265863
-0.0278697
-0.0290867
-0.030229
-0.0312891
-0.0322608
-0.0331387
-0.0339182
-0.0345957
-0.0351681
-0.0356332
-0.0359894
-0.0362354
-0.0363701
-0.0363932
-0.0363046
-0.0361043
-0.0357929
-0.035371
-0.01294
-0.0143676
-0.0158521
-0.0173824
-0.0189461
-0.0205302
-0.0221215
-0.0237063
-0.0252715
-0.0268044
-0.028293
-0.0297261
-0.0310939
-0.0323872
-0.0335982
-0.0347203
-0.0357476
-0.0366755
-0.0375001
-0.0382183
-0.0388279
-0.0393269
-0.0397143
-0.039989
-0.0401505
-0.0401984
-0.0401326
-0.0399532
-0.0396607
-0.0392552
-0.0148201
-0.0163966
-0.0180282
-0.0197019
-0.0214039
-0.02312
-0.0248355
-0.0265363
-0.0282086
-0.0298393
-0.0314166
-0.0329296
-0.0343686
-0.0357253
-0.0369926
-0.0381643
-0.0392357
-0.0402027
-0.0410623
-0.0418122
-0.0424505
-0.042976
-0.0433882
-0.0436863
-0.0438702
-0.0439396
-0.0438947
-0.0437355
-0.0434625
-0.0430755
-0.0168321
-0.0185552
-0.0203295
-0.0221407
-0.0239732
-0.0258118
-0.0276408
-0.0294456
-0.031212
-0.0329272
-0.0345795
-0.0361585
-0.0376552
-0.0390621
-0.0403729
-0.0415823
-0.0426865
-0.0436822
-0.0445673
-0.0453399
-0.0459991
-0.0465442
-0.0469749
-0.0472912
-0.047493
-0.0475804
-0.0475537
-0.0474131
-0.0471591
-0.0467912
-0.0189603
-0.0208247
-0.0227349
-0.0246747
-0.0266275
-0.0285769
-0.0305067
-0.032402
-0.0342486
-0.036034
-0.0377471
-0.0393782
-0.0409193
-0.0423637
-0.043706
-0.044942
-0.0460687
-0.0470838
-0.0479857
-0.0487734
-0.0494466
-0.050005
-0.0504488
-0.0507784
-0.0509939
-0.0510958
-0.0510844
-0.0509602
-0.0507235
-0.0503741
-0.0211861
-0.0231844
-0.0252211
-0.0272787
-0.0293397
-0.0313867
-0.0334034
-0.0353749
-0.0372873
-0.0391287
-0.0408889
-0.042559
-0.044132
-0.0456023
-0.0469655
-0.0482185
-0.0493589
-0.0503854
-0.0512971
-0.0520936
-0.052775
-0.0533417
-0.0537941
-0.0541328
-0.0543584
-0.0544715
-0.0544725
-0.054362
-0.0541406
-0.0538081
-0.0234898
-0.0256122
-0.0277644
-0.0299275
-0.0320831
-0.0342138
-0.0363032
-0.0383365
-0.0403008
-0.0421848
-0.0439792
-0.0456764
-0.0472704
-0.0487567
-0.050132
-0.0513939
-0.0525411
-0.0535728
-0.0544888
-0.0552894
-0.0559748
-0.0565458
-0.0570033
-0.057348
-0.0575807
-0.057702
-0.0577127
-0.0576135
-0.057405
-0.0570872
-0.0258507
-0.028086
-0.0303411
-0.0325964
-0.0348329
-0.0370332
-0.0391812
-0.0412628
-0.0432658
-0.0451802
-0.0469977
-0.0487118
-0.0503178
-0.0518121
-0.0531924
-0.0544573
-0.0556061
-0.0566386
-0.0575551
-0.0583563
-0.0590428
-0.0596156
-0.0600757
-0.0604242
-0.0606618
-0.0282479
-0.0305839
-0.0329289
-0.0352627
-0.0375663
-0.0398225
-0.0420159
-0.0441333
-0.0461636
-0.0480978
-0.049929
-0.0516519
-0.0532627
-0.054759
-0.0561393
-0.0574029
-0.0585498
-0.0595804
-0.0604952
-0.0612951
-0.0619811
-0.0625542
-0.0630155
-0.0633663
-0.0636073
-0.0306614
-0.0330852
-0.0355068
-0.0379058
-0.0402634
-0.0425629
-0.0447898
-0.046932
-0.0489797
-0.0509251
-0.0527625
-0.0544878
-0.0560983
-0.0575924
-0.0589695
-0.0602294
-0.0613727
-0.0623999
-0.063312
-0.06411
-0.0647949
-0.0653678
-0.0658298
-0.0661821
-0.0664255
-0.0330721
-0.035571
-0.0380563
-0.0405078
-0.0429071
-0.0452386
-0.0474887
-0.0496466
-0.0517036
-0.0536535
-0.0554916
-0.0572149
-0.0588217
-0.0603111
-0.0616833
-0.0629385
-0.0640774
-0.0651012
-0.0660107
-0.066807
-0.0674911
-0.068064
-0.0685268
-0.0688806
-0.0691262
-0.0354627
-0.0380243
-0.0405611
-0.0430534
-0.0454838
-0.0478373
-0.0501019
-0.052268
-0.0543283
-0.0562776
-0.0581126
-0.0598311
-0.0614324
-0.0629162
-0.064283
-0.0655336
-0.0666688
-0.0676898
-0.0685976
-0.0693931
-0.0700773
-0.0706511
-0.0711153
-0.071471
-0.0717188
-0.0378175
-0.0404301
-0.0430073
-0.0455302
-0.0479821
-0.0503496
-0.0526218
-0.0547903
-0.0568493
-0.0587948
-0.0606244
-0.0623369
-0.063932
-0.0654103
-0.0667723
-0.0680192
-0.069152
-0.0701716
-0.0710791
-0.0718752
-0.0725609
-0.0731366
-0.0736033
-0.0739615
-0.0742118
-0.0401228
-0.0427758
-0.0453835
-0.047928
-0.0503938
-0.0527686
-0.0550429
-0.0572099
-0.0592646
-0.0612043
-0.0630275
-0.0647336
-0.0663232
-0.0677967
-0.0691554
-0.0704002
-0.0715321
-0.0725522
-0.0734611
-0.0742595
-0.0749481
-0.0755271
-0.0759973
-0.0763589
-0.042367
-0.0450508
-0.0476805
-0.0502391
-0.0527124
-0.0550894
-0.0573621
-0.0595246
-0.0615734
-0.0635065
-0.0653233
-0.0670238
-0.0686088
-0.0700792
-0.0714362
-0.0726808
-0.0738139
-0.0748363
-0.0757485
-0.076551
-0.077244
-0.0778277
-0.0783024
-0.0786684
-0.0445401
-0.0472464
-0.0498909
-0.0524575
-0.0549334
-0.0573089
-0.0595772
-0.0617338
-0.063776
-0.0657026
-0.0675137
-0.0692097
-0.0707918
-0.072261
-0.0736183
-0.0748647
-0.076001
-0.0770276
-0.0779449
-0.0787531
-0.0794522
-0.0466338
-0.0493558
-0.052009
-0.0545788
-0.0570536
-0.0594251
-0.0616876
-0.0638375
-0.0658731
-0.067794
-0.0696006
-0.0712938
-0.0728748
-0.0743446
-0.0757043
-0.0769546
-0.0780961
-0.0791288
-0.0800529
-0.0808683
-0.0815747
-0.0486415
-0.0513732
-0.0540305
-0.0565998
-0.059071
-0.0614368
-0.0636927
-0.065836
-0.0678658
-0.0697821
-0.0715858
-0.0732779
-0.0748597
-0.0763322
-0.0776962
-0.0789523
-0.0801006
-0.0811411
-0.0820734
-0.0828974
-0.0836123
-0.0505576
-0.0532943
-0.055952
-0.0585182
-0.0609841
-0.0633435
-0.0655927
-0.06773
-0.0697549
-0.0716681
-0.0734705
-0.0751633
-0.0767477
-0.0782247
-0.0795948
-0.0808582
-0.082015
-0.0830646
-0.0840064
-0.0848399
-0.0855642
-0.0523778
-0.0551157
-0.057771
-0.0603324
-0.062792
-0.0651447
-0.0673877
-0.0695198
-0.0715411
-0.0734526
-0.0752553
-0.0769506
-0.0785393
-0.0800224
-0.0814
-0.0826723
-0.0838387
-0.0848984
-0.0858507
-0.0866946
-0.0874288
-0.0540982
-0.0568346
-0.0594856
-0.062041
-0.0644939
-0.0668402
-0.0690776
-0.0712056
-0.0732247
-0.0751359
-0.0769405
-0.0786397
-0.0802343
-0.0817247
-0.0831112
-0.0843933
-0.0855702
-0.086641
-0.0876043
-0.088459
-0.0892036
-0.0557162
-0.0584489
-0.0610941
-0.063643
-0.0660893
-0.0684296
-0.0706623
-0.0727874
-0.0748055
-0.0767179
-0.0785257
-0.0802301
-0.0818316
-0.0833306
-0.0847268
-0.0860195
-0.0872076
-0.0882898
-0.0892646
-0.0901303
-0.0908855
-0.0721414
-0.0742646
-0.076283
-0.0781977
-0.0800099
-0.0817205
-0.0833299
-0.0848382
-0.0862448
-0.0875485
-0.0887482
-0.0898421
-0.0908283
-0.0917052
-0.0924708
-0.0889776
-0.0901889
-0.0912944
-0.0922921
-0.09318
-0.0939559
)
;

boundaryField
{
    movingWall
    {
        type            zeroGradient;
    }
    fixedWalls
    {
        type            zeroGradient;
    }
    frontAndBack
    {
        type            empty;
    }
    procBoundary1to0
    {
        type            processor;
        value           nonuniform List<scalar> 
45
(
-0.00183504
-0.00174858
-0.00167968
-0.00161825
-0.00156324
-0.00151975
-0.00149335
-0.00149034
-0.00151815
-0.00158541
-0.00170189
-0.00187843
-0.00212682
-0.00245967
-0.00289005
-0.00343118
-0.0040959
-0.00489615
-0.0058423
-0.00694254
-0.00694254
-0.00726637
-0.00855239
-0.00999117
-0.0115795
-0.0133106
-0.0151742
-0.0171572
-0.0192436
-0.0214159
-0.0236551
-0.0259418
-0.0282568
-0.0305814
-0.0328982
-0.0351911
-0.0374456
-0.0396492
-0.0417909
-0.0438612
-0.0458523
-0.0477576
-0.0495717
-0.0512899
-0.0529086
)
;
    }
    procBoundary1to3
    {
        type            processor;
        value           nonuniform List<scalar> 
23
(
-0.0572289
-0.0599564
-0.0625952
-0.0651372
-0.0675773
-0.0699124
-0.0699124
-0.0735139
-0.0756364
-0.0776561
-0.0795741
-0.0813916
-0.0831092
-0.0847271
-0.0862452
-0.0876625
-0.0876625
-0.0903037
-0.0915265
-0.0926435
-0.0936523
-0.0945508
-0.0953366
)
;
    }
    procBoundary1to6
    {
        type            processor;
        value           nonuniform List<scalar> 
26
(
-0.0607891
-0.0608071
-0.0607167
-0.0605185
-0.0602129
-0.0607891
-0.063739
-0.0665606
-0.069264
-0.071859
-0.0743546
-0.0766123
-0.0766123
-0.0800419
-0.0805222
-0.0789256
-0.0808933
-0.0800419
-0.0821715
-0.0842172
-0.086178
-0.0880519
-0.0898364
-0.091528
-0.0931231
-0.0946175
)
;
    }
    procBoundary1to7
    {
        type            processor;
        value           nonuniform List<scalar> 
33
(
0.00059179
0.000405346
0.000283044
0.000178709
6.2721e-05
-8.21351e-05
-0.000275665
-0.00112341
-0.000540928
-0.000997397
-0.00205443
-0.00112341
-0.0018547
-0.00205443
-0.00284873
-0.00387493
-0.00517117
-0.00677204
-0.00870488
-0.010986
-0.0136171
-0.0165833
-0.0198521
-0.0233753
-0.0270927
-0.0309369
-0.0348395
-0.0387367
-0.0425741
-0.0463088
-0.0499112
-0.0533638
-0.0566594
)
;
    }
}


// ************************************************************************* //
