/*--------------------------------*- C++ -*----------------------------------*\
  =========                 |
  \\      /  F ield         | OpenFOAM: The Open Source CFD Toolbox
   \\    /   O peration     | Website:  https://openfoam.org
    \\  /    A nd           | Version:  9
     \\/     M anipulation  |
\*---------------------------------------------------------------------------*/
FoamFile
{
    format      ascii;
    class       volScalarField;
    location    "2";
    object      p;
}
// * * * * * * * * * * * * * * * * * * * * * * * * * * * * * * * * * * * * * //

dimensions      [0 2 -2 0 0 0 0];

internalField   nonuniform List<scalar> 
10000
(
3.08024e-07
1.19327e-05
1.6028e-05
1.03753e-05
-6.37522e-06
-3.43113e-05
-7.27299e-05
-0.000120662
-0.00017714
-0.000241302
-0.000312443
-0.000390018
-0.000473635
-0.000563045
-0.000658113
-0.000758797
-0.000865119
-0.000977141
-0.00109494
-0.00121856
-0.00134805
-0.00148336
-0.00162437
-0.00177085
-0.00192246
-0.00207869
-0.00223887
-0.00240216
-0.00256751
-0.00273365
-0.0028991
-0.00306217
-0.00322092
-0.00337323
-0.00351675
-0.00364899
-0.00376731
-0.00386899
-0.00395125
-0.00401138
-0.00404675
-0.00405492
-0.00403373
-0.00398141
-0.00389663
-0.00377866
-0.00362739
-0.00344344
-0.00322824
-0.00298405
-0.00271401
-0.00242199
-0.00211298
-0.00179256
-0.00146696
-0.00114304
-0.000828023
-0.000529362
-0.000254503
-1.06688e-05
0.000195376
0.00035756
0.000470725
0.000530825
0.000535092
0.000482157
0.000372116
0.00020654
-1.15734e-05
-0.000277954
-0.0005871
-0.000932639
-0.0013075
-0.00170419
-0.00211507
-0.00253263
-0.00294973
-0.00335979
-0.003757
-0.00413641
-0.00449399
-0.00482669
-0.00513235
-0.00540972
-0.0056583
-0.00587823
-0.00607021
-0.0062353
-0.0063748
-0.00649012
-0.00658267
-0.00665373
-0.00670443
-0.00673578
-0.00674875
-0.00674466
-0.00672576
-0.00669625
-0.00666278
-0.00663651
-1.08122e-05
6.78123e-07
2.29452e-06
-5.4102e-06
-2.25641e-05
-4.93784e-05
-8.54998e-05
-0.000130291
-0.000183058
-0.000243145
-0.000309986
-0.000383067
-0.000462088
-0.000546797
-0.000637042
-0.000732757
-0.000833936
-0.000940605
-0.00105281
-0.00117058
-0.00129393
-0.00142282
-0.00155712
-0.00169663
-0.00184103
-0.00198987
-0.00214253
-0.00229826
-0.00245609
-0.00261487
-0.00277325
-0.00292968
-0.00308236
-0.00322934
-0.00336844
-0.00349732
-0.00361353
-0.00371449
-0.00379758
-0.00386023
-0.00389991
-0.00391428
-0.00390125
-0.00385906
-0.00378639
-0.00368246
-0.00354708
-0.00338074
-0.00318471
-0.00296109
-0.00271284
-0.00244355
-0.00215761
-0.00186049
-0.00155813
-0.00125699
-0.000963935
-0.000686059
-0.000430447
-0.000203984
-1.31177e-05
0.000136361
0.000239538
0.000292565
0.000292817
0.00023901
0.000131259
-2.89122e-05
-0.000238622
-0.000493748
-0.000789103
-0.00111857
-0.00147546
-0.00185266
-0.00224298
-0.00263934
-0.00303506
-0.00342399
-0.00380072
-0.00416066
-0.00450009
-0.00481619
-0.00510699
-0.00537134
-0.00560878
-0.00581947
-0.00600402
-0.00616342
-0.00629889
-0.00641176
-0.00650339
-0.00657508
-0.00662808
-0.00666354
-0.00668269
-0.00668696
-0.00667843
-0.00666039
-0.00663659
-0.00661022
-1.45336e-05
-7.58553e-07
6.57986e-07
-7.71403e-06
-2.49772e-05
-5.11888e-05
-8.6033e-05
-0.000128963
-0.000179391
-0.000236754
-0.000300541
-0.000370384
-0.000445926
-0.00052696
-0.000613351
-0.000705038
-0.000802013
-0.000904303
-0.00101195
-0.00112501
-0.00124349
-0.00136737
-0.00149657
-0.00163091
-0.00177014
-0.00191386
-0.00206153
-0.00221248
-0.00236584
-0.00252056
-0.0026754
-0.00282891
-0.00297943
-0.00312509
-0.00326382
-0.0033934
-0.00351142
-0.00361538
-0.00370272
-0.00377086
-0.00381729
-0.00383963
-0.00383574
-0.00380378
-0.00374233
-0.00365048
-0.00352791
-0.00337496
-0.00319272
-0.00298314
-0.00274898
-0.00249327
-0.002221
-0.00193708
-0.00164728
-0.00135794
-0.00107581
-0.000807872
-0.00056112
-0.000342369
-0.000158014
-1.38031e-05
8.53772e-05
0.000135694
0.000134531
8.06041e-05
-2.59774e-05
-0.000183702
-0.00038971
-0.000639899
-0.000929103
-0.0012513
-0.00159983
-0.00196769
-0.0023478
-0.00273321
-0.0031174
-0.00349442
-0.00385903
-0.00420686
-0.00453439
-0.004839
-0.00511891
-0.00537311
-0.00560131
-0.00580374
-0.00598112
-0.0061345
-0.00626513
-0.00637439
-0.00646365
-0.00653428
-0.00658753
-0.00662459
-0.00664659
-0.00665474
-0.00665061
-0.0066365
-0.00661288
-0.00657666
-8.32398e-06
7.17013e-06
8.65818e-06
-1.30843e-07
-1.76097e-05
-4.36201e-05
-7.77695e-05
-0.000119506
-0.000168276
-0.000223565
-0.000284926
-0.000352001
-0.000424504
-0.000502251
-0.000585136
-0.00067312
-0.000766214
-0.000864473
-0.000967969
-0.00107678
-0.00119096
-0.00131054
-0.0014355
-0.00156572
-0.00170102
-0.0018411
-0.00198551
-0.00213368
-0.00228483
-0.00243805
-0.00259218
-0.00274587
-0.00289756
-0.00304546
-0.00318756
-0.00332165
-0.00344537
-0.00355619
-0.00365151
-0.00372867
-0.00378506
-0.0038182
-0.00382578
-0.00380582
-0.0037567
-0.00367735
-0.00356723
-0.00342653
-0.00325616
-0.00305788
-0.00283426
-0.00258839
-0.002325
-0.00204897
-0.00176601
-0.00148245
-0.00120504
-0.000940798
-0.000696774
-0.000479862
-0.000296547
-0.000152679
-5.32491e-05
-2.18732e-06
-2.19875e-06
-5.46395e-05
-0.000159448
-0.000315132
-0.000518825
-0.000766393
-0.00105261
-0.00137138
-0.00171596
-0.00207928
-0.00245416
-0.00283365
-0.00321118
-0.00358084
-0.00393745
-0.00427672
-0.00459529
-0.00489068
-0.00516131
-0.00540635
-0.00562568
-0.00581975
-0.00598943
-0.00613591
-0.00626058
-0.00636493
-0.00645043
-0.00651848
-0.00657036
-0.00660718
-0.00662991
-0.00663937
-0.00663654
-0.00662275
-0.00659583
-0.00654819
9.5797e-06
2.48445e-05
2.55932e-05
1.59688e-05
-2.11674e-06
-2.83322e-05
-6.22053e-05
-0.000103162
-0.000150665
-0.000204239
-0.000263482
-0.000328072
-0.000397776
-0.00047245
-0.000552023
-0.000636499
-0.000725934
-0.000820423
-0.000920095
-0.00102508
-0.00113552
-0.0012515
-0.00137309
-0.00150029
-0.00163299
-0.00177103
-0.00191406
-0.00206164
-0.00221311
-0.00236767
-0.00252426
-0.00268163
-0.00283826
-0.00299242
-0.00314211
-0.00328511
-0.00341898
-0.0035411
-0.00364876
-0.00373914
-0.00380945
-0.003857
-0.00387926
-0.00387402
-0.00383945
-0.00377423
-0.00367763
-0.00354961
-0.00339095
-0.00320315
-0.0029884
-0.00275078
-0.0024939
-0.00222286
-0.00194342
-0.00166195
-0.00138529
-0.00112054
-0.0008749
-0.000655421
-0.000468764
-0.000320967
-0.000217216
-0.00016163
-0.000157088
-0.000205092
-0.000305696
-0.000457479
-0.000657599
-0.000901901
-0.00118509
-0.00150095
-0.00184261
-0.00220282
-0.00257429
-0.00294984
-0.00332282
-0.00368721
-0.00403778
-0.00437027
-0.00468135
-0.00496866
-0.00523074
-0.00546699
-0.00567747
-0.00586284
-0.00602418
-0.0061629
-0.00628057
-0.00637882
-0.00645928
-0.00652341
-0.00657252
-0.00660767
-0.00662963
-0.00663887
-0.00663583
-0.00662108
-0.00659043
-0.0065329
3.97244e-05
5.27599e-05
5.17498e-05
4.06691e-05
2.14631e-05
-5.41902e-06
-3.94448e-05
-8.00304e-05
-0.000126658
-0.000178891
-0.000236368
-0.000298819
-0.000366061
-0.000438004
-0.000514631
-0.000596002
-0.000682238
-0.000773508
-0.000870018
-0.000971993
-0.00107966
-0.00119323
-0.00131289
-0.00143876
-0.00157089
-0.00170922
-0.00185359
-0.00200366
-0.00215892
-0.00231865
-0.00248191
-0.0026475
-0.00281392
-0.00297943
-0.00314197
-0.00329922
-0.00344861
-0.00358735
-0.0037125
-0.00382101
-0.00390983
-0.00397598
-0.00401667
-0.0040294
-0.00401207
-0.00396311
-0.00388156
-0.00376719
-0.00362059
-0.00344313
-0.00323699
-0.00300576
-0.00275342
-0.00248496
-0.00220617
-0.00192347
-0.0016438
-0.00137442
-0.00112272
-0.000895949
-0.000701023
-0.000544246
-0.000431084
-0.000365939
-0.00035196
-0.000390898
-0.000483013
-0.000627048
-0.000820259
-0.00105853
-0.00133652
-0.00164794
-0.00198576
-0.00234253
-0.00271072
-0.00308296
-0.00345233
-0.00381263
-0.00415849
-0.00448552
-0.00479038
-0.00507071
-0.00532515
-0.00555326
-0.00575524
-0.00593197
-0.00608477
-0.00621526
-0.00632524
-0.00641655
-0.00649095
-0.00655005
-0.0065952
-0.00662743
-0.00664739
-0.00665526
-0.00665108
-0.00663485
-0.006601
-0.00653631
8.1813e-05
9.0816e-05
8.70183e-05
7.37985e-05
5.29178e-05
2.49011e-05
-9.69088e-06
-5.02953e-05
-9.64271e-05
-0.000147694
-0.00020379
-0.000264504
-0.000329716
-0.0003994
-0.000473615
-0.000552499
-0.000636262
-0.000725172
-0.000819547
-0.000919736
-0.0010261
-0.001139
-0.00125878
-0.00138573
-0.00152006
-0.0016619
-0.00181121
-0.00196783
-0.00213136
-0.00230119
-0.00247642
-0.00265585
-0.00283799
-0.00302098
-0.00320265
-0.00338049
-0.00355169
-0.00371321
-0.0038618
-0.00399409
-0.00410671
-0.00419634
-0.00425986
-0.00429447
-0.00429777
-0.00426791
-0.0042037
-0.00410468
-0.00397126
-0.00380469
-0.00360706
-0.00338174
-0.00313276
-0.00286509
-0.00258454
-0.00229761
-0.00201134
-0.00173316
-0.00147066
-0.00123136
-0.00102247
-0.000850643
-0.000721708
-0.000640455
-0.000610421
-0.000633729
-0.000710977
-0.000841192
-0.00102185
-0.00124898
-0.0015173
-0.00182048
-0.00215136
-0.00250234
-0.0028656
-0.00323351
-0.00359885
-0.00395516
-0.00429675
-0.00461907
-0.0049186
-0.00519293
-0.0054407
-0.00566143
-0.00585556
-0.00602411
-0.00616858
-0.00629084
-0.00639291
-0.00647684
-0.0065446
-0.00659793
-0.00663829
-0.00666674
-0.00668384
-0.00668962
-0.00668383
-0.00666612
-0.00663011
-0.00656133
0.000135142
0.000138515
0.000130955
0.000114924
9.18349e-05
6.22481e-05
2.67109e-05
-1.42649e-05
-6.02563e-05
-0.000110933
-0.000166061
-0.000225502
-0.000289216
-0.000357262
-0.000429791
-0.000507045
-0.000589353
-0.000677117
-0.000770799
-0.000870911
-0.000977994
-0.0010926
-0.00121526
-0.00134648
-0.00148666
-0.00163611
-0.00179499
-0.00196326
-0.00214064
-0.00232657
-0.00252017
-0.0027202
-0.00292505
-0.00313271
-0.00334078
-0.00354647
-0.00374668
-0.00393798
-0.00411677
-0.0042793
-0.0044218
-0.00454059
-0.00463219
-0.00469344
-0.00472163
-0.00471465
-0.00467102
-0.00459006
-0.00447196
-0.00431779
-0.00412958
-0.00391048
-0.00366445
-0.00339645
-0.00311226
-0.00281842
-0.00252208
-0.00223081
-0.00195244
-0.00169477
-0.00146535
-0.00127125
-0.00111878
-0.00101321
-0.000958602
-0.00095761
-0.00101133
-0.00111924
-0.0012792
-0.00148753
-0.00173914
-0.00202778
-0.00234627
-0.00268684
-0.00304147
-0.00340221
-0.00376152
-0.00411252
-0.00444923
-0.00476674
-0.00506126
-0.0053302
-0.00557206
-0.00578635
-0.00597349
-0.00613464
-0.00627143
-0.00638593
-0.00648037
-0.00655701
-0.00661803
-0.00666535
-0.00670056
-0.00672479
-0.00673864
-0.00674204
-0.00673462
-0.00671579
-0.00667886
-0.00660897
0.000198777
0.000195097
0.000182882
0.000163435
0.000137661
0.000106121
6.93071e-05
2.76347e-05
-1.85615e-05
-6.90438e-05
-0.000123669
-0.000182395
-0.000245278
-0.000312486
-0.000384289
-0.000461064
-0.000543291
-0.00063154
-0.000726464
-0.000828779
-0.00093925
-0.00105866
-0.00118778
-0.00132734
-0.00147798
-0.0016402
-0.00181434
-0.00200048
-0.00219841
-0.0024076
-0.00262712
-0.00285559
-0.00309123
-0.00333177
-0.00357449
-0.00381624
-0.00405352
-0.00428249
-0.00449912
-0.00469921
-0.00487857
-0.00503311
-0.00515896
-0.00525261
-0.00531101
-0.00533172
-0.00531299
-0.00525388
-0.00515429
-0.00501509
-0.00483818
-0.00462645
-0.00438375
-0.00411492
-0.00382568
-0.00352257
-0.00321279
-0.00290406
-0.00260439
-0.00232188
-0.0020645
-0.00183978
-0.00165457
-0.00151479
-0.00142517
-0.00138905
-0.00140822
-0.00148281
-0.00161129
-0.00179047
-0.00201564
-0.00228078
-0.00257882
-0.00290195
-0.00324197
-0.00359066
-0.00394009
-0.00428297
-0.00461288
-0.00492448
-0.00521358
-0.00547724
-0.00571372
-0.00592236
-0.00610346
-0.00625826
-0.00638838
-0.00649603
-0.00658361
-0.00665358
-0.0067083
-0.00674988
-0.00678009
-0.00680017
-0.0068108
-0.00681195
-0.00680318
-0.00678384
-0.00674727
-0.0066789
0.000271588
0.000259528
0.000241916
0.000218517
0.00018965
0.00015584
0.000117456
7.47864e-05
2.80313e-05
-2.26924e-05
-7.73604e-05
-0.000136048
-0.000198939
-0.000266332
-0.00033865
-0.000416441
-0.000500373
-0.000591228
-0.000689896
-0.000797345
-0.000914609
-0.00104274
-0.0011828
-0.00133575
-0.00150249
-0.00168373
-0.00187995
-0.00209132
-0.00231768
-0.00255842
-0.0028125
-0.00307835
-0.00335388
-0.00363648
-0.00392304
-0.00420998
-0.00449332
-0.00476875
-0.00503173
-0.00527762
-0.00550177
-0.00569963
-0.00586694
-0.00599979
-0.00609478
-0.00614909
-0.00616068
-0.00612826
-0.00605146
-0.0059308
-0.00576802
-0.0055657
-0.00532748
-0.005058
-0.00476286
-0.00444852
-0.00412217
-0.0037916
-0.00346502
-0.00315082
-0.00285737
-0.00259273
-0.00236438
-0.002179
-0.00204213
-0.001958
-0.00192932
-0.00195711
-0.00204066
-0.00217755
-0.00236368
-0.00259351
-0.00286026
-0.00315623
-0.00347314
-0.00380256
-0.00413621
-0.00446632
-0.00478598
-0.00508928
-0.00537153
-0.00562931
-0.00586046
-0.006064
-0.00624007
-0.00638954
-0.00651422
-0.00661628
-0.0066982
-0.00676259
-0.00681196
-0.00684862
-0.00687447
-0.00689095
-0.00689883
-0.00689819
-0.00688864
-0.0068695
-0.00683449
-0.00676984
0.000352195
0.000330598
0.000306875
0.00027909
0.00024682
0.000210465
0.000170264
0.000126303
7.86099e-05
2.71456e-05
-2.82152e-05
-8.76963e-05
-0.000151636
-0.000220502
-0.000294904
-0.000375599
-0.000463491
-0.000559625
-0.000665173
-0.000781408
-0.000909672
-0.00105134
-0.00120775
-0.00138018
-0.00156975
-0.00177736
-0.0020036
-0.00224871
-0.00251246
-0.00279415
-0.0030925
-0.00340564
-0.00373113
-0.00406592
-0.00440642
-0.00474854
-0.00508778
-0.00541931
-0.00573807
-0.00603891
-0.00631668
-0.0065664
-0.00678334
-0.00696318
-0.0071021
-0.00719693
-0.00724521
-0.00724531
-0.00719648
-0.0070989
-0.00695395
-0.00676391
-0.00653209
-0.00626288
-0.00596164
-0.00563465
-0.00528905
-0.00493262
-0.00457369
-0.00422091
-0.00388303
-0.00356867
-0.00328602
-0.00304257
-0.00284485
-0.00269815
-0.00260629
-0.00257148
-0.00259412
-0.00267284
-0.00280446
-0.0029842
-0.00320582
-0.00346197
-0.00374448
-0.00404479
-0.00435432
-0.00466487
-0.00496894
-0.00525999
-0.00553267
-0.00578294
-0.00600805
-0.00620653
-0.00637808
-0.00652339
-0.00664396
-0.0067419
-0.00681969
-0.00687998
-0.0069254
-0.00695838
-0.006981
-0.00699484
-0.00700083
-0.00699917
-0.0069896
-0.0069715
-0.0069391
-0.00687984
0.000438986
0.00040675
0.000376316
0.000343803
0.000307866
0.00026877
0.000226524
0.000180966
0.000131907
7.91133e-05
2.22738e-05
-3.90173e-05
-0.000105289
-0.000177218
-0.000255641
-0.000341574
-0.000436206
-0.000540896
-0.000657151
-0.000786594
-0.000930922
-0.00109185
-0.00127105
-0.00147008
-0.00169027
-0.00193268
-0.00219799
-0.0024864
-0.00279758
-0.00313059
-0.00348385
-0.00385512
-0.00424148
-0.00463939
-0.00504471
-0.00545279
-0.00585855
-0.00625658
-0.00664129
-0.00700697
-0.00734797
-0.00765881
-0.00793429
-0.00816962
-0.00836056
-0.0085035
-0.00859556
-0.00863468
-0.00861971
-0.00855042
-0.00842774
-0.00825358
-0.00803086
-0.0077636
-0.00745684
-0.00711661
-0.00674984
-0.00636425
-0.00596817
-0.00557045
-0.00518018
-0.00480649
-0.00445827
-0.00414391
-0.00387101
-0.00364609
-0.00347431
-0.00335927
-0.00330284
-0.003305
-0.00336387
-0.00347578
-0.00363539
-0.00383596
-0.0040697
-0.00432812
-0.00460247
-0.00488415
-0.00516505
-0.00543796
-0.00569675
-0.00593656
-0.00615389
-0.00634659
-0.00651376
-0.00665561
-0.00677327
-0.00686861
-0.00694395
-0.00700188
-0.00704507
-0.00707601
-0.0070969
-0.00710944
-0.00711473
-0.00711311
-0.00710444
-0.00708822
-0.00705934
-0.00700665
0.00053003
0.000486129
0.000448488
0.000410961
0.000371181
0.000329174
0.000284658
0.000237166
0.000186241
0.000131411
7.21415e-05
7.80382e-06
-6.23623e-05
-0.000139284
-0.000224079
-0.00031807
-0.000422788
-0.000539959
-0.000671478
-0.000819361
-0.000985694
-0.00117256
-0.00138196
-0.00161571
-0.00187534
-0.00216203
-0.00247644
-0.00281868
-0.00318821
-0.00358378
-0.00400341
-0.00444438
-0.00490324
-0.00537586
-0.0058575
-0.00634287
-0.00682629
-0.00730175
-0.00776303
-0.00820388
-0.0086181
-0.00899967
-0.0093429
-0.00964251
-0.0098938
-0.0100927
-0.0102359
-0.0103208
-0.0103459
-0.0103105
-0.0102149
-0.0100608
-0.00985054
-0.00958771
-0.00927694
-0.00892388
-0.00853516
-0.00811828
-0.00768149
-0.00723369
-0.0067842
-0.00634256
-0.00591834
-0.0055208
-0.00515863
-0.00483969
-0.00457063
-0.00435672
-0.00420154
-0.00410682
-0.00407235
-0.00409599
-0.0041737
-0.0042998
-0.00446719
-0.00466777
-0.00489282
-0.00513345
-0.00538103
-0.00562761
-0.00586616
-0.0060909
-0.00629737
-0.00648252
-0.00664464
-0.00678324
-0.00689888
-0.00699298
-0.00706755
-0.007125
-0.00716788
-0.00719867
-0.0072196
-0.00723248
-0.0072385
-0.00723816
-0.00723145
-0.00721799
-0.00719335
-0.00714795
0.000623048
0.000566576
0.000521257
0.000478526
0.000434773
0.000389704
0.00034268
0.000292861
0.00023947
0.000181749
0.000118901
5.0029e-05
-2.59042e-05
-0.000110127
-0.000204089
-0.00030948
-0.000428231
-0.000562486
-0.000714573
-0.000886943
-0.0010821
-0.00130249
-0.00155043
-0.00182798
-0.00213683
-0.00247816
-0.00285257
-0.00325997
-0.00369952
-0.00416956
-0.00466761
-0.00519038
-0.00573382
-0.00629312
-0.00686287
-0.00743713
-0.00800952
-0.00857338
-0.00912187
-0.00964813
-0.0101454
-0.0106071
-0.011027
-0.0113993
-0.0117189
-0.0119812
-0.0121825
-0.0123197
-0.0123909
-0.0123949
-0.0123315
-0.0122019
-0.012008
-0.0117528
-0.0114405
-0.0110762
-0.0106661
-0.0102175
-0.0097382
-0.00923709
-0.00872352
-0.00820732
-0.00769854
-0.00720723
-0.00674314
-0.00631544
-0.00593239
-0.00560105
-0.00532698
-0.005114
-0.00496399
-0.00487677
-0.00485013
-0.00487991
-0.00496021
-0.00508369
-0.00524201
-0.00542625
-0.00562739
-0.00583673
-0.00604636
-0.00624939
-0.00644024
-0.00661473
-0.00677007
-0.00690484
-0.00701879
-0.00711267
-0.00718799
-0.00724678
-0.00729134
-0.007324
-0.00734695
-0.00736199
-0.00737037
-0.0073727
-0.00736908
-0.00735922
-0.00733941
-0.00730157
0.000715404
0.000645466
0.00059214
0.000544072
0.000496245
0.000447968
0.000398157
0.000345535
0.000288949
0.000227311
0.000159509
8.43348e-05
4.23944e-07
-9.38105e-05
-0.00020021
-0.00032089
-0.000458232
-0.000614855
-0.000793563
-0.000997263
-0.00122888
-0.00149124
-0.00178693
-0.0021182
-0.00248681
-0.0028939
-0.00333988
-0.00382438
-0.00434613
-0.00490296
-0.00549179
-0.00610869
-0.00674887
-0.00740682
-0.00807638
-0.00875085
-0.00942314
-0.0100859
-0.0107316
-0.0113527
-0.011942
-0.0124922
-0.0129966
-0.0134491
-0.0138438
-0.014176
-0.0144414
-0.0146367
-0.0147593
-0.0148076
-0.0147809
-0.0146804
-0.014507
-0.0142632
-0.0139527
-0.0135801
-0.0131509
-0.0126719
-0.0121507
-0.0115955
-0.0110158
-0.0104213
-0.00982239
-0.00922966
-0.00865375
-0.00810504
-0.00759334
-0.00712758
-0.00671545
-0.00636312
-0.0060749
-0.00585309
-0.00569782
-0.00560703
-0.00557659
-0.00560052
-0.00567133
-0.00578045
-0.00591872
-0.0060769
-0.00624614
-0.00641842
-0.00658684
-0.00674584
-0.00689135
-0.00702068
-0.00713252
-0.00722667
-0.0073039
-0.00736566
-0.00741382
-0.00745037
-0.00747737
-0.00749648
-0.00750895
-0.00751542
-0.00751605
-0.00751062
-0.00749607
-0.00746574
0.000803987
0.000719869
0.000658258
0.000604765
0.000552787
0.00050113
0.00044819
0.000392182
0.00033152
0.000264736
0.000190358
0.000106814
1.23522e-05
-9.50284e-05
-0.00021762
-0.000358025
-0.000519131
-0.000704073
-0.000916161
-0.00115878
-0.00143526
-0.00174877
-0.00210214
-0.00249773
-0.00293727
-0.00342177
-0.00395134
-0.00452519
-0.00514152
-0.00579754
-0.00648948
-0.00721262
-0.00796138
-0.00872943
-0.00950978
-0.0102949
-0.011077
-0.0118479
-0.0125995
-0.0133235
-0.014012
-0.0146574
-0.0152525
-0.0157906
-0.0162657
-0.0166725
-0.0170064
-0.0172638
-0.0174419
-0.0175386
-0.0175531
-0.0174853
-0.0173363
-0.0171081
-0.0168034
-0.0164265
-0.0159821
-0.0154762
-0.0149159
-0.014309
-0.0136644
-0.0129915
-0.0123008
-0.011603
-0.0109095
-0.0102315
-0.00958016
-0.00896624
-0.00839955
-0.00788871
-0.00744078
-0.00706091
-0.00675212
-0.00651507
-0.00634811
-0.00624727
-0.0062066
-0.00621843
-0.00627394
-0.00636362
-0.00647788
-0.00660753
-0.00674426
-0.00688094
-0.00701187
-0.00713285
-0.00724113
-0.00733531
-0.0074151
-0.0074811
-0.00753453
-0.00757693
-0.00760995
-0.00763506
-0.00765336
-0.00766546
-0.00767151
-0.00767129
-0.00766232
-0.00763919
0.00088533
0.000786423
0.000716329
0.000657364
0.000601159
0.000545911
0.000489412
0.000429301
0.000363508
0.000290132
0.000207287
0.000112984
5.02916e-06
-0.000119059
-0.000262084
-0.000427187
-0.000617812
-0.000837647
-0.00109052
-0.00138029
-0.00171068
-0.00208514
-0.00250666
-0.00297764
-0.00349967
-0.00407348
-0.00469878
-0.00537424
-0.00609738
-0.00686468
-0.00767152
-0.00851232
-0.00938058
-0.0102691
-0.0111699
-0.0120747
-0.0129747
-0.013861
-0.0147249
-0.0155574
-0.0163502
-0.017095
-0.0177843
-0.0184112
-0.0189693
-0.0194532
-0.0198579
-0.0201798
-0.0204156
-0.0205633
-0.0206216
-0.0205899
-0.020469
-0.0202602
-0.019966
-0.0195895
-0.0191351
-0.0186078
-0.0180139
-0.0173605
-0.0166557
-0.0159085
-0.0151287
-0.0143273
-0.0135154
-0.0127051
-0.0119084
-0.0111375
-0.0104043
-0.00971971
-0.00909363
-0.00853437
-0.00804826
-0.00763931
-0.00730904
-0.00705635
-0.00687758
-0.00676681
-0.0067162
-0.0067165
-0.00675771
-0.00682966
-0.00692258
-0.00702763
-0.00713723
-0.00724531
-0.00734734
-0.00744033
-0.00752262
-0.00759365
-0.00765371
-0.00770364
-0.00774453
-0.00777747
-0.0078033
-0.00782249
-0.00783508
-0.00784083
-0.00783767
-0.00782127
0.000955544
0.00084138
0.000762684
0.000698231
0.000637703
0.00057859
0.000517994
0.000452915
0.000380742
0.000299093
0.000205615
9.78429e-05
-2.69226e-05
-0.000171697
-0.000339858
-0.000535136
-0.00076157
-0.00102342
-0.00132503
-0.00167072
-0.00206455
-0.00251017
-0.00301066
-0.00356831
-0.00418448
-0.00485947
-0.00559244
-0.00638136
-0.00722295
-0.00811279
-0.00904531
-0.0100139
-0.0110111
-0.0120285
-0.0130575
-0.0140885
-0.0151121
-0.0161186
-0.0170984
-0.0180423
-0.0189412
-0.0197867
-0.020571
-0.0212869
-0.021928
-0.0224886
-0.0229641
-0.0233503
-0.0236442
-0.0238436
-0.0239469
-0.0239533
-0.0238633
-0.0236776
-0.0233982
-0.0230275
-0.0225691
-0.0220274
-0.0214074
-0.0207154
-0.0199586
-0.019145
-0.0182838
-0.0173851
-0.01646
-0.0155204
-0.014579
-0.0136488
-0.0127433
-0.0118755
-0.011058
-0.0103023
-0.00961822
-0.00901372
-0.00849412
-0.008062
-0.007717
-0.00745586
-0.00727264
-0.00715918
-0.00710565
-0.00710128
-0.00713502
-0.00719625
-0.00727533
-0.00736398
-0.00745551
-0.0075449
-0.00762872
-0.00770489
-0.00777247
-0.00783127
-0.00788164
-0.00792409
-0.00795905
-0.0079867
-0.00800692
-0.00801935
-0.0080222
-0.008012
0.00101036
0.000880632
0.000793288
0.000723347
0.000658372
0.000595037
0.000529682
0.000458607
0.000378606
0.000286763
0.000180205
5.59341e-05
-8.93119e-05
-0.000259147
-0.000457569
-0.000688945
-0.00095793
-0.00126936
-0.00162809
-0.00203883
-0.00250592
-0.00303313
-0.00362348
-0.00427903
-0.00500075
-0.00578838
-0.00664033
-0.00755373
-0.00852433
-0.00954666
-0.010614
-0.0117187
-0.012852
-0.0140046
-0.0151666
-0.0163277
-0.0174775
-0.0186056
-0.0197019
-0.0207565
-0.0217603
-0.0227044
-0.0235811
-0.0243831
-0.0251042
-0.0257387
-0.026282
-0.0267302
-0.0270804
-0.0273302
-0.0274781
-0.0275232
-0.0274656
-0.0273058
-0.0270452
-0.0266856
-0.0262298
-0.0256812
-0.0250442
-0.0243236
-0.0235256
-0.022657
-0.0217259
-0.0207415
-0.0197138
-0.0186544
-0.0175758
-0.0164913
-0.0154151
-0.0143621
-0.013347
-0.0123842
-0.0114871
-0.0106677
-0.00993564
-0.00929802
-0.0087587
-0.00831819
-0.00797362
-0.00771895
-0.00754547
-0.00744247
-0.00739807
-0.00740003
-0.00743653
-0.00749681
-0.00757165
-0.00765355
-0.00773681
-0.00781742
-0.00789277
-0.00796138
-0.00802253
-0.00807594
-0.00812146
-0.00815885
-0.00818771
-0.00820749
-0.00821657
-0.00821208
0.00104515
0.000899744
0.000803788
0.000728362
0.000658765
0.00059076
0.000519849
0.000441576
0.000352093
0.000247898
0.000125546
-1.85504e-05
-0.000188274
-0.00038789
-0.000622064
-0.000895822
-0.00121445
-0.00158335
-0.00200783
-0.00249294
-0.00304318
-0.00366234
-0.00435323
-0.00511754
-0.00595565
-0.00686655
-0.00784776
-0.00889535
-0.0100039
-0.0111668
-0.0123761
-0.0136226
-0.0148967
-0.0161877
-0.0174846
-0.0187763
-0.0200515
-0.0212992
-0.0225089
-0.0236703
-0.0247741
-0.0258117
-0.0267751
-0.0276575
-0.0284527
-0.0291555
-0.0297615
-0.0302671
-0.0306696
-0.0309667
-0.0311572
-0.03124
-0.0312151
-0.0310828
-0.030844
-0.0305001
-0.0300532
-0.0295057
-0.0288609
-0.0281229
-0.0272962
-0.0263865
-0.0254003
-0.0243455
-0.023231
-0.022067
-0.0208653
-0.0196387
-0.0184018
-0.0171699
-0.0159593
-0.014787
-0.0136693
-0.0126222
-0.01166
-0.0107947
-0.0100352
-0.00938694
-0.00885138
-0.00842594
-0.00810426
-0.00787679
-0.00773155
-0.00765514
-0.0076337
-0.00765387
-0.00770351
-0.00777219
-0.00785143
-0.00793474
-0.00801739
-0.00809619
-0.00816903
-0.00823457
-0.00829189
-0.00834018
-0.00837863
-0.00840642
-0.00842199
-0.00842286
0.00105504
0.000894024
0.00078956
0.00070865
0.000634199
0.00056097
0.000483566
0.000396722
0.000295902
0.000176974
3.58699e-05
-0.000131644
-0.000330123
-0.000564527
-0.000840222
-0.00116291
-0.0015385
-0.0019729
-0.00247185
-0.0030406
-0.00368372
-0.00440485
-0.00520645
-0.00608962
-0.007054
-0.0080976
-0.00921686
-0.0104066
-0.0116601
-0.0129693
-0.0143248
-0.0157162
-0.0171325
-0.0185618
-0.0199921
-0.0214114
-0.0228077
-0.0241696
-0.0254862
-0.0267472
-0.0279434
-0.0290661
-0.030108
-0.0310624
-0.0319237
-0.032687
-0.0333486
-0.0339051
-0.0343542
-0.0346941
-0.0349235
-0.0350416
-0.0350484
-0.034944
-0.034729
-0.0344044
-0.0339715
-0.0334324
-0.0327891
-0.0320446
-0.0312023
-0.0302663
-0.0292417
-0.0281346
-0.0269523
-0.0257034
-0.0243982
-0.0230485
-0.021668
-0.0202719
-0.0188772
-0.0175021
-0.0161655
-0.0148867
-0.0136842
-0.0125753
-0.0115745
-0.0106931
-0.00993802
-0.00931167
-0.0088116
-0.00843081
-0.00815845
-0.00798079
-0.00788243
-0.00784748
-0.00786066
-0.00790817
-0.0079782
-0.0080612
-0.00814978
-0.00823849
-0.00832348
-0.00840202
-0.00847217
-0.00853238
-0.00858132
-0.00861776
-0.00864018
-0.00864625
0.00103495
0.000858589
0.000745792
0.000659387
0.000579785
0.000500672
0.000415695
0.000318741
0.000204548
6.83071e-05
-9.47214e-05
-0.000289463
-0.000521191
-0.000795597
-0.00111876
-0.00149707
-0.001937
-0.00244494
-0.00302691
-0.00368831
-0.00443361
-0.0052661
-0.00618772
-0.00719879
-0.00829796
-0.00948208
-0.0107463
-0.0120839
-0.0134868
-0.0149452
-0.0164485
-0.0179846
-0.0195412
-0.0211054
-0.0226641
-0.0242047
-0.0257146
-0.0271821
-0.0285962
-0.0299468
-0.031225
-0.0324225
-0.0335323
-0.0345486
-0.0354662
-0.0362809
-0.0369895
-0.0375892
-0.0380781
-0.0384548
-0.0387185
-0.0388684
-0.0389046
-0.0388273
-0.0386367
-0.0383337
-0.0379191
-0.0373942
-0.0367604
-0.0360196
-0.0351739
-0.0342262
-0.0331799
-0.0320394
-0.0308101
-0.0294987
-0.0281135
-0.0266645
-0.0251638
-0.0236256
-0.0220664
-0.0205045
-0.0189604
-0.0174557
-0.0160126
-0.0146529
-0.013397
-0.0122624
-0.0112628
-0.010407
-0.009698
-0.00913318
-0.00870444
-0.00839906
-0.00820099
-0.00809227
-0.00805454
-0.00807029
-0.00812388
-0.00820201
-0.008294
-0.00839158
-0.00848864
-0.00858069
-0.00866447
-0.0087375
-0.00879777
-0.00884361
-0.00887321
-0.00888463
0.00097968
0.000788462
0.000667572
0.000575641
0.000490521
0.000404756
0.000310995
0.000202246
7.24827e-05
-8.38153e-05
-0.000272103
-0.00049804
-0.000767653
-0.00108739
-0.00146404
-0.00190463
-0.00241619
-0.00300548
-0.00367871
-0.00444124
-0.00529727
-0.0062496
-0.00729939
-0.00844596
-0.00968676
-0.0110173
-0.012431
-0.0139198
-0.0154738
-0.0170816
-0.0187308
-0.0204082
-0.0221001
-0.0237924
-0.0254715
-0.0271239
-0.028737
-0.0302989
-0.0317989
-0.0332272
-0.0345751
-0.0358354
-0.0370017
-0.0380686
-0.0390318
-0.039888
-0.0406343
-0.0412689
-0.0417902
-0.0421974
-0.0424898
-0.0426673
-0.0427298
-0.0426776
-0.042511
-0.0422305
-0.0418368
-0.0413305
-0.0407125
-0.0399837
-0.0391453
-0.0381989
-0.0371464
-0.0359906
-0.0347348
-0.0333837
-0.0319434
-0.0304216
-0.0288282
-0.0271755
-0.0254782
-0.023754
-0.0220231
-0.0203085
-0.0186346
-0.0170272
-0.0155117
-0.0141122
-0.0128494
-0.0117395
-0.0107929
-0.0100132
-0.009397
-0.00893443
-0.00861021
-0.0084053
-0.00829863
-0.00826898
-0.00829637
-0.00836319
-0.00845471
-0.00855919
-0.00866761
-0.00877329
-0.00887127
-0.00895788
-0.00903029
-0.00908625
-0.00912365
-0.0091408
0.000884056
0.000678673
0.000549994
0.000452482
0.000361409
0.000268124
0.000164252
4.18961e-05
-0.000105757
-0.000284977
-0.000501965
-0.000763152
-0.00107534
-0.00144572
-0.0018818
-0.0023912
-0.0029814
-0.00365943
-0.00443155
-0.00530292
-0.00627729
-0.00735671
-0.00854134
-0.0098293
-0.0112166
-0.012697
-0.0142625
-0.015903
-0.0176068
-0.019361
-0.0211515
-0.0229636
-0.0247826
-0.0265936
-0.0283822
-0.0301347
-0.0318385
-0.0334819
-0.0350545
-0.0365472
-0.037952
-0.0392625
-0.040473
-0.0415791
-0.0425773
-0.0434649
-0.04424
-0.0449011
-0.0454474
-0.0458785
-0.0461942
-0.0463944
-0.0464796
-0.0464499
-0.0463058
-0.0460476
-0.0456758
-0.0451908
-0.0445928
-0.0438822
-0.0430594
-0.0421248
-0.0410793
-0.0399239
-0.0386603
-0.037291
-0.0358199
-0.0342521
-0.0325949
-0.0308579
-0.0290536
-0.0271974
-0.0253084
-0.023409
-0.0215246
-0.0196833
-0.0179147
-0.0162483
-0.0147121
-0.0133305
-0.0121222
-0.0110988
-0.010264
-0.00961291
-0.00913307
-0.00880587
-0.00860851
-0.00851632
-0.00850489
-0.00855168
-0.0086372
-0.00874542
-0.00886377
-0.00898271
-0.0090952
-0.00919606
-0.00928141
-0.00934826
-0.00939423
-0.00941779
0.000743026
0.00052438
0.000388272
0.000285101
0.000187575
8.58177e-05
-2.95875e-05
-0.000167453
-0.000335402
-0.000540472
-0.000789645
-0.00109014
-0.00144953
-0.00187576
-0.00237701
-0.00296141
-0.00363681
-0.00441036
-0.00528821
-0.00627513
-0.00737418
-0.00858646
-0.00991091
-0.0113442
-0.0128806
-0.0145121
-0.0162289
-0.0180188
-0.0198684
-0.021763
-0.0236871
-0.0256248
-0.0275603
-0.029478
-0.0313633
-0.0332025
-0.0349831
-0.036694
-0.0383254
-0.039869
-0.0413178
-0.042666
-0.0439091
-0.0450435
-0.0460665
-0.0469763
-0.0477716
-0.0484517
-0.0490161
-0.049465
-0.0497985
-0.0500171
-0.0501209
-0.0501107
-0.0499868
-0.0497496
-0.0493995
-0.0489366
-0.048361
-0.0476724
-0.0468708
-0.0459559
-0.0449273
-0.0437849
-0.0425289
-0.0411599
-0.0396796
-0.0380907
-0.0363977
-0.0346071
-0.0327283
-0.0307741
-0.0287607
-0.0267086
-0.0246427
-0.0225916
-0.0205872
-0.0186634
-0.0168543
-0.0151923
-0.0137052
-0.0124142
-0.0113318
-0.0104608
-0.00979392
-0.00931522
-0.00900173