/*--------------------------------*- C++ -*----------------------------------*\
  =========                 |
  \\      /  F ield         | OpenFOAM: The Open Source CFD Toolbox
   \\    /   O peration     | Website:  https://openfoam.org
    \\  /    A nd           | Version:  9
     \\/     M anipulation  |
\*---------------------------------------------------------------------------*/
FoamFile
{
    format      ascii;
    class       surfaceScalarField;
    location    "2";
    object      phi;
}
// * * * * * * * * * * * * * * * * * * * * * * * * * * * * * * * * * * * * * //

dimensions      [0 3 -1 0 0 0 0];

internalField   nonuniform List<scalar> 
19800
(
1.06754e-10
-1.0914e-10
7.05212e-10
-5.98452e-10
1.65079e-09
-9.45588e-10
2.75242e-09
-1.10162e-09
3.87057e-09
-1.11814e-09
4.91232e-09
-1.04176e-09
5.81938e-09
-9.0705e-10
6.55779e-09
-7.38415e-10
7.10978e-09
-5.51985e-10
7.46755e-09
-3.57765e-10
7.62892e-09
-1.6137e-10
7.59493e-09
3.39942e-11
7.36671e-09
2.28214e-10
6.94484e-09
4.21872e-10
6.3283e-09
6.16539e-10
5.51397e-09
8.14329e-10
4.49638e-09
1.01759e-09
3.26771e-09
1.22868e-09
1.81785e-09
1.44986e-09
1.34717e-10
1.68313e-09
-1.79544e-09
1.93016e-09
-3.98765e-09
2.1922e-09
-6.45765e-09
2.47e-09
-9.22138e-09
2.76374e-09
-1.22944e-08
3.07298e-09
-1.5691e-08
3.39663e-09
-1.94239e-08
3.73288e-09
-2.3503e-08
4.07916e-09
-2.79352e-08
4.43214e-09
-3.27229e-08
4.78771e-09
-3.78639e-08
5.141e-09
-4.33502e-08
5.48632e-09
-4.91675e-08
5.81729e-09
-5.52943e-08
6.12686e-09
-6.17017e-08
6.40738e-09
-6.83524e-08
6.65068e-09
-7.52007e-08
6.84831e-09
-8.21923e-08
6.99157e-09
-8.92641e-08
7.07182e-09
-9.63447e-08
7.08061e-09
-1.03355e-07
7.00992e-09
-1.10207e-07
6.85248e-09
-1.16809e-07
6.60191e-09
-1.23062e-07
6.25309e-09
-1.28864e-07
5.80232e-09
-1.34112e-07
5.24764e-09
-1.38701e-07
4.589e-09
-1.4253e-07
3.82851e-09
-1.455e-07
2.97073e-09
-1.47523e-07
2.02318e-09
-1.4852e-07
9.96441e-10
-1.48414e-07
-1.05851e-10
-1.47155e-07
-1.2594e-09
-1.44703e-07
-2.45143e-09
-1.4104e-07
-3.66301e-09
-1.36167e-07
-4.87322e-09
-1.30107e-07
-6.05994e-09
-1.22907e-07
-7.20007e-09
-1.14637e-07
-8.27006e-09
-1.0539e-07
-9.24665e-09
-9.52828e-08
-1.01075e-08
-8.44507e-08
-1.08321e-08
-7.30483e-08
-1.14024e-08
-6.12448e-08
-1.18035e-08
-4.92202e-08
-1.20246e-08
-3.71608e-08
-1.20594e-08
-2.52543e-08
-1.19064e-08
-1.36848e-08
-1.15695e-08
-2.62707e-09
-1.10577e-08
7.75866e-09
-1.03857e-08
1.73296e-08
-9.57095e-09
2.59661e-08
-8.63648e-09
3.3574e-08
-7.6079e-09
4.00867e-08
-6.51267e-09
4.54658e-08
-5.37913e-09
4.97012e-08
-4.23541e-09
5.28094e-08
-3.1082e-09
5.48312e-08
-2.02182e-09
5.58286e-08
-9.9739e-10
5.58808e-08
-5.22219e-11
5.50802e-08
8.00608e-10
5.35278e-08
1.5524e-09
5.13291e-08
2.19875e-09
4.85899e-08
2.7392e-09
4.5413e-08
3.17685e-09
4.18953e-08
3.51768e-09
3.81256e-08
3.76979e-09
3.41831e-08
3.94245e-09
3.0138e-08
4.04507e-09
2.60522e-08
4.08586e-09
2.19817e-08
4.07043e-09
1.79817e-08
4e-09
1.41122e-08
3.86953e-09
1.04466e-08
3.66558e-09
7.08211e-09
3.36453e-09
4.14982e-09
2.9323e-09
1.82022e-09
2.3296e-09
2.9116e-10
1.52906e-09
-2.7898e-10
5.7014e-10
-2.78981e-10
6.00772e-10
-7.09901e-10
2.1219e-09
-2.1196e-09
4.22187e-09
-3.04556e-09
6.58316e-09
-3.46292e-09
8.94305e-09
-3.47803e-09
1.11041e-08
-3.20277e-09
1.29277e-08
-2.73063e-09
1.43221e-08
-2.13286e-09
1.52301e-08
-1.46001e-09
1.56181e-08
-7.45754e-10
1.54646e-08
-7.82647e-12
1.4762e-08
7.36565e-10
1.34997e-08
1.49057e-09
1.16692e-08
2.25237e-09
9.25913e-09
3.02657e-09
6.25416e-09
3.8193e-09
2.63415e-09
4.63759e-09
-1.62574e-09
5.48857e-09
-6.55477e-09
6.3789e-09
-1.2186e-08
7.31433e-09
-1.85551e-08
8.29932e-09
-2.56996e-08
9.33665e-09
-3.36567e-08
1.04272e-08
-4.24626e-08
1.15695e-08
-5.21496e-08
1.27601e-08
-6.27455e-08
1.39925e-08
-7.42703e-08
1.52577e-08
-8.67353e-08
1.65441e-08
-1.0014e-07
1.78371e-08
-1.14472e-07
1.91193e-08
-1.29702e-07
2.03708e-08
-1.45784e-07
2.1569e-08
-1.62656e-07
2.26891e-08
-1.80234e-07
2.37044e-08
-1.98413e-07
2.45867e-08
-2.17069e-07
2.53068e-08
-2.36056e-07
2.5835e-08
-2.55206e-07
2.61421e-08
-2.74334e-07
2.61998e-08
-2.93235e-07
2.59816e-08
-3.11689e-07
2.54635e-08
-3.29462e-07
2.46252e-08
-3.4631e-07
2.34504e-08
-3.61985e-07
2.19278e-08
-3.76234e-07
2.00518e-08
-3.8881e-07
1.7823e-08
-3.99469e-07
1.52487e-08
-4.07984e-07
1.23435e-08
-4.14143e-07
9.12948e-09
-4.17757e-07
5.63744e-09
-4.18671e-07
1.90971e-09
-4.16752e-07
-2.02421e-09
-4.11901e-07
-6.11045e-09
-4.04073e-07
-1.02799e-08
-3.9326e-07
-1.44752e-08
-3.79505e-07
-1.86291e-08
-3.62893e-07
-2.2671e-08
-3.43565e-07
-2.65282e-08
-3.21707e-07
-3.0128e-08
-2.97555e-07
-3.33991e-08
-2.71388e-07
-3.62741e-08
-2.43529e-07
-3.86912e-08
-2.14336e-07
-4.05962e-08
-1.84194e-07
-4.1945e-08
-1.53514e-07
-4.27048e-08
-1.22717e-07
-4.28564e-08
-9.22287e-08
-4.23947e-08
-6.24681e-08
-4.13301e-08
-3.38374e-08
-3.96884e-08
-6.71241e-09
-3.75107e-08
1.85686e-08
-3.4852e-08
4.17105e-08
-3.17783e-08
6.24704e-08
-2.83679e-08
8.06627e-08
-2.4705e-08
9.61619e-08
-2.08783e-08
1.08904e-07
-1.69775e-08
1.18885e-07
-1.30896e-08
1.2616e-07
-9.29604e-09
1.30832e-07
-5.67005e-09
1.33054e-07
-2.27403e-09
1.33013e-07
8.41723e-10
1.30925e-07
3.64061e-09
1.27024e-07
6.09914e-09
1.21557e-07
8.20702e-09
1.14768e-07
9.96579e-09
1.06898e-07
1.13872e-08
9.81773e-08
1.24906e-08
8.88195e-08
1.33002e-08
7.9023e-08
1.38416e-08
6.89717e-08
1.41372e-08
5.884e-08
1.42021e-08
4.88014e-08
1.40386e-08
3.90396e-08
1.36314e-08
2.97624e-08
1.29428e-08
2.12159e-08
1.1911e-08
1.36935e-08
1.04547e-08
7.53017e-09
8.4929e-09
3.06919e-09
5.99003e-09
5.86161e-10
3.05317e-09
3.0718e-10
9.56802e-10
-1.66671e-09
3.06361e-09
-4.22638e-09
5.80963e-09
-5.79159e-09
8.79005e-09
-6.44333e-09
1.16771e-08
-6.36507e-09
1.42179e-08
-5.74361e-09
1.62268e-08
-4.73948e-09
1.75727e-08
-3.47878e-09
1.81665e-08
-2.05381e-09
1.79483e-08
-5.27486e-10
1.68796e-08
1.06081e-09
1.49277e-08
2.68845e-09
1.20699e-08
4.34838e-09
8.28109e-09
6.0412e-09
3.5337e-09
7.77396e-09
-2.20438e-09
9.5574e-09
-8.97073e-09
1.14039e-08
-1.68083e-08
1.33261e-08
-2.57648e-08
1.53354e-08
-3.58916e-08
1.74411e-08
-4.72418e-08
1.96495e-08
-5.98686e-08
2.19635e-08
-7.38226e-08
2.43812e-08
-8.91492e-08
2.68961e-08
-1.05886e-07
2.94967e-08
-1.24059e-07
3.21654e-08
-1.4368e-07
3.48791e-08
-1.64745e-07
3.76089e-08
-1.87228e-07
4.03198e-08
-2.1108e-07
4.29715e-08
-2.36227e-07
4.55184e-08
-2.62569e-07
4.79103e-08
-2.89973e-07
5.0093e-08
-3.18278e-07
5.20096e-08
-3.47292e-07
5.36011e-08
-3.76793e-07
5.4808e-08
-4.0653e-07
5.55717e-08
-4.36224e-07
5.58359e-08
-4.65572e-07
5.55481e-08
-4.94252e-07
5.46613e-08
-5.21924e-07
5.31354e-08
-5.48238e-07
5.0939e-08
-5.72837e-07
4.80501e-08
-5.95367e-07
4.44579e-08
-6.15479e-07
4.01632e-08
-6.32836e-07
3.51797e-08
-6.47121e-07
2.9534e-08
-6.58044e-07
2.32664e-08
-6.65345e-07
1.64307e-08
-6.68802e-07
9.09458e-09
-6.68251e-07
1.35818e-09
-6.63527e-07
-6.74764e-09
-6.54572e-07
-1.50656e-08
-6.41357e-07
-2.34949e-08
-6.23915e-07
-3.1917e-08
-6.0234e-07
-4.02049e-08
-5.76784e-07
-4.82269e-08
-5.47462e-07
-5.58495e-08
-5.1465e-07
-6.29402e-08
-4.78679e-07
-6.93701e-08
-4.39935e-07
-7.50177e-08
-3.98855e-07
-7.97719e-08
-3.55916e-07
-8.35353e-08
-3.11633e-07
-8.6228e-08
-2.66547e-07
-8.77901e-08
-2.21219e-07
-8.8185e-08
-1.76212e-07
-8.74012e-08
-1.32088e-07
-8.54543e-08
-8.93896e-08
-8.23868e-08
-4.86315e-08
-7.82688e-08
-1.02877e-08
-7.31958e-08
2.52206e-08
-6.72866e-08
5.75318e-08
-6.06791e-08
8.63541e-08
-5.35273e-08
1.11471e-07
-4.5995e-08
1.32744e-07
-3.82505e-08
1.50114e-07
-3.04601e-08
1.63601e-07
-2.27832e-08
1.73298e-07
-1.53661e-08
1.79362e-07
-8.33813e-09
1.82011e-07
-1.8073e-09
1.81509e-07
4.14211e-09
1.78158e-07
9.45077e-09
1.72281e-07
1.40836e-08
1.64218e-07
1.80291e-08
1.54309e-07
2.12959e-08
1.4289e-07
2.39094e-08
1.30285e-07
2.59053e-08
1.16803e-07
2.7324e-08
1.02738e-07
2.82022e-08
8.8375e-08
2.85646e-08
7.39989e-08
2.84147e-08
5.99036e-08
2.77266e-08
4.64079e-08
2.64385e-08
3.38674e-08
2.44515e-08
2.2681e-08
2.16412e-08
1.32842e-08
1.78897e-08
6.12208e-09
1.31522e-08
1.59252e-09
7.58273e-09
1.8997e-09
1.11992e-09
-2.78664e-09
3.48072e-09
-6.58717e-09
6.43887e-09
-8.74974e-09
9.52054e-09
-9.52499e-09
1.23577e-08
-9.20224e-09
1.46684e-08
-8.05434e-09
1.62418e-08
-6.31283e-09
1.69232e-08
-4.16023e-09
1.6601e-08
-1.73159e-09
1.51939e-08
8.79637e-10
1.26408e-08
3.61393e-09
8.89107e-09
6.43816e-09
3.90024e-09
9.3392e-09
-2.37628e-09
1.23177e-08
-9.98583e-09
1.53835e-08
-1.89801e-08
1.85517e-08
-2.94159e-08
2.18398e-08
-4.13547e-08
2.52649e-08
-5.48614e-08
2.8842e-08
-7.00026e-08
3.25823e-08
-8.68442e-08
3.64912e-08
-1.05449e-07
4.05678e-08
-1.25871e-07
4.48034e-08
-1.48155e-07
4.91808e-08
-1.72332e-07
5.36735e-08
-1.98412e-07
5.82456e-08
-2.26385e-07
6.28513e-08
-2.56211e-07
6.74349e-08
-2.87823e-07
7.19317e-08
-3.21119e-07
7.62681e-08
-3.55964e-07
8.03629e-08
-3.92182e-07
8.41286e-08
-4.29562e-07
8.74727e-08
-4.67852e-07
9.03003e-08
-5.06766e-07
9.25152e-08
-5.45982e-07
9.40234e-08
-5.85145e-07
9.47347e-08
-6.23874e-07
9.45653e-08
-6.61767e-07
9.34409e-08
-6.98404e-07
9.12982e-08
-7.33356e-07
8.80874e-08
-7.66191e-07
8.37743e-08
-7.96482e-07
7.83413e-08
-8.23814e-07
7.17892e-08
-8.47788e-07
6.41374e-08
-8.68033e-07
5.54249e-08
-8.84209e-07
4.57102e-08
-8.96014e-07
3.50712e-08
-9.03188e-07
2.3605e-08
-9.0552e-07
1.14261e-08
-9.02856e-07
-1.30543e-09
-8.95074e-07
-1.45304e-08
-8.8214e-07
-2.7999e-08
-8.64067e-07
-4.15677e-08
-8.40931e-07
-5.50532e-08
-8.12871e-07
-6.82653e-08
-7.80089e-07
-8.10088e-08
-7.42851e-07
-9.30875e-08
-7.01484e-07
-1.04307e-07
-6.56374e-07
-1.1448e-07
-6.07963e-07
-1.23429e-07
-5.56745e-07
-1.3099e-07
-5.03259e-07
-1.37022e-07
-4.48083e-07
-1.41404e-07
-3.91827e-07
-1.44046e-07
-3.35122e-07
-1.4489e-07
-2.7861e-07
-1.43913e-07
-2.22933e-07
-1.41131e-07
-1.68722e-07
-1.36598e-07
-1.16583e-07
-1.30409e-07
-6.70819e-08
-1.22696e-07
-2.07391e-08
-1.13629e-07
2.19885e-08
-1.03407e-07
6.0714e-08
-9.22527e-08
9.51288e-08
-8.04098e-08
1.25011e-07
-6.81322e-08
1.50225e-07
-5.56746e-08
1.70727e-07
-4.32855e-08
1.8656e-07
-3.11986e-08
1.97847e-07
-1.96254e-08
2.04789e-07
-8.7487e-09
2.07649e-07
1.28172e-09
2.06746e-07
1.03538e-08
2.02439e-07
1.83906e-08
1.95116e-07
2.53521e-08
1.85181e-07
3.12307e-08
1.73045e-07
3.6046e-08
1.59113e-07
3.98365e-08
1.43787e-07
4.26507e-08
1.27454e-07
4.4535e-08
1.10497e-07
4.55215e-08
9.3297e-08
4.56148e-08
7.62436e-08
4.47801e-08
5.97468e-08
4.29352e-08
4.42485e-08
3.99498e-08
3.02297e-08
3.566e-08
1.82123e-08
2.99071e-08
8.7548e-09
2.26097e-08
2.45169e-09
1.38858e-08
4.35139e-09
1.13231e-09
-3.91895e-09
3.44761e-09
-8.90249e-09
6.22807e-09
-1.15302e-08
8.95671e-09
-1.22536e-08
1.12439e-08
-1.14894e-08
1.2795e-08
-9.6055e-09
1.33884e-08
-6.90626e-09
1.28572e-08
-3.62902e-09
1.10746e-08
5.10088e-11
7.94195e-09
4.01232e-09
3.37825e-09
8.17764e-09
-2.68741e-09
1.25038e-08
-1.03217e-08
1.69735e-08
-1.95914e-08
2.15874e-08
-3.05655e-08
2.63576e-08
-4.33169e-08
3.13031e-08
-5.7922e-08
3.64449e-08
-7.44601e-08
4.1803e-08
-9.30111e-08
4.7393e-08
-1.13653e-07
5.32243e-08
-1.36459e-07
5.92971e-08
-1.61493e-07
6.56016e-08
-1.88805e-07
7.21155e-08
-2.18428e-07
7.88036e-08
-2.50371e-07
8.56166e-08
-2.84616e-07
9.24909e-08
-3.21113e-07
9.93483e-08
-3.59775e-07
1.06097e-07
-4.00476e-07
1.12632e-07
-4.43046e-07
1.18838e-07
-4.87272e-07
1.24589e-07
-5.32898e-07
1.29754e-07
-5.7962e-07
1.34195e-07
-6.27095e-07
1.37776e-07
-6.74943e-07
1.40363e-07
-7.22746e-07
1.41827e-07
-7.70062e-07
1.42051e-07
-8.16426e-07
1.40929e-07
-8.61358e-07
1.38373e-07
-9.04372e-07
1.34313e-07
-9.44985e-07
1.28701e-07
-9.82722e-07
1.21511e-07
-1.01713e-06
1.12745e-07
-1.04776e-06
1.02425e-07
-1.07423e-06
9.06028e-08
-1.09615e-06
7.73522e-08
-1.11322e-06
6.27732e-08
-1.12514e-06
4.69889e-08
-1.13168e-06
3.01455e-08
-1.13266e-06
1.24132e-08
-1.12795e-06
-6.02088e-09
-1.11749e-06
-2.49867e-08
-1.10126e-06
-4.4226e-08
-1.07931e-06
-6.35177e-08
-1.05175e-06
-8.26205e-08
-1.01873e-06
-1.01284e-07
-9.80484e-07
-1.19253e-07
-9.373e-07
-1.36272e-07
-8.89521e-07
-1.52086e-07
-8.3755e-07
-1.66451e-07
-7.81846e-07
-1.79132e-07
-7.2292e-07
-1.89917e-07
-6.6133e-07
-1.98612e-07
-5.97677e-07
-2.05056e-07
-5.32601e-07
-2.09123e-07
-4.66764e-07
-2.10727e-07
-4.00851e-07
-2.09826e-07
-3.35552e-07
-2.06429e-07
-2.71554e-07
-2.00595e-07
-2.09528e-07
-1.92435e-07
-1.50113e-07
-1.82111e-07
-9.39071e-08
-1.69835e-07
-4.14531e-08
-1.55861e-07
6.77409e-09
-1.4048e-07
5.03777e-08
-1.24013e-07
8.90443e-08
-1.06799e-07
1.22554e-07
-8.91843e-08
1.50782e-07
-7.1513e-08
1.73698e-07
-5.41148e-08
1.91366e-07
-3.7294e-08
2.03939e-07
-2.13215e-08
2.11648e-07
-6.42681e-09
2.14794e-07
7.20743e-09
2.13736e-07
1.94482e-08
2.08879e-07
3.02091e-08
2.00659e-07
3.94507e-08
1.89533e-07
4.71724e-08
1.75966e-07
5.34032e-08
1.60428e-07
5.81892e-08
1.43384e-07
6.15792e-08
1.25297e-07
6.3608e-08
1.06632e-07
6.42795e-08
8.78612e-08
6.35514e-08
6.94724e-08
6.13241e-08
5.19829e-08
5.74393e-08
3.59491e-08
5.16937e-08
2.19809e-08
4.38753e-08
1.07615e-08
3.38291e-08
3.08864e-09
2.15587e-08
7.44002e-09
1.03028e-09
-4.94923e-09
3.04284e-09
-1.0915e-08
5.29936e-09
-1.37867e-08
7.27003e-09
-1.42243e-08
8.56234e-09
-1.27817e-08
8.88293e-09
-9.92609e-09
8.01001e-09
-6.03334e-09
5.77252e-09
-1.39153e-09
2.03477e-09
3.78877e-09
-3.31602e-09
9.36311e-09
-1.03786e-08
1.52402e-08
-1.92445e-08
2.13697e-08
-3.00029e-08
2.77319e-08
-4.27435e-08
3.4328e-08
-5.7558e-08
4.11721e-08
-7.45405e-08
4.82856e-08
-9.37862e-08
5.56907e-08
-1.1539e-07
6.34068e-08
-1.39443e-07
7.14464e-08
-1.66031e-07
7.98116e-08
-1.95225e-07
8.84916e-08
-2.27084e-07
9.746e-08
-2.61641e-07
1.06673e-07
-2.98907e-07
1.16069e-07
-3.38857e-07
1.25566e-07
-3.81429e-07
1.35063e-07
-4.2652e-07
1.44439e-07
-4.73981e-07
1.53558e-07
-5.23613e-07
1.62264e-07
-5.75168e-07
1.70394e-07
-6.2835e-07
1.77771e-07
-6.82812e-07
1.84215e-07
-7.38162e-07
1.89545e-07
-7.9397e-07
1.93584e-07
-8.49769e-07
1.96162e-07
-9.05068e-07
1.97125e-07
-9.59353e-07
1.96336e-07
-1.0121e-06
1.93678e-07
-1.06279e-06
1.89062e-07
-1.1109e-06
1.82424e-07
-1.15593e-06
1.73731e-07
-1.1974e-06
1.6298e-07
-1.23486e-06
1.50199e-07
-1.26788e-06
1.35447e-07
-1.29609e-06
1.18813e-07
-1.31915e-06
1.00412e-07
-1.33677e-06
8.03913e-08
-1.3487e-06
5.89194e-08
-1.35474e-06
3.61915e-08
-1.35476e-06
1.24294e-08
-1.34864e-06
-1.21438e-08
-1.33634e-06
-3.72791e-08
-1.31788e-06
-6.2688e-08
-1.29331e-06
-8.80912e-08
-1.26273e-06
-1.13193e-07
-1.22633e-06
-1.3769e-07
-1.18431e-06
-1.61271e-07
-1.13696e-06
-1.83623e-07
-1.08461e-06
-2.04437e-07
-1.02765e-06
-2.23411e-07
-9.66525e-07
-2.40256e-07
-9.01739e-07
-2.54702e-07
-8.33843e-07
-2.66508e-07
-7.63437e-07
-2.75462e-07
-6.91164e-07
-2.81396e-07
-6.17704e-07
-2.84188e-07
-5.43761e-07
-2.83769e-07
-4.70061e-07
-2.8013e-07
-3.97333e-07
-2.73323e-07
-3.263e-07
-2.63468e-07
-2.57667e-07
-2.50745e-07
-1.92103e-07
-2.35399e-07
-1.30229e-07
-2.17734e-07
-7.2608e-08
-1.98101e-07
-1.97271e-08
-1.76894e-07
2.80102e-08
-1.54536e-07
7.02919e-08
-1.31466e-07
1.06903e-07
-1.08124e-07
1.37732e-07
-8.49438e-08
1.62767e-07
-6.23289e-08
1.82094e-07
-4.06487e-08
1.95892e-07
-2.02246e-08
2.04425e-07
-1.3256e-09
2.08026e-07
1.58476e-08
2.07092e-07
3.11426e-08
2.02069e-07
4.4474e-08
1.93436e-07
5.58052e-08
1.81698e-07
6.51414e-08
1.67373e-07
7.25145e-08
1.50986e-07
7.79657e-08
1.33068e-07
8.15258e-08
1.14154e-07
8.31941e-08
9.47855e-08
8.29197e-08
7.5523e-08
8.05865e-08
5.69537e-08
7.60087e-08
3.97085e-08
6.89388e-08
2.44864e-08
5.90975e-08
1.20917e-08
4.62237e-08
3.49957e-09
3.01509e-08
1.09396e-08
8.38523e-10
-5.78774e-09
2.32864e-09
-1.24052e-08
3.75475e-09
-1.52128e-08
4.60396e-09
-1.50735e-08
4.50048e-09
-1.26782e-08
3.16532e-09
-8.59094e-09
3.86076e-10
-3.2541e-09
-4.00537e-09
2.99993e-09
-1.01496e-08
9.93299e-09
-1.81703e-08
1.73839e-08
-2.81827e-08
2.52525e-08
-4.02985e-08
3.34855e-08
-5.46291e-08
4.20626e-08
-7.12873e-08
5.09861e-08
-9.03868e-08
6.02716e-08
-1.12042e-07
6.99404e-08
-1.36364e-07
8.00128e-08
-1.6346e-07
9.05031e-08
-1.93428e-07
1.01415e-07
-2.26353e-07
1.12736e-07
-2.62299e-07
1.24437e-07
-3.01306e-07
1.36467e-07
-3.43383e-07
1.48751e-07
-3.88503e-07
1.6119e-07
-4.36596e-07
1.73659e-07
-4.87544e-07
1.8601e-07
-5.41177e-07
1.98073e-07
-5.97273e-07
2.09653e-07
-6.55553e-07
2.20545e-07
-7.15687e-07
2.30527e-07
-7.77289e-07
2.39373e-07
-8.39929e-07
2.46856e-07
-9.03136e-07
2.52752e-07
-9.66403e-07
2.56851e-07
-1.0292e-06
2.58959e-07
-1.09098e-06
2.58906e-07
-1.15119e-06
2.56547e-07
-1.20928e-06
2.51771e-07
-1.26472e-06
2.445e-07
-1.31699e-06
2.34689e-07
-1.36559e-06
2.22333e-07
-1.41007e-06
2.07461e-07
-1.45001e-06
1.90137e-07
-1.48502e-06
1.70459e-07
-1.51477e-06
1.48559e-07
-1.53895e-06
1.24596e-07
-1.55731e-06
9.87566e-08
-1.56965e-06
7.12555e-08
-1.57579e-06
4.23299e-08
-1.57561e-06
1.22465e-08
-1.56901e-06
-1.87375e-08
-1.55598e-06
-5.03156e-08
-1.5365e-06
-8.21649e-08
-1.51063e-06
-1.1396e-07
-1.47847e-06
-1.45358e-07
-1.44015e-06
-1.76008e-07
-1.39587e-06
-2.05547e-07
-1.34588e-06
-2.33612e-07
-1.29048e-06
-2.59837e-07
-1.23003e-06
-2.83866e-07
-1.16493e-06
-3.0535e-07
-1.09567e-06
-3.23964e-07
-1.02277e-06
-3.39407e-07
-9.46819e-07
-3.51415e-07
-8.68449e-07
-3.59765e-07
-7.88346e-07
-3.64291e-07
-7.07228e-07
-3.64886e-07
-6.25848e-07
-3.6151e-07
-5.44974e-07
-3.54198e-07
-4.6538e-07
-3.43062e-07
-3.87832e-07
-3.28293e-07
-3.13071e-07
-3.1016e-07
-2.41801e-07
-2.89004e-07
-1.74671e-07
-2.65231e-07
-1.12261e-07
-2.39304e-07
-5.50719e-08
-2.11726e-07
-3.51073e-09
-1.83027e-07
4.2116e-08
-1.53751e-07
8.16043e-08
-1.24432e-07
1.14859e-07
-9.55839e-08
1.41893e-07
-6.76824e-08
1.6282e-07
-4.11517e-08
1.77849e-07
-1.63549e-08
1.87282e-07
6.41524e-09
1.91487e-07
2.69369e-08
1.90903e-07
4.5058e-08
1.86016e-07
6.06921e-08
1.77352e-07
7.38059e-08
1.65462e-07
8.44042e-08
1.50918e-07
9.25098e-08
1.34303e-07
9.81407e-08
1.16211e-07
1.01286e-07
9.72485e-08
1.01882e-07
7.80393e-08
9.97957e-08
5.92386e-08
9.48094e-08
4.15502e-08
8.66272e-08
2.57581e-08
7.48896e-08
1.27727e-08
5.92091e-08
3.70411e-09
3.92195e-08
1.46437e-08
5.72657e-10
-6.3604e-09
1.34943e-09
-1.31819e-08
1.67147e-09
-1.55349e-08
1.07064e-09
-1.44727e-08
-7.92883e-10
-1.08147e-08
-4.1703e-09
-5.21353e-09
-9.25568e-09
1.83128e-09
-1.62089e-08
9.95318e-09
-2.51711e-08
1.88952e-08
-3.6275e-08
2.84878e-08
-4.9651e-08
3.86285e-08
-6.54302e-08
4.92647e-08
-8.37459e-08
6.03783e-08
-1.04733e-07
7.19729e-08
-1.28525e-07
8.40638e-08
-1.55254e-07
9.66694e-08
-1.85045e-07
1.09804e-07
-2.18011e-07
1.23469e-07
-2.54251e-07
1.37654e-07
-2.93839e-07
1.52325e-07
-3.36824e-07
1.67422e-07
-3.83219e-07
1.82861e-07
-4.32994e-07
1.98526e-07
-4.86073e-07
2.14269e-07
-5.42329e-07
2.29915e-07
-6.01577e-07
2.45258e-07
-6.63573e-07
2.60068e-07
-7.28014e-07
2.74095e-07
-7.9454e-07
2.87071e-07
-8.62736e-07
2.98723e-07
-9.32138e-07
3.08775e-07
-1.00224e-06
3.1696e-07
-1.07251e-06
3.23021e-07
-1.14239e-06
3.26727e-07
-1.2113e-06
3.27871e-07
-1.27867e-06
3.26282e-07
-1.34395e-06
3.21824e-07
-1.40658e-06
3.14402e-07
-1.46605e-06
3.03963e-07
-1.52185e-06
2.90495e-07
-1.57354e-06
2.74025e-07
-1.6207e-06
2.54621e-07
-1.66295e-06
2.32387e-07
-1.69996e-06
2.07462e-07
-1.73141e-06
1.80015e-07
-1.75706e-06
1.50244e-07
-1.77668e-06
1.18375e-07
-1.79008e-06
8.4655e-08
-1.79711e-06
4.93579e-08
-1.79765e-06
1.27848e-08
-1.79161e-06
-2.4777e-08
-1.77894e-06
-6.29799e-08
-1.75964e-06
-1.01471e-07
-1.73371e-06
-1.39886e-07
-1.70123e-06
-1.77843e-07
-1.66229e-06
-2.14947e-07
-1.61704e-06
-2.50792e-07
-1.56569e-06
-2.84963e-07
-1.50848e-06
-3.17043e-07
-1.44573e-06
-3.46616e-07
-1.37781e-06
-3.73277e-07
-1.30514e-06
-3.96635e-07
-1.22822e-06
-4.16327e-07
-1.14761e-06
-4.32024e-07
-1.06393e-06
-4.43444e-07
-9.77858e-07
-4.50362e-07
-8.90126e-07
-4.52618e-07
-8.01506e-07
-4.5013e-07
-7.12803e-07
-4.429e-07
-6.24844e-07
-4.31021e-07
-5.38456e-07
-4.1468e-07
-4.5446e-07
-3.94157e-07
-3.73643e-07
-3.69821e-07
-2.96748e-07
-3.42126e-07
-2.24455e-07
-3.11597e-07
-1.57365e-07
-2.78815e-07
-9.59883e-08
-2.44404e-07
-4.07334e-08
-2.09006e-07
8.10292e-09
-1.73268e-07
5.03368e-08
-1.37818e-07
8.58995e-08
-1.03245e-07
1.14835e-07
-7.00874e-08
1.37295e-07
-3.88148e-08
1.53531e-07
-9.82062e-09
1.63883e-07
1.65843e-08
1.68769e-07
4.01727e-08
1.6867e-07
6.07911e-08
1.64121e-07
7.83547e-08
1.55697e-07
9.28283e-08
1.44002e-07
1.04205e-07
1.29663e-07
1.1248e-07
1.13324e-07
1.17625e-07
9.56479e-08
1.19559e-07
7.7319e-08
1.18125e-07
5.9056e-08
1.13072e-07
4.16319e-08
1.04051e-07
2.59062e-08
9.06153e-08
1.2873e-08
7.22422e-08
3.73059e-09
4.83619e-08
1.83743e-08
2.41819e-10
-6.60222e-09
1.33627e-10
-1.30737e-08
-8.95121e-10
-1.45061e-08
-3.24505e-09
-1.21227e-08
-7.20089e-09
-6.85886e-09
-1.29729e-08
5.58546e-10
-2.07284e-08
9.58671e-09
-3.06134e-08
1.98382e-08
-4.2767e-08
3.10488e-08
-5.7329e-08
4.30498e-08
-7.44441e-08
5.57436e-08
-9.42621e-08
6.90827e-08
-1.16937e-07
8.30529e-08
-1.42623e-07
9.7659e-08
-1.71473e-07
1.12914e-07
-2.03631e-07
1.28828e-07
-2.3923e-07
1.45403e-07
-2.78385e-07
1.62624e-07
-3.21185e-07
1.80454e-07
-3.67688e-07
1.98828e-07
-4.17913e-07
2.17648e-07
-4.71836e-07
2.36784e-07
-5.29379e-07
2.56068e-07
-5.90407e-07
2.75297e-07
-6.54724e-07
2.94232e-07
-7.22071e-07
3.12606e-07
-7.92126e-07
3.30124e-07
-8.64506e-07
3.46474e-07
-9.3877e-07
3.61335e-07
-1.01443e-06
3.74382e-07
-1.09095e-06
3.853e-07
-1.16778e-06
3.9379e-07
-1.24434e-06
3.99577e-07
-1.32003e-06
4.02421e-07
-1.39428e-06
4.0212e-07
-1.46652e-06
3.98515e-07
-1.53619e-06
3.91493e-07
-1.60277e-06
3.80988e-07
-1.66579e-06
3.6698e-07
-1.72479e-06
3.49493e-07
-1.77936e-06
3.28596e-07
-1.82913e-06
3.04394e-07
-1.87377e-06
2.77029e-07
-1.91299e-06
2.46675e-07
-1.94651e-06
2.13535e-07
-1.9741e-06
1.77839e-07
-1.99557e-06
1.3984e-07
-2.01073e-06
9.98157e-08
-2.01943e-06
5.80627e-08
-2.02155e-06
1.49069e-08
-2.017e-06
-2.93363e-08
-2.00568e-06
-7.42941e-08
-1.98756e-06
-1.19587e-07
-1.96263e-06
-1.64821e-07
-1.93089e-06
-2.0958e-07
-1.89241e-06
-2.53433e-07
-1.84727e-06
-2.95931e-07
-1.79562e-06
-3.36613e-07
-1.73765e-06
-3.7501e-07
-1.67362e-06
-4.1065e-07
-1.60383e-06
-4.43064e-07
-1.52867e-06
-4.71798e-07
-1.44858e-06
-4.96416e-07
-1.36408e-06
-5.16519e-07
-1.27578e-06
-5.31751e-07
-1.18432e-06
-5.41817e-07
-1.09045e-06
-5.4649e-07
-9.94952e-07
-5.45629e-07
-8.98663e-07
-5.39188e-07
-8.02461e-07
-5.27224e-07
-7.0724e-07
-5.09901e-07
-6.139e-07
-4.87498e-07
-5.2332e-07
-4.604e-07
-4.36347e-07
-4.29099e-07
-3.5377e-07
-3.94175e-07
-2.76301e-07
-3.56284e-07
-2.04563e-07
-3.16141e-07
-1.39074e-07
-2.74495e-07
-8.02343e-08
-2.32108e-07
-2.83237e-08
-1.89728e-07
1.65032e-08
-1.48072e-07
5.42154e-08
-1.078e-07
8.49012e-08
-6.95007e-08
1.08761e-07
-3.368e-08
1.261e-07
-7.54979e-10
1.37307e-07
2.89655e-08
1.42857e-07
5.52413e-08
1.43286e-07
7.79261e-08
1.39182e-07
9.69318e-08
1.31177e-07
1.1221e-07
1.19932e-07
1.23724e-07
1.06136e-07
1.3142e-07
9.05027e-08
1.35192e-07
7.37712e-08
1.34856e-07
5.67201e-08
1.30123e-07
4.01847e-08
1.20587e-07
2.50874e-08
1.05713e-07
1.24817e-08
8.4848e-08
3.61054e-09
5.7233e-08
2.19848e-08
-1.49795e-10
-6.45244e-09
-1.29797e-09
-1.19256e-08
-3.90563e-09
-1.18985e-08
-8.27894e-09
-7.74944e-09
-1.46306e-08
-5.07163e-10
-2.31172e-08
9.04514e-09
-3.3872e-08
2.03415e-08
-4.70225e-08
3.29887e-08
-6.27029e-08
4.67292e-08
-8.10591e-08
6.1406e-08
-1.02249e-07
7.69335e-08
-1.2644e-07
9.32738e-08
-1.53805e-07
1.10418e-07
-1.84516e-07
1.2837e-07
-2.18738e-07
1.47136e-07
-2.56626e-07
1.66716e-07
-2.98313e-07
1.8709e-07
-3.43905e-07
2.08217e-07
-3.93476e-07
2.30025e-07
-4.47056e-07
2.52407e-07
-5.04626e-07
2.75219e-07
-5.66113e-07
2.98271e-07
-6.31379e-07
3.21335e-07
-7.00224e-07
3.44142e-07
-7.72377e-07
3.66386e-07
-8.47503e-07
3.87731e-07
-9.25201e-07
4.07821e-07
-1.00501e-06
4.26285e-07
-1.08643e-06
4.42749e-07
-1.16889e-06
4.56851e-07
-1.25184e-06
4.68245e-07
-1.33466e-06
4.76615e-07
-1.41677e-06
4.81686e-07
-1.49757e-06
4.83222e-07
-1.57649e-06
4.81039e-07
-1.65298e-06
4.75006e-07
-1.72653e-06
4.6504e-07
-1.79666e-06
4.51113e-07
-1.86292e-06
4.33243e-07
-1.92492e-06
4.11495e-07
-1.9823e-06
3.85973e-07
-2.03472e-06
3.5682e-07
-2.0819e-06
3.24209e-07
-2.12357e-06
2.88345e-07
-2.1595e-06
2.49457e-07
-2.18946e-06
2.078e-07
-2.21326e-06
1.63646e-07
-2.23074e-06
1.17294e-07
-2.24173e-06
6.90568e-08
-2.2461e-06
1.92764e-08
-2.24373e-06
-3.17065e-08
-2.23452e-06
-8.35066e-08
-2.21838e-06
-1.35723e-07
-2.19527e-06
-1.87938e-07
-2.16514e-06
-2.39709e-07
-2.128e-06
-2.90573e-07
-2.08388e-06
-3.40046e-07
-2.03287e-06
-3.87624e-07
-1.97509e-06
-4.3279e-07
-1.91073e-06
-4.75017e-07
-1.84002e-06
-5.13774e-07
-1.76328e-06
-5.48537e-07
-1.68089e-06
-5.78798e-07
-1.59334e-06
-6.04075e-07
-1.50116e-06
-6.23931e-07
-1.40499e-06
-6.37987e-07
-1.30554e-06
-6.45933e-07
-1.20362e-06
-6.47553e-07
-1.10008e-06
-6.4273e-07
-9.9584e-07
-6.31464e-07
-8.91859e-07
-6.13881e-07
-7.8912e-07
-5.90237e-07
-6.88601e-07
-5.60919e-07
-5.91261e-07
-5.26439e-07
-4.98009e-07
-4.87426e-07
-4.09687e-07
-4.44606e-07
-3.27044e-07
-3.98784e-07
-2.50722e-07
-3.50818e-07
-1.81238e-07
-3.01591e-07
-1.18981e-07
-2.51986e-07
-6.41999e-08
-2.02853e-07
-1.70081e-08
-1.54991e-07
2.26149e-08
-1.09124e-07
5.48162e-08
-6.58813e-08
7.98556e-08
-2.57943e-08
9.81057e-08
1.07154e-08
1.10022e-07
4.33253e-08
1.1614e-07
7.18077e-08
1.17061e-07
9.60105e-08
1.13438e-07
1.15833e-07
1.05964e-07
1.31199e-07
9.53668e-08
1.42017e-07
8.24066e-08
1.48153e-07
6.78746e-08
1.49388e-07
5.26036e-08
1.45394e-07
3.74829e-08
1.35707e-07
2.34846e-08
1.19711e-07
1.16984e-08
9.66342e-08
3.37679e-09
6.55546e-08
2.53616e-08
-5.98725e-10
-5.85372e-09
-2.93557e-09
-9.58871e-09
-7.33192e-09
-7.50211e-09
-1.39804e-08
-1.10095e-09
-2.3003e-08
8.51541e-09
-3.44937e-08
2.05359e-08
-4.85428e-08
3.43906e-08
-6.52555e-08
4.97014e-08
-8.47596e-08
6.62332e-08
-1.07206e-07
8.38521e-08
-1.32764e-07
1.02492e-07
-1.61618e-07
1.22128e-07
-1.93956e-07
1.42756e-07
-2.29965e-07
1.64379e-07
-2.6982e-07
1.86991e-07
-3.13675e-07
2.10571e-07
-3.61658e-07
2.35073e-07
-4.1386e-07
2.60418e-07
-4.70326e-07
2.86491e-07
-5.31049e-07
3.13131e-07
-5.95964e-07
3.40133e-07
-6.64938e-07
3.67244e-07
-7.37768e-07
3.94165e-07
-8.1418e-07
4.20554e-07
-8.93829e-07
4.46035e-07
-9.76304e-07
4.70206e-07
-1.06113e-06
4.92648e-07
-1.14779e-06
5.1294e-07
-1.23571e-06
5.30668e-07
-1.3243e-06
5.45441e-07
-1.41295e-06
5.56901e-07
-1.50107e-06
5.6473e-07
-1.58804e-06
5.68662e-07
-1.67331e-06
5.68485e-07
-1.75631e-06
5.64044e-07
-1.83655e-06
5.55242e-07
-1.91354e-06
5.42035e-07
-1.98687e-06
5.24436e-07
-2.05612e-06
5.02501e-07
-2.12096e-06
4.76332e-07
-2.18106e-06
4.46069e-07
-2.23612e-06
4.11884e-07
-2.28589e-06
3.7398e-07
-2.33013e-06
3.32584e-07
-2.36862e-06
2.87947e-07
-2.40116e-06
2.40339e-07
-2.42756e-06
1.90051e-07
-2.44766e-06
1.37391e-07
-2.46129e-06
8.2688e-08
-2.46831e-06
2.62904e-08
-2.46857e-06
-3.14411e-08
-2.46196e-06
-9.01149e-08
-2.44837e-06
-1.49316e-07
-2.4277e-06
-2.08611e-07
-2.39987e-06
-2.67538e-07
-2.36483e-06
-3.2561e-07
-2.32256e-06
-3.82314e-07
-2.27308e-06
-4.37112e-07
-2.21642e-06
-4.89444e-07
-2.15271e-06
-5.38733e-07
-2.08209e-06
-5.84389e-07
-2.00481e-06
-6.2582e-07
-1.92116e-06
-6.6244e-07
-1.83156e-06
-6.93684e-07
-1.73646e-06
-7.19022e-07
-1.63647e-06
-7.37978e-07
-1.53226e-06
-7.50145e-07
-1.42461e-06
-7.55208e-07
-1.31437e-06
-7.52961e-07
-1.20252e-06
-7.43323e-07
-1.09004e-06
-7.26354e-07
-9.78016e-07
-7.02264e-07
-8.67517e-07
-6.71418e-07
-7.59625e-07
-6.34332e-07
-6.55384e-07
-5.91666e-07
-5.55781e-07
-5.44209e-07
-4.61714e-07
-4.92852e-07
-3.73968e-07
-4.38563e-07
-2.93203e-07
-3.82357e-07
-2.1993e-07
-3.25258e-07
-1.54511e-07
-2.68271e-07
-9.71553e-08
-2.12348e-07
-4.79177e-08
-1.58361e-07
-6.71149e-09
-1.07087e-07
2.6683e-08
-5.91889e-08
5.26072e-08
-1.52088e-08
7.15063e-08
2.44263e-08
8.39158e-08
5.93982e-08
9.04475e-08
8.94788e-08
9.17753e-08
1.14506e-07
8.86236e-08
1.3435e-07
8.17588e-08
1.48882e-07
7.19841e-08
1.57927e-07
6.01391e-08
1.61233e-07
4.71058e-08
1.58428e-07
3.38201e-08
1.48993e-07
2.12911e-08
1.3224e-07
1.06266e-08
1.07299e-07
3.0622e-09
7.31191e-08
2.84238e-08
-1.10432e-09
-4.7494e-09
-4.76888e-09
-5.92416e-09
-1.115e-08
-1.12101e-09
-2.03031e-08
8.05222e-09
-3.22471e-08
2.04593e-08
-4.69995e-08
3.52883e-08
-6.46028e-08
5.19939e-08
-8.51369e-08
7.02355e-08
-1.08721e-07
8.98174e-08
-1.3551e-07
1.10641e-07
-1.65685e-07
1.32667e-07
-1.99444e-07
1.55886e-07
-2.36987e-07
1.803e-07
-2.78512e-07
2.05903e-07
-3.24195e-07
2.32673e-07
-3.74185e-07
2.60561e-07
-4.28596e-07
2.89484e-07
-4.87493e-07
3.19315e-07
-5.50885e-07
3.49883e-07
-6.18718e-07
3.80964e-07
-6.90869e-07
4.12285e-07
-7.67141e-07
4.43516e-07
-8.47261e-07
4.74284e-07
-9.3088e-07
5.04173e-07
-1.01758e-06
5.32735e-07
-1.10688e-06
5.59506e-07
-1.19824e-06
5.84012e-07
-1.2911e-06
6.05792e-07
-1.38483e-06
6.24406e-07
-1.47884e-06
6.39448e-07
-1.5725e-06
6.50562e-07
-1.66521e-06
6.57443e-07
-1.7564e-06
6.5985e-07
-1.84552e-06
6.57602e-07
-1.93206e-06
6.50581e-07
-2.01554e-06
6.38729e-07
-2.09555e-06
6.22046e-07
-2.1717e-06
6.00582e-07
-2.24363e-06
5.74432e-07
-2.31103e-06
5.43733e-07
-2.37362e-06
5.08653e-07
-2.43113e-06
4.69394e-07
-2.48333e-06
4.26181e-07
-2.53e-06
3.7926e-07
-2.57096e-06
3.289e-07
-2.606e-06
2.75386e-07
-2.63497e-06
2.19018e-07
-2.6577e-06
1.60117e-07
-2.67402e-06
9.90162e-08
-2.6838e-06
3.60708e-08
-2.6869e-06
-2.83482e-08
-2.68317e-06
-9.38464e-08
-2.67248e-06
-1.60005e-07
-2.65471e-06
-2.26381e-07
-2.62974e-06
-2.92504e-07
-2.59748e-06
-3.57872e-07
-2.55784e-06
-4.21955e-07
-2.51076e-06
-4.84191e-07
-2.45622e-06
-5.43985e-07
-2.39423e-06
-6.0072e-07
-2.32487e-06
-6.53754e-07
-2.24826e-06
-7.02431e-07
-2.16461e-06
-7.46089e-07
-2.07421e-06
-7.84078e-07
-1.97747e-06
-8.15769e-07
-1.87487e-06
-8.40578e-07
-1.76702e-06
-8.57986e-07
-1.65467e-06
-8.6756e-07
-1.53865e-06
-8.68979e-07
-1.41992e-06
-8.62053e-07
-1.29953e-06
-8.46745e-07
-1.17861e-06
-8.2319e-07
-1.05833e-06
-7.91699e-07
-9.39891e-07
-7.52766e-07
-8.24497e-07
-7.0706e-07
-7.13291e-07
-6.55414e-07
-6.07345e-07
-5.98798e-07
-5.07618e-07
-5.3829e-07
-4.14935e-07
-4.7504e-07
-3.29965e-07
-4.10229e-07
-2.53204e-07
-3.45032e-07
-1.84977e-07
-2.80574e-07
-1.25433e-07
-2.17905e-07
-7.45557e-08
-1.57965e-07
-3.21729e-08
-1.01572e-07