/*--------------------------------*- C++ -*----------------------------------*\
  =========                 |
  \\      /  F ield         | OpenFOAM: The Open Source CFD Toolbox
   \\    /   O peration     | Website:  https://openfoam.org
    \\  /    A nd           | Version:  9
     \\/     M anipulation  |
\*---------------------------------------------------------------------------*/
FoamFile
{
    format      ascii;
    class       volVectorField;
    location    "2";
    object      U;
}
// * * * * * * * * * * * * * * * * * * * * * * * * * * * * * * * * * * * * * //

dimensions      [0 1 -1 0 0 0 0];

internalField   nonuniform List<vector> 
10000
(
(-1.38015e-06 1.27542e-06 0)
(3.03037e-05 -1.82393e-05 0)
(0.000112821 -3.28625e-05 0)
(0.000218665 -3.94122e-05 0)
(0.000331914 -4.03995e-05 0)
(0.000441505 -3.8022e-05 0)
(0.000540001 -3.37596e-05 0)
(0.000622912 -2.85671e-05 0)
(0.000687791 -2.30209e-05 0)
(0.000733463 -1.74436e-05 0)
(0.0007595 -1.20003e-05 0)
(0.000765904 -6.79611e-06 0)
(0.00075283 -1.78299e-06 0)
(0.00072038 3.07948e-06 0)
(0.000668547 7.85569e-06 0)
(0.000597135 1.26277e-05 0)
(0.000505718 1.74844e-05 0)
(0.000393631 2.25143e-05 0)
(0.000259971 2.78027e-05 0)
(0.000103622 3.34287e-05 0)
(-7.67156e-05 3.94616e-05 0)
(-0.000282493 4.59601e-05 0)
(-0.000515262 5.29701e-05 0)
(-0.00077662 6.05221e-05 0)
(-0.00106816 6.86308e-05 0)
(-0.00139138 7.72939e-05 0)
(-0.00174767 8.64891e-05 0)
(-0.00213816 9.61732e-05 0)
(-0.00256371 0.000106281 0)
(-0.0030248 0.000116725 0)
(-0.00352147 0.000127392 0)
(-0.00405322 0.000138143 0)
(-0.00461895 0.000148814 0)
(-0.00521687 0.000159215 0)
(-0.00584449 0.000169132 0)
(-0.00649848 0.000178324 0)
(-0.00717471 0.000186533 0)
(-0.00786818 0.000193481 0)
(-0.008573 0.000198879 0)
(-0.00928244 0.000202429 0)
(-0.00998893 0.000203834 0)
(-0.0106841 0.000202806 0)
(-0.0113591 0.000199074 0)
(-0.0120041 0.000192391 0)
(-0.0126091 0.00018255 0)
(-0.0131639 0.000169388 0)
(-0.0136579 0.000152803 0)
(-0.0140809 0.00013276 0)
(-0.0144228 0.000109315 0)
(-0.0146742 8.26512e-05 0)
(-0.0148266 5.30591e-05 0)
(-0.0148724 2.07161e-05 0)
(-0.0148049 -1.4163e-05 0)
(-0.0146198 -5.08557e-05 0)
(-0.014314 -8.86938e-05 0)
(-0.0138868 -0.000126993 0)
(-0.0133392 -0.000164998 0)
(-0.0126748 -0.000201891 0)
(-0.0118994 -0.000236822 0)
(-0.0110212 -0.000268936 0)
(-0.0100508 -0.0002974 0)
(-0.00900065 -0.000321439 0)
(-0.00788546 -0.000340367 0)
(-0.00672144 -0.00035362 0)
(-0.00552615 -0.000360784 0)
(-0.00431798 -0.000361619 0)
(-0.00311574 -0.000356075 0)
(-0.00193811 -0.000344306 0)
(-0.00080309 -0.000326671 0)
(0.000272395 -0.000303747 0)
(0.00127308 -0.000276175 0)
(0.00218584 -0.000244842 0)
(0.00299994 -0.000210705 0)
(0.00370727 -0.000174767 0)
(0.00430259 -0.000138045 0)
(0.00478346 -0.000101523 0)
(0.00515024 -6.61089e-05 0)
(0.00540584 -3.26012e-05 0)
(0.00555546 -1.65965e-06 0)
(0.00560625 2.62104e-05 0)
(0.00556686 5.06657e-05 0)
(0.00544705 7.15276e-05 0)
(0.00525724 8.87663e-05 0)
(0.00500807 0.000102487 0)
(0.00471006 0.000112909 0)
(0.00437323 0.000120342 0)
(0.0040069 0.000125154 0)
(0.00361951 0.000127743 0)
(0.00321852 0.0001285 0)
(0.00281048 0.000127765 0)
(0.00240124 0.000125774 0)
(0.00199624 0.000122597 0)
(0.0016011 0.000118047 0)
(0.00122233 0.000111577 0)
(0.000868293 0.000102153 0)
(0.000550367 8.81585e-05 0)
(0.000283718 6.75329e-05 0)
(8.65422e-05 3.85189e-05 0)
(-2.09146e-05 2.48805e-06 0)
(-2.4779e-05 -2.49351e-05 0)
(1.84147e-05 -3.05837e-05 0)
(0.000116884 -0.000116503 0)
(0.000306774 -0.000175888 0)
(0.000537757 -0.000203281 0)
(0.000779133 -0.000206078 0)
(0.00100904 -0.000191854 0)
(0.00121099 -0.000166599 0)
(0.00137368 -0.000134689 0)
(0.00148993 -9.9109e-05 0)
(0.0015554 -6.1775e-05 0)
(0.00156755 -2.3806e-05 0)
(0.00152504 1.43297e-05 0)
(0.00142704 5.23896e-05 0)
(0.0012727 9.04879e-05 0)
(0.00106105 0.000128914 0)
(0.000790768 0.00016805 0)
(0.000460097 0.000208322 0)
(6.67848e-05 0.000250165 0)
(-0.000391889 0.000293989 0)
(-0.000919059 0.000340161 0)
(-0.00151819 0.000388981 0)
(-0.00219298 0.000440666 0)
(-0.0029472 0.000495337 0)
(-0.00378455 0.000553006 0)
(-0.00470852 0.000613563 0)
(-0.00572216 0.000676766 0)
(-0.0068279 0.000742239 0)
(-0.00802736 0.000809458 0)
(-0.00932113 0.00087775 0)
(-0.0107086 0.000946294 0)
(-0.0121877 0.00101412 0)
(-0.0137548 0.00108011 0)
(-0.0154045 0.001143 0)
(-0.0171294 0.00120143 0)
(-0.0189202 0.00125391 0)
(-0.0207655 0.00129886 0)
(-0.0226516 0.00133467 0)
(-0.0245629 0.00135968 0)
(-0.0264816 0.00137227 0)
(-0.0283883 0.00137084 0)
(-0.0302616 0.00135393 0)
(-0.0320787 0.00132021 0)
(-0.0338158 0.00126854 0)
(-0.0354479 0.00119803 0)
(-0.03695 0.00110809 0)
(-0.038297 0.000998435 0)
(-0.0394643 0.000869189 0)
(-0.040428 0.000720861 0)
(-0.0411662 0.000554411 0)
(-0.0416587 0.000371289 0)
(-0.0418883 0.000173352 0)
(-0.0418404 -3.74854e-05 0)
(-0.0415032 -0.000257923 0)
(-0.0408696 -0.000484915 0)
(-0.0399369 -0.000714935 0)
(-0.0387067 -0.000944115 0)
(-0.0371854 -0.00116834 0)
(-0.0353844 -0.00138333 0)
(-0.03332 -0.00158476 0)
(-0.0310134 -0.00176837 0)
(-0.0284904 -0.00193008 0)
(-0.0257812 -0.00206616 0)
(-0.0229199 -0.00217331 0)
(-0.0199439 -0.00224886 0)
(-0.0168933 -0.00229083 0)
(-0.0138096 -0.00229806 0)
(-0.0107356 -0.00227028 0)
(-0.00771369 -0.00220818 0)
(-0.00478506 -0.00211338 0)
(-0.00198885 -0.00198845 0)
(0.000638955 -0.00183669 0)
(0.0030665 -0.00166217 0)
(0.0052668 -0.0014696 0)
(0.00721833 -0.00126401 0)
(0.00890543 -0.00105063 0)
(0.0103186 -0.00083466 0)
(0.0114545 -0.000621094 0)
(0.0123158 -0.000414512 0)
(0.0129104 -0.000218934 0)
(0.0132514 -3.76951e-05 0)
(0.0133559 0.000126634 0)
(0.0132442 0.000272285 0)
(0.0129392 0.000398289 0)
(0.0124651 0.00050442 0)
(0.0118464 0.000591118 0)
(0.0111079 0.000659377 0)
(0.010273 0.000710599 0)
(0.009364 0.000746418 0)
(0.00840157 0.000768502 0)
(0.00740473 0.000778306 0)
(0.00639124 0.000776806 0)
(0.0053783 0.000764186 0)
(0.00438345 0.000739501 0)
(0.00342597 0.000700345 0)
(0.0025283 0.000642614 0)
(0.00171748 0.000560636 0)
(0.00102528 0.00044831 0)
(0.000485374 0.000302208 0)
(0.000132324 0.000129831 0)
(3.48027e-06 -2.07849e-05 0)
(3.35653e-05 -0.000113767 0)
(0.000177627 -0.00030689 0)
(0.000431951 -0.00043025 0)
(0.000728852 -0.000484974 0)
(0.00102922 -0.000484725 0)
(0.0013058 -0.000444046 0)
(0.00153711 -0.000375405 0)
(0.00170752 -0.000288504 0)
(0.00180632 -0.000190349 0)
(0.00182634 -8.56713e-05 0)
(0.00176288 2.26126e-05 0)
(0.00161256 0.000133036 0)
(0.00137274 0.000244929 0)
(0.00104109 0.000358411 0)
(0.000615053 0.000474063 0)
(9.16771e-05 0.000592723 0)
(-0.000532519 0.000715356 0)
(-0.00126157 0.000842944 0)
(-0.00210004 0.000976401 0)
(-0.0030529 0.00111651 0)
(-0.00412544 0.00126384 0)
(-0.00532302 0.00141875 0)
(-0.0066509 0.00158127 0)
(-0.00811395 0.00175114 0)
(-0.00971638 0.00192773 0)
(-0.0114614 0.00211003 0)
(-0.0133512 0.00229663 0)
(-0.0153859 0.00248572 0)
(-0.0175643 0.00267507 0)
(-0.0198827 0.00286206 0)
(-0.022335 0.00304367 0)
(-0.0249125 0.00321654 0)
(-0.0276035 0.00337699 0)
(-0.0303935 0.00352106 0)
(-0.0332648 0.00364462 0)
(-0.0361966 0.00374342 0)
(-0.0391652 0.0038132 0)
(-0.042144 0.00384975 0)
(-0.045104 0.00384909 0)
(-0.0480136 0.00380752 0)
(-0.0508397 0.00372178 0)
(-0.0535477 0.00358913 0)
(-0.0561021 0.00340749 0)
(-0.0584672 0.00317552 0)
(-0.0606075 0.00289271 0)
(-0.0624887 0.00255949 0)
(-0.064078 0.00217723 0)
(-0.0653448 0.00174835 0)
(-0.0662615 0.00127626 0)
(-0.066804 0.000765398 0)
(-0.0669527 0.000221223 0)
(-0.0666912 -0.000349653 0)
(-0.0660081 -0.000939382 0)
(-0.0648991 -0.00154014 0)
(-0.0633644 -0.00214306 0)
(-0.0614102 -0.00273862 0)
(-0.059049 -0.00331688 0)
(-0.056299 -0.00386774 0)
(-0.0531849 -0.0043811 0)
(-0.0497371 -0.00484714 0)
(-0.0459915 -0.00525655 0)
(-0.0419895 -0.00560083 0)
(-0.0377767 -0.00587254 0)
(-0.0334031 -0.00606561 0)
(-0.0289218 -0.00617552 0)
(-0.0243878 -0.00619957 0)
(-0.0198578 -0.00613702 0)
(-0.0153882 -0.00598921 0)
(-0.0110345 -0.00575961 0)
(-0.00684985 -0.00545374 0)
(-0.00288392 -0.00507909 0)
(0.000818231 -0.00464479 0)
(0.00421724 -0.00416149 0)
(0.00728031 -0.0036409 0)
(0.00998188 -0.00309536 0)
(0.0123041 -0.00253744 0)
(0.0142372 -0.00197941 0)
(0.0157792 -0.00143289 0)
(0.0169357 -0.000908392 0)
(0.0177195 -0.000415015 0)
(0.0181496 3.98189e-05 0)
(0.0182503 0.000450506 0)
(0.0180502 0.00081335 0)
(0.0175809 0.00112648 0)
(0.0168756 0.00138972 0)
(0.0159688 0.00160437 0)
(0.0148943 0.00177284 0)
(0.0136853 0.0018983 0)
(0.0123734 0.0019841 0)
(0.0109888 0.00203325 0)
(0.00956036 0.00204776 0)
(0.00811622 0.00202792 0)
(0.00668503 0.00197166 0)
(0.00529711 0.00187396 0)
(0.00398597 0.00172678 0)
(0.0027895 0.0015198 0)
(0.00174952 0.00124322 0)
(0.000907947 0.000893554 0)
(0.000312638 0.000485812 0)
(4.17129e-05 9.03184e-05 0)
(4.073e-05 -0.000221285 0)
(0.000205845 -0.000538851 0)
(0.000485783 -0.000727203 0)
(0.000800022 -0.000802003 0)
(0.00110388 -0.00078625 0)
(0.00136716 -0.000702631 0)
(0.00156583 -0.00057065 0)
(0.00168184 -0.000405728 0)
(0.00170217 -0.000219246 0)
(0.00161747 -1.90458e-05 0)
(0.00142086 0.000189911 0)
(0.00110693 0.000404834 0)
(0.000671052 0.000624689 0)
(0.000108863 0.000849549 0)
(-0.00058417 0.00108026 0)
(-0.00141298 0.00131813 0)
(-0.00238298 0.00156468 0)
(-0.00350012 0.00182142 0)
(-0.00477073 0.00208974 0)
(-0.00620147 0.00237071 0)
(-0.00779901 0.00266503 0)
(-0.00956986 0.0029729 0)
(-0.01152 0.00329394 0)
(-0.0136544 0.00362713 0)
(-0.015977 0.00397074 0)
(-0.01849 0.00432233 0)
(-0.0211933 0.00467867 0)
(-0.0240846 0.00503578 0)
(-0.0271587 0.00538892 0)
(-0.0304072 0.00573264 0)
(-0.0338183 0.00606084 0)
(-0.0373764 0.00636683 0)
(-0.0410622 0.00664347 0)
(-0.0448526 0.0068833 0)
(-0.0487206 0.00707866 0)
(-0.0526357 0.00722191 0)
(-0.0565639 0.00730559 0)
(-0.0604683 0.00732261 0)
(-0.0643098 0.0072665 0)
(-0.0680469 0.00713154 0)
(-0.071637 0.00691301 0)
(-0.075037 0.00660735 0)
(-0.0782037 0.00621229 0)
(-0.0810948 0.00572701 0)
(-0.0836693 0.00515222 0)
(-0.0858889 0.00449024 0)
(-0.0877175 0.00374504 0)
(-0.0891231 0.00292227 0)
(-0.0900775 0.00202919 0)
(-0.090557 0.00107454 0)
(-0.0905431 6.8786e-05 0)
(-0.0900223 -0.000974919 0)
(-0.0889864 -0.00204486 0)
(-0.0874345 -0.00312666 0)
(-0.0853711 -0.00420504 0)
(-0.0828067 -0.00526407 0)
(-0.0797587 -0.00628739 0)
(-0.0762503 -0.0072585 0)
(-0.0723113 -0.00816102 0)
(-0.0679774 -0.00897913 0)
(-0.0632901 -0.00969787 0)
(-0.0582963 -0.0103036 0)
(-0.0530478 -0.0107843 0)
(-0.0476006 -0.0111301 0)
(-0.0420143 -0.0113337 0)
(-0.0363511 -0.0113902 0)
(-0.030675 -0.0112982 0)
(-0.0250505 -0.0110594 0)
(-0.0195413 -0.0106788 0)
(-0.0142097 -0.0101647 0)
(-0.00911446 -0.00952866 0)
(-0.00431029 -0.00878517 0)
(0.000153724 -0.00795113 0)
(0.00423513 -0.0070455 0)
(0.00789899 -0.00608853 0)
(0.0111186 -0.00510128 0)
(0.0138761 -0.00410466 0)
(0.0161625 -0.00311884 0)
(0.0179777 -0.00216258 0)
(0.0193301 -0.00125259 0)
(0.0202362 -0.000403045 0)
(0.0207195 0.000374745 0)
(0.0208093 0.00107253 0)
(0.0205398 0.00168522 0)
(0.0199486 0.00221058 0)
(0.0190757 0.00264905 0)
(0.017962 0.00300315 0)
(0.0166486 0.0032769 0)
(0.0151759 0.00347492 0)
(0.0135833 0.00360153 0)
(0.0119093 0.00365966 0)
(0.0101918 0.00364973 0)
(0.00846905 0.00356867 0)
(0.00678085 0.0034092 0)
(0.00516953 0.00315977 0)
(0.00368141 0.00280596 0)
(0.00236618 0.00233425 0)
(0.00127359 0.00173929 0)
(0.000468149 0.00103686 0)
(7.36171e-05 0.000297106 0)
(4.21079e-05 -0.000336571 0)
(0.000207176 -0.00077919 0)
(0.000477358 -0.0010231 0)
(0.00076589 -0.0011031 0)
(0.00102504 -0.00105415 0)
(0.00122314 -0.000908123 0)
(0.00133514 -0.000691786 0)
(0.00134188 -0.000426194 0)
(0.00122898 -0.000126951 0)
(0.000985451 0.000195114 0)
(0.000602542 0.000533082 0)
(7.28192e-05 0.000883074 0)
(-0.000610482 0.00124355 0)
(-0.00145395 0.00161456 0)
(-0.00246432 0.00199721 0)
(-0.0036487 0.00239323 0)
(-0.00501455 0.0028046 0)
(-0.0065697 0.00323324 0)
(-0.00832216 0.00368077 0)
(-0.0102799 0.00414831 0)
(-0.0124506 0.00463631 0)
(-0.0148411 0.00514436 0)
(-0.0174574 0.00567113 0)
(-0.0203037 0.00621418 0)
(-0.0233821 0.00676996 0)
(-0.0266925 0.00733373 0)
(-0.0302314 0.00789953 0)
(-0.0339921 0.00846025 0)
(-0.037964 0.00900765 0)
(-0.0421324 0.00953244 0)
(-0.0464783 0.0100245 0)
(-0.0509781 0.0104729 0)
(-0.0556037 0.0108664 0)
(-0.0603228 0.0111934 0)
(-0.0650991 0.0114423 0)
(-0.0698925 0.0116019 0)
(-0.07466 0.0116616 0)
(-0.0793559 0.0116118 0)
(-0.0839328 0.011444 0)
(-0.0883422 0.0111513 0)
(-0.0925355 0.0107285 0)
(-0.0964646 0.0101722 0)
(-0.100083 0.00948132 0)
(-0.103345 0.00865677 0)
(-0.106209 0.00770177 0)
(-0.108637 0.0066218 0)
(-0.110594 0.00542459 0)
(-0.112049 0.00412006 0)
(-0.112976 0.00272024 0)
(-0.113356 0.00123908 0)
(-0.113171 -0.000307467 0)
(-0.112414 -0.00190112 0)
(-0.111078 -0.00352373 0)
(-0.109167 -0.00515479 0)
(-0.106688 -0.00677283 0)
(-0.103653 -0.00835568 0)
(-0.100084 -0.00988072 0)
(-0.0960042 -0.0113252 0)
(-0.0914469 -0.0126667 0)
(-0.0864489 -0.0138836 0)
(-0.0810535 -0.0149552 0)
(-0.0753092 -0.0158627 0)
(-0.0692696 -0.0165896 0)
(-0.0629928 -0.0171217 0)
(-0.0565409 -0.0174485 0)
(-0.0499792 -0.0175628 0)
(-0.0433754 -0.0174617 0)
(-0.0367983 -0.0171465 0)
(-0.0303172 -0.0166231 0)
(-0.0240002 -0.015902 0)
(-0.0179131 -0.0149982 0)
(-0.012118 -0.0139309 0)
(-0.0066724 -0.0127228 0)
(-0.00162726 -0.0113998 0)
(0.00297339 -0.00999027 0)
(0.00709388 -0.00852373 0)
(0.0107075 -0.00703026 0)
(0.0137968 -0.00553937 0)
(0.0163541 -0.00407907 0)
(0.0183813 -0.00267495 0)
(0.0198891 -0.00134939 0)
(0.0208969 -0.000121018 0)
(0.0214318 0.000995687 0)
(0.0215271 0.00199068 0)
(0.021221 0.00285805 0)
(0.0205562 0.00359582 0)
(0.0195774 0.00420528 0)
(0.0183311 0.00469014 0)
(0.0168642 0.0050554 0)
(0.0152234 0.00530605 0)
(0.0134552 0.00544556 0)
(0.0116059 0.00547443 0)
(0.00972196 0.00538881 0)
(0.00785125 0.00517956 0)
(0.0060438 0.00483224 0)
(0.00435335 0.00432856 0)
(0.00283717 0.00365038 0)
(0.00155382 0.00278681 0)
(0.000585203 0.00174564 0)
(9.63625e-05 0.000578548 0)
(3.95377e-05 -0.000446917 0)
(0.000187289 -0.00100117 0)
(0.000416514 -0.0012828 0)
(0.000640959 -0.00134741 0)
(0.000812483 -0.00124346 0)
(0.000899322 -0.00101271 0)
(0.000876539 -0.000689212 0)
(0.000724818 -0.00029938 0)
(0.000429144 0.000137358 0)
(-2.26362e-05 0.00060757 0)
(-0.000640902 0.0011027 0)
(-0.00143503 0.00161802 0)
(-0.00241398 0.0021516 0)
(-0.00358662 0.00270352 0)
(-0.00496201 0.00327513 0)
(-0.00654945 0.00386847 0)
(-0.00835844 0.0044858 0)
(-0.0103986 0.00512916 0)
(-0.0126792 0.00580009 0)
(-0.0152092 0.00649932 0)
(-0.0179967 0.0072265 0)
(-0.0210482 0.00798002 0)
(-0.0243684 0.00875682 0)
(-0.0279598 0.00955225 0)
(-0.0318217 0.01036 0)
(-0.0359499 0.0111722 0)
(-0.0403363 0.011979 0)
(-0.0449683 0.0127692 0)
(-0.0498287 0.0135301 0)
(-0.054895 0.0142479 0)
(-0.0601401 0.0149074 0)
(-0.0655317 0.0154932 0)
(-0.0710328 0.0159892 0)
(-0.0766022 0.0163798 0)
(-0.0821947 0.0166495 0)
(-0.0877624 0.016784 0)
(-0.0932546 0.0167701 0)
(-0.0986196 0.0165966 0)
(-0.103805 0.0162542 0)
(-0.108757 0.0157358 0)
(-0.113427 0.0150371 0)
(-0.117763 0.0141564 0)
(-0.12172 0.0130948 0)
(-0.125254 0.0118562 0)
(-0.128324 0.0104475 0)
(-0.130895 0.0088782 0)
(-0.132935 0.00716044 0)
(-0.134417 0.00530892 0)
(-0.13532 0.0033407 0)
(-0.135626 0.00127508 0)
(-0.135322 -0.000866675 0)
(-0.134401 -0.00306196 0)
(-0.132862 -0.00528575 0)
(-0.130707 -0.00751208 0)
(-0.127946 -0.0097139 0)
(-0.124592 -0.0118633 0)
(-0.120665 -0.0139319 0)
(-0.116188 -0.0158911 0)
(-0.111194 -0.0177127 0)
(-0.105719 -0.0193694 0)
(-0.0998031 -0.0208351 0)
(-0.0934951 -0.0220856 0)
(-0.0868473 -0.0230994 0)
(-0.0799174 -0.023858 0)
(-0.0727678 -0.0243468 0)
(-0.0654647 -0.0245556 0)
(-0.0580776 -0.0244793 0)
(-0.0506781 -0.0241178 0)
(-0.0433393 -0.0234773 0)
(-0.036134 -0.0225692 0)
(-0.029134 -0.0214111 0)
(-0.0224082 -0.020026 0)
(-0.0160216 -0.018442 0)
(-0.0100337 -0.0166913 0)
(-0.00449711 -0.0148097 0)
(0.000543165 -0.0128354 0)
(0.00505119 -0.0108077 0)
(0.0090005 -0.00876566 0)
(0.0123747 -0.00674737 0)
(0.0151676 -0.0047881 0)
(0.0173829 -0.0029196 0)
(0.0190342 -0.00116914 0)
(0.0201437 0.00044111 0)
(0.0207416 0.00189436 0)
(0.0208647 0.00317951 0)
(0.0205554 0.00429055 0)
(0.0198604 0.00522598 0)
(0.0188291 0.00598783 0)
(0.0175128 0.00658034 0)
(0.0159639 0.00700824 0)
(0.0142353 0.007275 0)
(0.0123801 0.00738091 0)
(0.010452 0.00732135 0)
(0.00850591 0.00708559 0)
(0.00659892 0.00665645 0)
(0.00479188 0.00601153 0)
(0.00314982 0.00512661 0)
(0.00174055 0.00398159 0)
(0.000661789 0.00256929 0)
(0.000110419 0.000912347 0)
(3.41455e-05 -0.000542222 0)
(0.00015035 -0.00118121 0)
(0.000311353 -0.00147399 0)
(0.000437431 -0.00149691 0)
(0.000482705 -0.00131236 0)
(0.000416696 -0.000972033 0)
(0.000215676 -0.000517022 0)
(-0.000139028 2.14512e-05 0)
(-0.000662527 0.000620751 0)
(-0.00136777 0.00126541 0)
(-0.00226656 0.00194572 0)
(-0.00337013 0.0026564 0)
(-0.0046896 0.00339539 0)
(-0.00623615 0.00416285 0)
(-0.00802113 0.00496031 0)
(-0.010056 0.00578995 0)
(-0.012352 0.00665402 0)
(-0.0149203 0.00755433 0)
(-0.0177712 0.00849182 0)
(-0.020914 0.00946623 0)
(-0.0243562 0.0104757 0)
(-0.0281032 0.0115167 0)
(-0.0321576 0.0125834 0)
(-0.0365187 0.0136682 0)
(-0.0411818 0.0147608 0)
(-0.0461375 0.0158492 0)
(-0.0513715 0.0169189 0)
(-0.0568643 0.0179536 0)
(-0.062591 0.0189354 0)
(-0.0685208 0.019845 0)
(-0.074618 0.0206622 0)
(-0.0808417 0.0213667 0)
(-0.0871465 0.0219379 0)
(-0.0934834 0.0223564 0)
(-0.0998003 0.0226036 0)
(-0.106043 0.0226629 0)
(-0.112157 0.02252 0)
(-0.118086 0.022163 0)
(-0.123775 0.0215832 0)
(-0.129173 0.020775 0)
(-0.134228 0.0197361 0)
(-0.138893 0.0184676 0)
(-0.143124 0.0169741 0)
(-0.14688 0.0152633 0)
(-0.150126 0.0133461 0)
(-0.152829 0.0112365 0)
(-0.154962 0.00895117 0)
(-0.156501 0.0065094 0)
(-0.157428 0.00393292 0)
(-0.157727 0.00124575 0)
(-0.15739 -0.0015261 0)
(-0.156408 -0.00435522 0)
(-0.154781 -0.00721188 0)
(-0.152511 -0.0100652 0)
(-0.149606 -0.0128831 0)
(-0.146078 -0.0156326 0)
(-0.141942 -0.0182799 0)
(-0.137222 -0.0207913 0)
(-0.131945 -0.0231328 0)
(-0.126143 -0.0252716 0)
(-0.119855 -0.027176 0)
(-0.113125 -0.0288162 0)
(-0.106004 -0.0301652 0)
(-0.0985464 -0.0311995 0)
(-0.0908147 -0.0318999 0)
(-0.0828744 -0.032252 0)
(-0.0747959 -0.0322474 0)
(-0.0666529 -0.031884 0)
(-0.0585217 -0.0311665 0)
(-0.0504797 -0.0301066 0)
(-0.0426042 -0.0287232 0)
(-0.034971 -0.0270423 0)
(-0.0276527 -0.0250963 0)
(-0.0207172 -0.0229233 0)
(-0.0142265 -0.020566 0)
(-0.00823476 -0.018071 0)
(-0.00278765 -0.0154866 0)
(0.00207875 -0.0128621 0)
(0.00633881 -0.0102456 0)
(0.00997767 -0.00768288 0)
(0.0129912 -0.00521604 0)
(0.0153857 -0.00288209 0)
(0.0171777 -0.00071221 0)
(0.0183928 0.00126878 0)
(0.0190648 0.00304287 0)
(0.0192345 0.00459851 0)
(0.0189484 0.00592986 0)
(0.0182574 0.00703582 0)
(0.0172156 0.00791855 0)
(0.0158793 0.00858153 0)
(0.0143065 0.00902741 0)
(0.012556 0.00925578 0)
(0.0106876 0.00926103 0)
(0.00876278 0.00903073 0)
(0.00684508 0.00854486 0)
(0.00500234 0.00777636 0)
(0.00330724 0.00669352 0)
(0.0018365 0.00526427 0)
(0.000700563 0.00346227 0)
(0.000117029 0.00127659 0)
(2.65637e-05 -0.000614391 0)
(9.91333e-05 -0.00129888 0)
(0.000167855 -0.00156773 0)
(0.000164729 -0.00151703 0)
(4.87098e-05 -0.00122259 0)
(-0.000207956 -0.00074553 0)
(-0.000626737 -0.000133236 0)
(-0.00122492 0.000579071 0)
(-0.00201727 0.00136637 0)
(-0.00301725 0.00221191 0)
(-0.00423793 0.0031054 0)
(-0.00569232 0.00404143 0)
(-0.00739365 0.00501802 0)
(-0.00935534 0.00603549 0)
(-0.0115909 0.00709543 0)
(-0.0141137 0.0081999 0)
(-0.0169366 0.00935076 0)
(-0.0200717 0.010549 0)
(-0.0235298 0.0117945 0)
(-0.0273196 0.013085 0)
(-0.0314475 0.0144166 0)
(-0.0359167 0.0157825 0)
(-0.0407264 0.0171735 0)
(-0.0458717 0.0185776 0)
(-0.0513425 0.01998 0)
(-0.0571232 0.0213632 0)
(-0.0631923 0.0227073 0)
(-0.0695226 0.0239902 0)
(-0.0760809 0.0251881 0)
(-0.0828282 0.0262764 0)
(-0.0897205 0.0272298 0)
(-0.0967091 0.0280232 0)
(-0.103742 0.0286325 0)
(-0.110763 0.0290351 0)
(-0.117717 0.0292108 0)
(-0.124546 0.0291419 0)
(-0.131193 0.0288143 0)
(-0.137602 0.0282172 0)
(-0.143719 0.0273437 0)
(-0.149495 0.0261909 0)
(-0.15488 0.0247597 0)
(-0.159833 0.0230548 0)
(-0.164312 0.0210847 0)
(-0.168282 0.0188613 0)
(-0.171712 0.0163996 0)
(-0.174573 0.0137178 0)
(-0.176841 0.0108366 0)
(-0.178495 0.00777934 0)
(-0.179519 0.00457164 0)
(-0.1799 0.00124138 0)
(-0.179626 -0.00218152 0)
(-0.178691 -0.00566571 0)
(-0.177092 -0.00917766 0)
(-0.174828 -0.0126824 0)
(-0.171905 -0.0161435 0)
(-0.168331 -0.0195235 0)
(-0.164117 -0.0227838 0)
(-0.159281 -0.0258855 0)
(-0.153847 -0.0287895 0)
(-0.147841 -0.0314571 0)
(-0.141297 -0.0338507 0)
(-0.134256 -0.0359348 0)
(-0.126764 -0.0376761 0)
(-0.118874 -0.0390453 0)
(-0.110644 -0.0400175 0)
(-0.10214 -0.0405733 0)
(-0.0934321 -0.0406997 0)
(-0.0845957 -0.040391 0)
(-0.07571 -0.0396494 0)
(-0.066857 -0.0384855 0)
(-0.0581196 -0.0369185 0)
(-0.0495807 -0.034976 0)
(-0.041321 -0.0326941 0)
(-0.0334175 -0.0301156 0)
(-0.0259419 -0.0272902 0)
(-0.0189584 -0.0242722 0)
(-0.0125231 -0.0211191 0)
(-0.00668203 -0.0178903 0)
(-0.00147073 -0.0146446 0)
(0.00308665 -0.011439 0)
(0.00697747 -0.00832641 0)
(0.0102006 -0.00535483 0)
(0.0127658 -0.00256555 0)
(0.0146937 7.39392e-06 0)
(0.0160139 0.0023376 0)
(0.0167648 0.00440649 0)
(0.0169915 0.00620242 0)
(0.0167452 0.00771977 0)
(0.0160818 0.00895731 0)
(0.0150603 0.0099161 0)
(0.0137425 0.0105971 0)
(0.012192 0.0109984 0)
(0.0104742 0.0111131 0)
(0.00865611 0.0109266 0)
(0.00680761 0.0104158 0)
(0.00500313 0.00954835 0)
(0.00332253 0.00828409 0)
(0.00185043 0.00657753 0)
(0.000706226 0.00438164 0)
(0.00011754 0.00165182 0)
(1.71067e-05 -0.00065656 0)
(3.53288e-05 -0.00133622 0)
(-9.88299e-06 -0.00153814 0)
(-0.000170221 -0.00137648 0)
(-0.00047949 -0.000939415 0)
(-0.000961297 -0.000296326 0)
(-0.00163381 0.000500287 0)
(-0.00251228 0.00141234 0)
(-0.0036107 0.00241345 0)
(-0.00494287 0.00348648 0)
(-0.00652298 0.00462123 0)
(-0.00836576 0.0058126 0)
(-0.0104865 0.00705892 0)
(-0.0129006 0.00836065 0)
(-0.0156236 0.00971926 0)
(-0.0186704 0.0111363 0)
(-0.0220551 0.0126128 0)
(-0.0257902 0.0141483 0)
(-0.029886 0.0157406 0)
(-0.03435 0.0173849 0)
(-0.0391865 0.0190738 0)
(-0.0443952 0.0207967 0)
(-0.0499711 0.0225397 0)
(-0.0559038 0.0242854 0)
(-0.0621769 0.0260135 0)
(-0.0687675 0.0277003 0)
(-0.0756466 0.0293197 0)
(-0.0827789 0.0308435 0)
(-0.0901229 0.0322422 0)
(-0.0976322 0.0334857 0)
(-0.105255 0.0345443 0)
(-0.112938 0.035389 0)
(-0.120622 0.0359933 0)
(-0.128249 0.036333 0)
(-0.135761 0.0363874 0)
(-0.1431 0.0361395 0)
(-0.150208 0.0355767 0)
(-0.157034 0.0346906 0)
(-0.163526 0.0334774 0)
(-0.169637 0.0319377 0)
(-0.175325 0.0300761 0)
(-0.180551 0.0279014 0)
(-0.18528 0.0254261 0)
(-0.189479 0.0226658 0)
(-0.193121 0.0196393 0)
(-0.196182 0.0163683 0)
(-0.198639 0.0128768 0)
(-0.200474 0.00919137 0)
(-0.20167 0.0053406 0)
(-0.202214 0.00135528 0)
(-0.202093 -0.00273172 0)
(-0.201301 -0.00688601 0)
(-0.199829 -0.011071 0)
(-0.197676 -0.0152483 0)
(-0.194841 -0.0193779 0)
(-0.191328 -0.0234183 0)
(-0.187144 -0.0273266 0)
(-0.1823 -0.031059 0)
(-0.176814 -0.0345712 0)
(-0.170707 -0.0378188 0)
(-0.164008 -0.040758 0)
(-0.15675 -0.0433467 0)
(-0.148976 -0.0455453 0)
(-0.140734 -0.0473174 0)
(-0.132079 -0.0486315 0)
(-0.123074 -0.0494618 0)
(-0.11379 -0.0497894 0)
(-0.104302 -0.0496036 0)
(-0.0946922 -0.0489026 0)
(-0.0850463 -0.0476942 0)
(-0.0754534 -0.0459966 0)
(-0.0660035 -0.0438378 0)
(-0.0567861 -0.0412562 0)
(-0.0478881 -0.038299 0)
(-0.0393916 -0.0350217 0)
(-0.0313722 -0.0314863 0)
(-0.0238971 -0.0277596 0)
(-0.0170236 -0.0239112 0)
(-0.0107979 -0.0200112 0)
(-0.00525417 -0.0161284 0)
(-0.000414233 -0.0123276 0)
(0.00371269 -0.00866855 0)
(0.00712957 -0.0052039 0)
(0.00985104 -0.00197821 0)
(0.0119026 0.000972604 0)
(0.0133194 0.00362132 0)
(0.0141448 0.00594933 0)
(0.0144296 0.00794514 0)
(0.0142305 0.00960285 0)
(0.0136088 0.0109199 0)
(0.0126292 0.0118946 0)
(0.0113594 0.0125229 0)
(0.00986947 0.0127956 0)
(0.00823189 0.0126959 0)
(0.00652229 0.0121968 0)
(0.00482122 0.0112604 0)
(0.00321488 0.00983787 0)
(0.00179439 0.00786998 0)
(0.000684365 0.0052897 0)
(0.00011324 0.00202174 0)
(5.91993e-06 -0.000662511 0)
(-4.01228e-05 -0.00127702 0)
(-0.000219163 -0.0013616 0)
(-0.000562346 -0.00104672 0)
(-0.00109411 -0.000431153 0)
(-0.00183247 0.00040916 0)
(-0.00279133 0.00141817 0)
(-0.00398332 0.00255641 0)
(-0.00542132 0.00379744 0)
(-0.00711929 0.0051247 0)
(-0.00909244 0.00652884 0)
(-0.0113571 0.00800549 0)
(-0.0139305 0.00955346 0)
(-0.0168299 0.0111733 0)
(-0.0200725 0.012866 0)
(-0.0236743 0.0146322 0)
(-0.0276499 0.0164714 0)
(-0.0320115 0.0183808 0)
(-0.0367683 0.0203553 0)
(-0.0419256 0.0223866 0)
(-0.0474842 0.0244628 0)
(-0.0534397 0.0265682 0)
(-0.0597816 0.0286833 0)
(-0.0664931 0.0307845 0)
(-0.0735507 0.0328448 0)
(-0.0809241 0.0348341 0)
(-0.0885763 0.0367197 0)
(-0.0964641 0.0384674 0)
(-0.104539 0.0400423 0)
(-0.112748 0.0414096 0)
(-0.121033 0.0425359 0)
(-0.129337 0.0433903 0)
(-0.137599 0.0439446 0)
(-0.145759 0.0441749 0)
(-0.15376 0.0440615 0)
(-0.161544 0.0435895 0)
(-0.169058 0.042749 0)
(-0.176253 0.0415351 0)
(-0.183083 0.0399478 0)
(-0.189506 0.0379914 0)
(-0.195484 0.0356747 0)
(-0.200981 0.0330101 0)
(-0.205968 0.0300136 0)
(-0.210417 0.0267043 0)
(-0.214301 0.023104 0)
(-0.2176 0.019237 0)
(-0.220293 0.0151299 0)
(-0.22236 0.0108115 0)
(-0.223787 0.00631252 0)
(-0.224558 0.00166589 0)
(-0.22466 -0.0030935 0)
(-0.224082 -0.00792888 0)
(-0.222816 -0.0128013 0)
(-0.220854 -0.0176697 0)
(-0.218192 -0.0224911 0)
(-0.214827 -0.0272205 0)
(-0.210763 -0.0318111 0)
(-0.206004 -0.0362147 0)
(-0.20056 -0.0403817 0)
(-0.194448 -0.0442622 0)
(-0.187687 -0.0478062 0)
(-0.180306 -0.0509647 0)
(-0.17234 -0.0536908 0)
(-0.163832 -0.0559406 0)
(-0.154831 -0.0576747 0)
(-0.145397 -0.0588596 0)
(-0.135599 -0.0594691 0)
(-0.125511 -0.0594857 0)
(-0.115216 -0.0589017 0)
(-0.104805 -0.0577205 0)
(-0.0943702 -0.0559572 0)
(-0.0840102 -0.053639 0)
(-0.0738234 -0.050805 0)
(-0.0639072 -0.0475055 0)
(-0.0543556 -0.0438014 0)
(-0.0452566 -0.039762 0)
(-0.0366905 -0.0354631 0)
(-0.028727 -0.0309851 0)
(-0.0214246 -0.0264098 0)
(-0.0148288 -0.0218188 0)
(-0.0089716 -0.0172899 0)
(-0.00387106 -0.0128957 0)
(0.000468251 -0.00870148 0)
(0.00405488 -0.00476367 0)
(0.00690946 -0.00112904 0)
(0.00906391 0.00216544 0)
(0.0105599 0.00509271 0)
(0.0114475 0.00763413 0)
(0.0117838 0.00977796 0)
(0.0116317 0.011517 0)
(0.0110588 0.0128457 0)
(0.0101364 0.0137572 0)
(0.00893879 0.0142395 0)
(0.00754351 0.0142725 0)
(0.00603149 0.0138255 0)
(0.00448877 0.0128549 0)
(0.00300697 0.011303 0)
(0.00168214 0.00909801 0)
(0.000640952 0.00615513 0)
(0.000105363 0.0023733 0)
(-7.02586e-06 -0.000626373 0)
(-0.000126677 -0.00110615 0)
(-0.000458051 -0.00101629 0)
(-0.0010078 -0.000501489 0)
(-0.00178876 0.000331186 0)
(-0.00281214 0.0014014 0)
(-0.00408671 0.00265163 0)
(-0.00562188 0.00404284 0)
(-0.00742918 0.00554998 0)
(-0.00952258 0.0071582 0)
(-0.0119183 0.00885974 0)
(-0.0146341 0.0106514 0)
(-0.0176889 0.0125325 0)
(-0.0211016 0.0145034 0)
(-0.0248905 0.0165645 0)
(-0.0290723 0.0187147 0)
(-0.0336614 0.020951 0)
(-0.0386688 0.0232677 0)
(-0.0441016 0.0256557 0)
(-0.0499619 0.0281019 0)
(-0.0562463 0.030589 0)
(-0.0629449 0.0330951 0)
(-0.0700411 0.0355941 0)
(-0.077511 0.0380556 0)
(-0.0853238 0.0404454 0)
(-0.0934413 0.0427267 0)
(-0.101819 0.0448604 0)
(-0.110407 0.0468067 0)
(-0.119151 0.048526 0)
(-0.127992 0.0499803 0)
(-0.13687 0.0511339 0)
(-0.145724 0.0519548 0)
(-0.154493 0.0524156 0)
(-0.16312 0.0524935 0)
(-0.171547 0.0521715 0)
(-0.179721 0.0514377 0)
(-0.187594 0.050286 0)
(-0.195121 0.0487154 0)
(-0.202259 0.0467298 0)
(-0.208972 0.0443375 0)
(-0.215226 0.0415507 0)
(-0.220991 0.0383855 0)
(-0.226239 0.0348608 0)
(-0.230944 0.0309982 0)
(-0.235086 0.0268218 0)
(-0.238641 0.0223581 0)
(-0.241593 0.0176354 0)
(-0.243921 0.0126841 0)
(-0.245611 0.00753632 0)
(-0.246646 0.00222648 0)
(-0.247013 -0.00320919 0)
(-0.246698 -0.00873222 0)
(-0.24569 -0.014302 0)
(-0.243978 -0.0198754 0)
(-0.241554 -0.0254073 0)
(-0.238411 -0.0308497 0)
(-0.234546 -0.0361526 0)
(-0.229957 -0.0412637 0)
(-0.224648 -0.0461291 0)
(-0.218626 -0.0506934 0)
(-0.211905 -0.0549004 0)
(-0.204503 -0.0586943 0)
(-0.196449 -0.0620203 0)
(-0.187776 -0.0648265 0)
(-0.178528 -0.0670646 0)
(-0.16876 -0.0686921 0)
(-0.158532 -0.0696737 0)
(-0.147919 -0.0699833 0)
(-0.137003 -0.0696054 0)
(-0.125875 -0.0685366 0)
(-0.114634 -0.0667867 0)
(-0.103383 -0.0643798 0)
(-0.0922297 -0.0613541 0)
(-0.0812838 -0.0577614 0)
(-0.0706518 -0.0536667 0)
(-0.0604358 -0.0491458 0)
(-0.0507307 -0.0442837 0)
(-0.0416214 -0.0391717 0)
(-0.0331804 -0.0339043 0)
(-0.0254667 -0.0285767 0)
(-0.0185243 -0.0232811 0)
(-0.0123814 -0.0181046 0)
(-0.00705143 -0.0131265 0)
(-0.00253248 -0.00841677 0)
(0.00119102 -0.00403448 0)
(0.00414748 -2.75323e-05 0)
(0.00637658 0.00356697 0)
(0.00792775 0.00672206 0)
(0.00885871 0.00941901 0)
(0.00923407 0.0116449 0)
(0.00912402 0.0133896 0)
(0.00860329 0.0146423 0)
(0.00775044 0.0153876 0)
(0.00664754 0.0156021 0)
(0.00538052 0.0152508 0)
(0.0040403 0.0142843 0)
(0.00272296 0.0126372 0)
(0.00152812 0.0102268 0)
(0.000582046 0.00695361 0)
(9.50895e-05 0.00269677 0)
(-2.17242e-05 -0.000542453 0)
(-0.000223968 -0.000809287 0)
(-0.000725064 -0.000481962 0)
(-0.00150324 0.000283309 0)
(-0.00255772 0.00137388 0)
(-0.0038917 0.00270774 0)
(-0.00550798 0.00422844 0)
(-0.00741234 0.00589945 0)
(-0.00961474 0.00769876 0)
(-0.0121291 0.00961446 0)
(-0.0149724 0.0116411 0)
(-0.0181639 0.0137769 0)
(-0.0217239 0.0160218 0)
(-0.0256725 0.0183758 0)
(-0.0300286 0.0208377 0)
(-0.0348088 0.0234041 0)
(-0.0400266 0.0260689 0)
(-0.0456909 0.028822 0)
(-0.0518057 0.0316495 0)
(-0.0583691 0.0345324 0)
(-0.0653723 0.0374468 0)
(-0.0727994 0.040364 0)
(-0.0806269 0.0432503 0)
(-0.0888236 0.046068 0)
(-0.0973511 0.0487757 0)
(-0.106164 0.0513299 0)
(-0.115212 0.0536859 0)
(-0.124438 0.0557991 0)
(-0.133783 0.0576265 0)