/*--------------------------------*- C++ -*----------------------------------*\
  =========                 |
  \\      /  F ield         | OpenFOAM: The Open Source CFD Toolbox
   \\    /   O peration     | Website:  https://openfoam.org
    \\  /    A nd           | Version:  9
     \\/     M anipulation  |
\*---------------------------------------------------------------------------*/
FoamFile
{
    format      ascii;
    class       surfaceScalarField;
    location    "2.25";
    object      phi;
}
// * * * * * * * * * * * * * * * * * * * * * * * * * * * * * * * * * * * * * //

dimensions      [0 3 -1 0 0 0 0];

internalField   nonuniform List<scalar> 
2427
(
9.55881e-11
-9.58603e-11
8.04323e-10
-7.08734e-10
1.99028e-09
-1.18597e-09
3.42252e-09
-1.43224e-09
4.92048e-09
-1.49796e-09
6.35621e-09
-1.43573e-09
7.64385e-09
-1.28764e-09
8.72948e-09
-1.08563e-09
9.58212e-09
-8.52642e-10
1.01867e-08
-6.04541e-10
1.05384e-08
-3.51741e-10
1.06389e-08
-1.00552e-10
1.04928e-08
1.46111e-10
1.01051e-08
3.87697e-10
9.47965e-09
6.25491e-10
8.61758e-09
8.62067e-10
7.51677e-09
1.10081e-09
6.17126e-09
1.3455e-09
4.57132e-09
1.59994e-09
2.70368e-09
1.86764e-09
5.52086e-10
2.1516e-09
-1.90204e-09
2.45412e-09
-4.6787e-09
2.77666e-09
-7.79848e-09
3.11978e-09
-1.12816e-08
3.48309e-09
-1.51468e-08
3.86524e-09
-1.94107e-08
4.26387e-09
-2.40863e-08
4.67562e-09
5.09636e-09
7.10084e-10
-8.05938e-10
2.61759e-09
-2.61625e-09
5.34533e-09
-3.9137e-09
8.50959e-09
-4.59649e-09
1.17721e-08
-4.76051e-09
1.48641e-08
-4.52771e-09
1.75863e-08
-4.00982e-09
1.97996e-08
-3.29896e-09
2.1413e-08
-2.46602e-09
2.23711e-08
-1.56269e-09
2.26438e-08
-6.24406e-10
2.22175e-08
3.25773e-10
2.10869e-08
1.27668e-09
1.92501e-08
2.2245e-09
1.67038e-08
3.17182e-09
1.34401e-08
4.12573e-09
9.44477e-09
5.09614e-09
4.69599e-09
6.09429e-09
-8.356e-10
7.13153e-09
-7.18617e-09
8.21821e-09
-1.43974e-08
9.3628e-09
-2.25144e-08
1.05712e-08
-3.1584e-08
1.18462e-08
-4.16517e-08
1.31874e-08
-5.27593e-08
1.45907e-08
-6.49425e-08
1.60484e-08
-7.82278e-08
1.75492e-08
-9.26304e-08
1.90781e-08
2.06174e-08
1.19585e-09
-2.0018e-09
3.93421e-09
-5.3546e-09
7.61947e-09
-7.59897e-09
1.17526e-08
-8.72962e-09
1.59076e-08
-8.91555e-09
1.97391e-08
-8.35917e-09
2.29808e-08
-7.25147e-09
2.54369e-08
-5.75506e-09
2.697e-08
-3.99917e-09
2.74882e-08
-2.08088e-09
2.69319e-08
-6.80614e-11
2.52647e-08
1.99295e-09
2.24618e-08
4.07953e-09
1.85043e-08
6.18208e-09
1.33721e-08
8.30394e-09
7.04088e-09
1.0457e-08
-5.21524e-10
1.26585e-08
-9.35568e-09
1.49285e-08
-1.95107e-08
1.72865e-08
-3.10427e-08
1.97503e-08
-4.40131e-08
2.23332e-08
-5.84851e-08
2.50432e-08
-7.45204e-08
2.78816e-08
-9.21754e-08
3.08424e-08
-1.11497e-07
3.39122e-08
-1.32518e-07
3.70697e-08
-1.55255e-07
4.02857e-08
-1.797e-07
4.35239e-08
4.67417e-08
1.45521e-09
-3.457e-09
4.63912e-09
-8.53851e-09
8.77118e-09
-1.1731e-08
1.32529e-08
-1.32114e-08
1.75982e-08
-1.32609e-08
2.14175e-08
-1.21784e-08
2.44066e-08
-1.02406e-08
2.63352e-08
-7.68369e-09
2.70338e-08
-4.69771e-09
2.63803e-08
-1.42744e-09
2.42889e-08
2.02335e-09
2.0696e-08
5.58587e-09
1.55538e-08
9.22168e-09
8.82033e-09
1.29156e-08
4.5348e-10
1.66708e-08
-9.59292e-09
2.05034e-08
-2.13719e-08
2.44376e-08
-3.49443e-08
2.85009e-08
-5.03781e-08
3.27202e-08
-6.7746e-08
3.71182e-08
-8.71227e-08
4.17099e-08
-1.08581e-07
4.65011e-08
-1.32185e-07
5.14857e-08
-1.57988e-07
5.66455e-08
-1.86025e-07
6.19492e-08
-2.16307e-07
6.73522e-08
-2.48819e-07
7.27972e-08
-2.8351e-07
7.82147e-08
8.35259e-08
1.53109e-09
-4.98809e-09
4.80087e-09
-1.18083e-08
8.91076e-09
-1.58409e-08
1.31906e-08
-1.74912e-08
1.71144e-08
-1.71847e-08
2.02679e-08
-1.5332e-08
2.23276e-08
-1.23003e-08
2.30436e-08
-8.39965e-09
2.22251e-08
-3.87926e-09
1.97275e-08
1.07024e-09
1.54397e-08
6.31109e-09
9.27375e-09
1.17519e-08
1.15554e-09
1.73399e-08
-8.98261e-09
2.30537e-08
-2.12078e-08
2.88959e-08
-3.55901e-08
3.48857e-08
-5.22049e-08
4.10523e-08
-7.11326e-08
4.74286e-08
-9.24572e-08
5.40448e-08
-1.16263e-07
6.09241e-08
-1.42631e-07
6.80776e-08
-1.71631e-07
7.55015e-08
-2.0332e-07
8.31743e-08
-2.3773e-07
9.10558e-08
-2.74867e-07
9.90862e-08
-3.14701e-07
1.07186e-07
-3.57163e-07
1.15259e-07
-4.02138e-07
1.2319e-07
1.30851e-07
1.46525e-09
-6.45334e-09
4.50568e-09
-1.48487e-08
8.1697e-09
-1.95049e-08
1.17507e-08
-2.10721e-08
1.47044e-08
-2.01384e-08
1.66082e-08
-1.72357e-08
1.7132e-08
-1.28241e-08
1.60174e-08
-7.28507e-09
1.30609e-08
-9.22767e-10
8.10017e-09
6.03099e-09
1.00305e-09
1.34082e-08
-8.34266e-09
2.10976e-08
-2.0037e-08
2.90342e-08
-3.41741e-08
3.71909e-08
-5.0847e-08
4.55688e-08
-7.01499e-08
5.41886e-08
-9.21791e-08
6.30815e-08
-1.17032e-07
7.22813e-08
-1.44803e-07
8.18164e-08
-1.75583e-07
9.17033e-08
-2.09446e-07
1.01941e-07
-2.4645e-07
1.12506e-07
-2.86628e-07
1.23351e-07
-3.29975e-07
1.34403e-07
-3.76449e-07
1.4556e-07
-4.2596e-07
1.56697e-07
-4.78365e-07
1.67665e-07
-5.33467e-07
1.78292e-07
1.88394e-07
1.28721e-09
-7.74055e-09
3.82537e-09
-1.73869e-08
6.66345e-09
-2.2343e-08
9.09436e-09
-2.3503e-08
1.05792e-08
-2.16232e-08
1.07026e-08
-1.73592e-08
9.13996e-09
-1.12615e-08
5.63277e-09
-3.77788e-09
-2.90772e-11
4.73908e-09
-8.02031e-09
1.40222e-08
-1.84923e-08
2.38802e-08
-3.15798e-08
3.41851e-08
-4.74079e-08
4.48623e-08
-6.60965e-08
5.58795e-08
-8.77633e-08
6.72356e-08
-1.12525e-07
7.89498e-08
-1.40494e-07
9.10512e-08
-1.71781e-07
1.03568e-07
-2.06485e-07
1.1652e-07
-2.44688e-07
1.29907e-07
-2.86452e-07
1.43705e-07
-3.31806e-07
1.5786e-07
-3.80741e-07
1.72286e-07
-4.33201e-07
1.86863e-07
-4.89077e-07
2.01437e-07
-5.48202e-07
2.15822e-07
-6.10344e-07
2.29807e-07
-6.75209e-07
2.43156e-07
2.55623e-07
1.01591e-09
-8.75646e-09
2.81215e-09
-1.91831e-08
4.48137e-09
-2.40122e-08
5.35028e-09
-2.43719e-08
4.90922e-09
-2.11822e-08
2.76683e-09
-1.52168e-08
-1.38511e-09
-7.10953e-09
-7.79715e-09
2.63416e-09
-1.66808e-08
1.36227e-08
-2.8221e-08
2.55625e-08
-4.25848e-08
3.8244e-08
-5.9928e-08
5.15283e-08
-8.03991e-08
6.53334e-08
-1.04142e-07
7.96223e-08
-1.31296e-07
9.43895e-08
-1.61995e-07
1.09649e-07
-1.96366e-07
1.25422e-07
-2.3452e-07
1.41723e-07
-2.76552e-07
1.58552e-07
-3.22528e-07
1.75883e-07
-3.72479e-07
1.93655e-07
-4.26391e-07
2.11772e-07
-4.84199e-07
2.30094e-07
-5.45778e-07
2.48442e-07
-6.10937e-07
2.66595e-07
-6.79416e-07
2.84302e-07
-7.50886e-07
3.01277e-07
-8.24949e-07
3.17219e-07
3.31816e-07
6.62125e-10
-9.41858e-09
1.50041e-09
-2.00214e-08
1.68755e-09
-2.41994e-08
6.16216e-10
-2.33006e-08
-2.17027e-09
-1.83957e-08
-7.02288e-09
-1.03642e-08
-1.42226e-08
9.0233e-11
-2.4005e-08
1.24165e-08
-3.65787e-08
2.61964e-08
-5.21353e-08
4.11191e-08
-7.08563e-08
5.6965e-08
-9.29164e-08
7.35884e-08
-1.18485e-07
9.09022e-08
-1.47727e-07
1.08864e-07
-1.80798e-07
1.27461e-07
-2.17845e-07
1.46696e-07
-2.58998e-07
1.66574e-07
-3.04363e-07
1.87088e-07
-3.54017e-07
2.08206e-07
-4.07994e-07
2.2986e-07
-4.66283e-07
2.51944e-07
-5.2881e-07
2.743e-07
-5.9544e-07
2.96724e-07
-6.65963e-07
3.18965e-07
-7.40096e-07
3.40729e-07
-8.17481e-07
3.61686e-07
-8.97686e-07
3.81482e-07
-9.80212e-07
3.99745e-07
4.16108e-07
2.31553e-10
-9.65013e-09
-8.93659e-11
-1.97005e-08
-1.67277e-09
-2.26159e-08
-5.03285e-09
-1.99405e-08
-1.055e-08
-1.28786e-08
-1.85184e-08
-2.39577e-09
-2.91803e-08
1.07522e-08
-4.27515e-08
2.59877e-08
-5.94333e-08
4.28782e-08
-7.94218e-08
6.11076e-08
-1.02911e-07
8.04539e-08
-1.30091e-07
1.00769e-07
-1.61151e-07
1.21962e-07
-1.9627e-07
1.43983e-07
-2.35616e-07
1.66807e-07
-2.79339e-07
1.90419e-07
-3.27562e-07
2.14798e-07
-3.80376e-07
2.39902e-07
-4.37825e-07
2.65655e-07
-4.99901e-07
2.91936e-07
-5.6653e-07
3.18573e-07
-6.3757e-07
3.45339e-07
-7.12799e-07
3.71953e-07
-7.91916e-07
3.98082e-07
-8.74539e-07
4.23352e-07
-9.60211e-07
4.47358e-07
-1.0484e-06
4.69674e-07
-1.13853e-06
4.89871e-07
5.07535e-07
-2.73955e-10
-9.37618e-09
-1.94103e-09
-1.80334e-08
-5.56621e-09
-1.89908e-08
-1.1537e-08
-1.39697e-08
-2.0136e-08
-4.27955e-09
-3.15856e-08
9.05383e-09
-4.60811e-08
2.52476e-08
-6.38108e-08
4.37175e-08
-8.49666e-08
6.4034e-08
-1.09747e-07
8.58879e-08
-1.38355e-07
1.09062e-07
-1.70997e-07
1.33411e-07
-2.07873e-07
1.58838e-07
-2.49173e-07
1.85283e-07
-2.95068e-07
2.12702e-07
-3.45702e-07
2.41053e-07
-4.01181e-07
2.70278e-07
-4.61566e-07
3.00286e-07
-5.26856e-07
3.30945e-07
-5.96984e-07
3.62064e-07
-6.71805e-07
3.93394e-07
-7.51093e-07
4.24627e-07
-8.34534e-07
4.55394e-07
-9.21731e-07
4.85279e-07
-1.01221e-06
5.13826e-07
-1.10541e-06
5.40558e-07
-1.20072e-06
5.64991e-07
-1.2975e-06
5.86647e-07
6.05088e-07
-8.52114e-10
-8.52406e-09
-4.04719e-09
-1.48383e-08
-9.96531e-09
-1.30726e-08
-1.88418e-08
-5.09326e-09
-3.08397e-08
7.71842e-09
-4.60958e-08
2.43099e-08
-6.47491e-08
4.39009e-08
-8.69565e-08
6.59249e-08
-1.12897e-07
8.99748e-08
-1.4277e-07
1.15761e-07
-1.76786e-07
1.43079e-07
-2.15161e-07
1.71785e-07
-2.58104e-07
2.0178e-07
-3.05806e-07
2.32985e-07
-3.58433e-07
2.65329e-07
-4.16112e-07
2.98733e-07
-4.78921e-07
3.33087e-07
-5.46874e-07
3.6824e-07
-6.19915e-07
4.03985e-07
-6.97905e-07
4.40054e-07
-7.80618e-07
4.76107e-07
-8.67737e-07
5.11746e-07
-9.58853e-07
5.46511e-07
-1.05348e-06
5.79901e-07
-1.15104e-06
6.11386e-07
-1.2509e-06
6.40428e-07
-1.35241e-06
6.66495e-07
-1.45485e-06
6.89085e-07
7.0775e-07
-1.50242e-09
-7.02164e-09
-6.3965e-09
-9.94426e-09
-1.48415e-08
-4.62764e-09
-2.6891e-08
6.95628e-09
-4.25693e-08
2.33967e-08
-6.1914e-08
4.36546e-08
-8.50008e-08
6.69877e-08
-1.11951e-07
9.28754e-08
-1.4293e-07
1.20953e-07
-1.78134e-07
1.50965e-07
-2.17779e-07
1.82724e-07
-2.62085e-07
2.16092e-07
-3.11264e-07
2.50958e-07
-3.65501e-07
2.87222e-07
-4.24946e-07
3.24774e-07
-4.89697e-07
3.63484e-07
-5.59789e-07
4.03179e-07
-6.35182e-07
4.43632e-07
-7.15749e-07
4.84552e-07
-8.01271e-07
5.25576e-07
-8.91434e-07
5.6627e-07
-9.85827e-07
6.06139e-07
-1.08395e-06
6.44635e-07
-1.18523e-06
6.81178e-07
-1.28902e-06
7.15174e-07
-1.39462e-06
7.46036e-07
-1.50134e-06
7.73208e-07
-1.60843e-06
7.9618e-07
8.14516e-07
-2.22266e-09
-4.79898e-09
-8.97665e-09
-3.19027e-09
-2.01615e-08
6.55721e-09
-3.56216e-08
2.24164e-08
-5.52228e-08
4.29979e-08
-7.88927e-08
6.73245e-08
-1.06637e-07
9.47321e-08
-1.3854e-07
1.24778e-07
-1.74748e-07
1.57162e-07
-2.15455e-07
1.91672e-07
-2.60878e-07
2.28146e-07
-3.11237e-07
2.66451e-07
-3.66736e-07
3.06458e-07
-4.27548e-07
3.48034e-07
-4.93794e-07
3.9102e-07
-5.65532e-07
4.35222e-07
-6.42743e-07
4.8039e-07
-7.2532e-07
5.26209e-07
-8.13057e-07
5.72289e-07
-9.0565e-07
6.18169e-07
-1.00269e-06
6.63313e-07
-1.10369e-06
7.07132e-07
-1.20805e-06
7.48996e-07
-1.31512e-06
7.88254e-07
-1.42421e-06
8.24265e-07
-1.53459e-06
8.56413e-07
-1.64552e-06
8.84134e-07
-1.75627e-06
9.0693e-07
9.24397e-07
-3.00944e-09
-1.78953e-09
-1.17704e-08
5.57071e-09
-2.58847e-08
2.06715e-08
-4.49593e-08
4.14909e-08
-6.86841e-08
6.67228e-08
-9.68668e-08
9.55071e-08
-1.29439e-07
1.27304e-07
-1.66443e-07
1.61782e-07
-2.08009e-07
1.98728e-07
-2.54323e-07
2.37986e-07
-3.05599e-07
2.79422e-07
-3.6205e-07
3.22902e-07
-4.23868e-07
3.68276e-07
-4.91198e-07
4.15364e-07
-5.64124e-07
4.63947e-07
-6.42653e-07
5.13751e-07
-7.26702e-07
5.64439e-07
-8.16086e-07
6.15593e-07
-9.10518e-07
6.66721e-07
-1.0096e-06
7.17254e-07
-1.11285e-06
7.66559e-07
-1.21967e-06
8.13955e-07
-1.32942e-06
8.5874e-07
-1.44137e-06
9.00211e-07
-1.5548e-06
9.37694e-07
-1.66895e-06
9.70563e-07
-1.78309e-06
9.98266e-07
-1.89649e-06
1.02033e-06
1.0364e-06
-3.85697e-09
2.06745e-09
-1.47559e-08
1.64696e-08
-3.19612e-08
3.78768e-08
-5.48163e-08
6.43461e-08
-8.282e-08
9.47265e-08
-1.15652e-07
1.28339e-07
-1.53164e-07
1.64817e-07
-1.95359e-07
2.03977e-07
-2.42345e-07
2.45713e-07
-2.94299e-07
2.89939e-07
-3.51426e-07
3.36549e-07
-4.13928e-07
3.85404e-07
-4.81971e-07
4.36319e-07
-5.55666e-07
4.89059e-07
-6.3505e-07
5.43331e-07
-7.20068e-07
5.98769e-07
-8.10562e-07
6.54933e-07
-9.06269e-07
7.113e-07
-1.00681e-06
7.67265e-07
-1.11171e-06
8.22154e-07
-1.22039e-06
8.7524e-07
-1.3322e-06
9.25763e-07
-1.44642e-06
9.7296e-07
-1.5623e-06
1.01609e-06
-1.67908e-06
1.05447e-06
-1.79599e-06
1.08748e-06
-1.91232e-06
1.11459e-06
-2.02736e-06
1.13538e-06
1.14953e-06
-4.75827e-09
6.82571e-09
-1.79052e-08
2.96166e-08
-3.83305e-08
5.83021e-08
-6.50907e-08
9.11063e-08
-9.74797e-08
1.27115e-07
-1.35042e-07
1.65901e-07
-1.7755e-07
2.07325e-07
-2.24961e-07
2.51388e-07
-2.77363e-07
2.98115e-07
-3.34918e-07
3.47495e-07
-3.97819e-07
3.99451e-07
-4.66246e-07
4.5383e-07
-5.40334e-07
5.10406e-07
-6.20149e-07
5.68875e-07
-7.0567e-07
6.28852e-07
-7.96773e-07
6.89871e-07
-8.93221e-07
7.51382e-07
-9.94667e-07
8.12745e-07
-1.10065e-06
8.73247e-07
-1.21061e-06
9.32111e-07
-1.32389e-06
9.88523e-07
-1.43978e-06
1.04166e-06
-1.55753e-06
1.0907e-06
-1.67635e-06
1.13491e-06
-1.79546e-06
1.17358e-06
-1.91412e-06
1.20614e-06
-2.03161e-06
1.23208e-06
-2.14726e-06
1.25103e-06
1.26275e-06
-5.70433e-09
1.253e-08
-2.11842e-08
4.50965e-08
-4.49219e-08
8.20398e-08
-7.56664e-08
1.21851e-07
-1.12496e-07
1.63945e-07
-1.54814e-07
2.0822e-07
-2.02313e-07
2.54824e-07
-2.54904e-07
3.03979e-07
-3.1265e-07
3.55861e-07
-3.75697e-07
4.10542e-07
-4.44218e-07
4.67972e-07
-5.18365e-07
5.27977e-07
-5.98232e-07
5.90273e-07
-6.83832e-07
6.54475e-07
-7.75078e-07
7.20098e-07
-8.71772e-07
7.86565e-07
-9.73595e-07
8.53205e-07
-1.08011e-06
9.19265e-07
-1.19079e-06
9.83922e-07
-1.30498e-06
1.0463e-06
-1.42198e-06
1.10552e-06
-1.54103e-06
1.1607e-06
-1.66133e-06
1.211e-06
-1.78208e-06
1.25566e-06
-1.90251e-06
1.29402e-06
-2.02188e-06
1.32551e-06
-2.13949e-06
1.34969e-06
-2.2547e-06
1.36624e-06
1.37498e-06
-6.68335e-09
1.92134e-08
-2.45528e-08
6.29659e-08
-5.1655e-08
1.09142e-07
-8.64146e-08
1.5661e-07
-1.27685e-07
2.05215e-07
-1.74729e-07
2.55264e-07
-2.27153e-07
3.07248e-07
-2.84824e-07
3.61649e-07
-3.47777e-07
4.18814e-07
-4.16138e-07
4.78903e-07
-4.90053e-07
5.41887e-07
-5.69637e-07
6.07561e-07
-6.54937e-07
6.75573e-07
-7.45906e-07
7.45443e-07
-8.42385e-07
8.16577e-07
-9.44096e-07
8.88276e-07
-1.05064e-06
9.5975e-07
-1.1615e-06
1.03013e-06
-1.27607e-06
1.09849e-06
-1.39364e-06
1.16387e-06
-1.51344e-06
1.22533e-06
-1.63468e-06
1.28194e-06
-1.75654e-06
1.33286e-06
-1.87822e-06
1.37735e-06
-1.99895e-06
1.41475e-06
-2.11799e-06
1.44455e-06
-2.23466e-06
1.46636e-06
-2.34836e-06
1.47994e-06
1.48514e-06
-7.68191e-09
2.68953e-08
-2.79659e-08
8.32499e-08
-5.8441e-08
1.39617e-07
-9.71959e-08
1.95365e-07
-1.42855e-07
2.50874e-07
-1.94536e-07
3.06944e-07
-2.51761e-07
3.64473e-07
-3.14351e-07
4.24239e-07
-3.82311e-07
4.86774e-07
-4.5574e-07
5.52333e-07
-5.34752e-07
6.20899e-07
-6.1942e-07
6.92228e-07
-7.09735e-07
7.65888e-07
-8.05583e-07
8.41292e-07
-9.06732e-07
9.17726e-07
-1.01282e-06
9.94367e-07
-1.12338e-06
1.0703e-06
-1.23781e-06
1.14456e-06
-1.35542e-06
1.2161e-06
-1.47547e-06
1.28392e-06
-1.59714e-06
1.347e-06
-1.71961e-06
1.40441e-06
-1.84205e-06
1.4553e-06
-1.96365e-06
1.49895e-06
-2.08365e-06
1.53474e-06
-2.20132e-06
1.56222e-06
-2.316e-06
1.58104e-06
-2.4271e-06
1.59104e-06
-8.68502e-09
3.55803e-08
-3.1374e-08
1.05939e-07
-6.51848e-08
1.73428e-07
-1.07863e-07
2.38044e-07
-1.57802e-07
3.00813e-07
-2.13975e-07
3.63117e-07
-2.75821e-07
4.26319e-07
-3.4311e-07
4.91528e-07
-4.15816e-07
5.5948e-07
-4.94006e-07
6.30523e-07
-5.77756e-07
7.04649e-07
-6.67089e-07
7.81561e-07
-7.61936e-07
8.60735e-07
-8.62112e-07
9.41468e-07
-9.6731e-07
1.02292e-06
-1.07709e-06
1.10415e-06
-1.1909e-06
1.18412e-06
-1.30808e-06
1.26174e-06
-1.42789e-06
1.33591e-06
-1.54951e-06
1.40554e-06
-1.67212e-06
1.46961e-06
-1.79486e-06
1.52715e-06
-1.9169e-06
1.57734e-06
-2.03742e-06
1.61947e-06
-2.15567e-06
1.65299e-06
-2.27095e-06
1.67749e-06
-2.3826e-06
1.6927e-06
1.69851e-06
-9.67641e-09
4.52567e-08
-3.47247e-08
1.30987e-07
-7.17868e-08
2.1049e-07
-1.18265e-07
2.84522e-07
-1.72322e-07
3.54871e-07
-2.32789e-07
4.23583e-07
-2.99019e-07
4.92549e-07
-3.70732e-07
5.63241e-07
-4.47868e-07
6.36615e-07
-5.30455e-07
7.1311e-07
-6.18525e-07
7.9272e-07
-7.12048e-07
8.75084e-07
-8.10889e-07
9.59576e-07
-9.14792e-07
1.04537e-06
-1.02337e-06
1.1315e-06
-1.13612e-06
1.21689e-06
-1.2524e-06
1.3004e-06
-1.37151e-06
1.38084e-06
-1.49263e-06
1.45703e-06
-1.61493e-06
1.52785e-06
-1.73755e-06
1.59222e-06
-1.85962e-06
1.64922e-06
-1.98029e-06
1.69802e-06
-2.09877e-06
1.73796e-06
-2.21431e-06
1.76853e-06
-2.32622e-06
1.7894e-06
-2.43387e-06
1.80035e-06
1.80137e-06
-1.06389e-08
5.58956e-08
-3.79636e-08
1.58312e-07
-7.81454e-08
2.50672e-07
-1.28249e-07
3.34626e-07
-1.8621e-07
4.12832e-07
-2.50719e-07
4.88093e-07
-3.21047e-07
5.62876e-07
-3.9686e-07
6.39055e-07
-4.78057e-07
7.17812e-07
-5.64626e-07
7.9968e-07
-6.56551e-07
8.84644e-07
-7.5374e-07
9.72273e-07
-8.55995e-07
1.06183e-06
-9.62985e-07
1.15236e-06
-1.07425e-06
1.24277e-06
-1.18921e-06
1.33186e-06
-1.30718e-06
1.41837e-06
-1.42737e-06
1.50103e-06
-1.54895e-06
1.57861e-06
-1.67105e-06
1.64994e-06
-1.79278e-06
1.71395e-06
-1.91326e-06
1.7697e-06
-2.03166e-06
1.81642e-06
-2.14718e-06
1.85348e-06
-2.25909e-06
1.88044e-06
-2.36672e-06
1.89703e-06
-2.46949e-06
1.90312e-06
1.89877e-06
-1.1555e-08
6.74506e-08
-4.10358e-08
1.87793e-07
-8.41592e-08
2.93795e-07
-1.37664e-07
3.8813e-07
-1.99267e-07
4.74435e-07
-2.67521e-07
5.56346e-07
-3.41612e-07
6.36968e-07
-4.21155e-07
7.18598e-07
-5.06001e-07
8.02658e-07
-5.96095e-07
8.89773e-07
-6.91365e-07
9.79915e-07
-7.91661e-07
1.07257e-06
-8.96715e-07
1.16688e-06
-1.00613e-06
1.26177e-06
-1.11937e-06
1.35601e-06
-1.23579e-06
1.44828e-06
-1.35464e-06
1.53722e-06
-1.4751e-06
1.62149e-06
-1.5963e-06
1.69981e-06
-1.71734e-06
1.77098e-06
-1.83731e-06
1.83393e-06
-1.95535e-06
1.88774e-06
-2.07062e-06
1.93169e-06
-2.18234e-06
1.9652e-06
-2.28979e-06
1.98789e-06
-2.39235e-06
1.99958e-06
-2.48946e-06
2.00023e-06
1.99e-06
-1.24071e-08
7.98577e-08
-4.38875e-08
2.19273e-07
-8.973e-08
3.39638e-07
-1.46365e-07
4.44765e-07
-2.11301e-07
5.39372e-07
-2.82959e-07
6.28004e-07
-3.60441e-07
7.1445e-07
-4.43302e-07
8.0146e-07
-5.31348e-07
8.90704e-07
-6.24473e-07
9.82898e-07
-7.22549e-07
1.07799e-06
-8.25364e-07
1.17538e-06
-9.32581e-07
1.2741e-06
-1.04373e-06
1.37293e-06
-1.15823e-06
1.4705e-06
-1.27536e-06
1.5654e-06
-1.39432e-06
1.65618e-06
-1.51426e-06
1.74143e-06
-1.63427e-06
1.81982e-06
-1.75344e-06
1.89015e-06
-1.87086e-06
1.95135e-06
-1.98566e-06
2.00254e-06
-2.09702e-06
2.04305e-06
-2.20418e-06
2.07235e-06
-2.30646e-06
2.09017e-06
-2.40326e-06
2.09639e-06
-2.49411e-06
2.09108e-06
2.07452e-06
-1.31785e-08
9.30362e-08
-4.64671e-08
2.52562e-07
-9.47644e-08
3.87935e-07
-1.54217e-07
5.04217e-07
-2.22138e-07
6.07293e-07
-2.9682e-07
7.02686e-07
-3.77282e-07
7.94912e-07
-4.63019e-07
8.87197e-07
-5.53784e-07
9.8147e-07
-6.49419e-07
1.07853e-06
-7.49738e-07
1.17831e-06
-8.54466e-07
1.28011e-06
-9.63202e-07
1.38284e-06
-1.07542e-06
1.48514e-06
-1.19045e-06
1.58554e-06
-1.30755e-06
1.68251e-06
-1.42588e-06
1.77451e-06
-1.54453e-06
1.86009e-06
-1.6626e-06
1.93789e-06
-1.77915e-06
2.0067e-06
-1.89328e-06
2.06548e-06
-2.00414e-06
2.1134e-06
-2.11091e-06
2.14982e-06
-2.21287e-06
2.17432e-06
-2.30939e-06
2.18669e-06
-2.39993e-06
2.18693e-06
-2.48409e-06
2.17524e-06
2.15199e-06
-1.38532e-08
1.06889e-07
-4.87267e-08
2.87435e-07
-9.91768e-08
4.38385e-07
-1.61095e-07
5.66135e-07
-2.31617e-07
6.77815e-07
-3.08911e-07
7.7998e-07
-3.91913e-07
8.77914e-07
-4.80056e-07
9.7534e-07
-5.73038e-07
1.07445e-06
-6.70643e-07
1.17614e-06
-7.72628e-07
1.2803e-06
-8.78657e-07
1.38614e-06
-9.88267e-07
1.49245e-06
-1.10087e-06
1.59774e-06
-1.21575e-06
1.70043e-06
-1.33212e-06
1.79887e-06
-1.4491e-06
1.89148e-06
-1.56576e-06
1.97675e-06
-1.68119e-06
2.05331e-06
-1.79444e-06
2.11995e-06
-1.90464e-06
2.17568e-06
-2.01093e-06
2.21969e-06
-2.11255e-06
2.25143e-06
-2.20881e-06
2.27058e-06
-2.29913e-06
2.27701e-06
-2.38306e-06
2.27086e-06
-2.46027e-06
2.25245e-06
2.22229e-06
-1.44169e-08
1.21306e-07
-5.06234e-08
3.23642e-07
-1.0289e-07
4.90652e-07
-1.66891e-07
6.30136e-07
-2.39597e-07
7.50521e-07
-3.19065e-07
8.59447e-07
-4.04145e-07
9.62994e-07
-4.94205e-07
1.0654e-06
-5.88884e-07
1.16913e-06
-6.87909e-07
1.27516e-06
-7.90979e-07
1.38337e-06
-8.97698e-07
1.49286e-06
-1.00755e-06
1.6023e-06
-1.11988e-06
1.71008e-06
-1.23395e-06
1.8145e-06
-1.34892e-06
1.91384e-06
-1.46389e-06
2.00645e-06
-1.57792e-06
2.09079e-06
-1.69008e-06
2.16547e-06
-1.79945e-06
2.22932e-06
-1.90515e-06
2.28138e-06
-2.00638e-06
2.32091e-06
-2.1024e-06
2.34745e-06
-2.19259e-06
2.36076e-06
-2.27644e-06
2.36086e-06
-2.35357e-06
2.348e-06
-2.42377e-06
2.32264e-06
2.28544e-06
-1.48572e-08
1.36163e-07
-5.21199e-08
3.60904e-07
-1.0584e-07
5.44372e-07
-1.7151e-07
6.95805e-07
-2.45962e-07
8.24974e-07
-3.27144e-07
9.40629e-07
-4.13822e-07
1.04967e-06
-5.05297e-07
1.15688e-06
-6.01145e-07
1.26498e-06
-7.01038e-07
1.37505e-06
-8.04615e-07
1.48694e-06
-9.11426e-07
1.59967e-06
-1.0209e-06
1.71177e-06
-1.13235e-06
1.82152e-06
-1.24498e-06
1.92713e-06
-1.35793e-06
2.02679e-06
-1.47028e-06
2.1188e-06
-1.5811e-06
2.2016e-06
-1.68945e-06
2.27382e-06
-1.79443e-06
2.3343e-06
-1.89519e-06
2.38214e-06
-1.99097e-06
2.41669e-06
-2.08108e-06
2.43757e-06
-2.16498e-06
2.44466e-06
-2.24223e-06
2.43812e-06
-2.31256e-06
2.41833e-06
-2.37584e-06
2.38592e-06
2.34169e-06
-1.51639e-08
1.51327e-07
-5.31858e-08
3.98926e-07
-1.0797e-07
5.99157e-07
-1.74876e-07
7.62711e-07
-2.50616e-07
9.00714e-07
-3.33037e-07
1.02305e-06
-4.20824e-07
1.13746e-06
-5.13206e-07
1.24926e-06
-6.09696e-07
1.36147e-06
-7.09907e-07
1.47527e-06
-8.13425e-07
1.59046e-06
-9.19748e-07
1.70599e-06
-1.02826e-06
1.82028e-06
-1.13823e-06
1.93149e-06
-1.24884e-06
2.03774e-06
-1.35921e-06
2.13716e-06
-1.46842e-06
2.22801e-06
-1.57552e-06
2.30871e-06
-1.6796e-06
2.37791e-06
-1.77979e-06
2.43449e-06
-1.87527e-06
2.47762e-06
-1.96533e-06
2.50675e-06
-2.04936e-06
2.52159e-06
-2.12688e-06
2.52218e-06
-2.19755e-06
2.50879e-06
-2.26121e-06
2.48199e-06
-2.31782e-06
2.44253e-06
2.39138e-06
-1.53292e-08
1.66657e-07
-5.37978e-08
4.37395e-07
-1.09242e-07
6.54601e-07
-1.76933e-07
8.30402e-07
-2.5349e-07
9.77271e-07
-3.36667e-07
1.10623e-06
-4.25067e-07
1.22586e-06
-5.17847e-07
1.34204e-06
-6.14457e-07
1.45808e-06
-7.14451e-07
1.57526e-06
-8.17363e-07
1.69337e-06
-9.22644e-07
1.81127e-06
-1.02964e-06
1.92727e-06
-1.13759e-06
2.03945e-06
-1.24566e-06
2.14581e-06
-1.35295e-06
2.24445e-06
-1.45854e-06
2.3336e-06
-1.56151e-06
2.41167e-06
-1.66095e-06
2.47735e-06
-1.75604e-06
2.52958e-06
-1.84601e-06
2.56759e-06
-1.93021e-06
2.59094e-06
-2.00809e-06
2.59948e-06
-2.07928e-06
2.59337e-06
-2.14354e-06
2.57305e-06
-2.20078e-06
2.53923e-06
-2.2511e-06
2.49284e-06
2.43499e-06
-1.5348e-08
1.82005e-07
-5.39402e-08
4.75987e-07
-1.09627e-07
7.10288e-07
-1.77643e-07
8.98418e-07
-2.54537e-07
1.05416e-06
-3.37983e-07
1.18967e-06
-4.26504e-07
1.31438e-06
-5.19181e-07
1.43471e-06
-6.154e-07
1.5543e-06
-7.14658e-07
1.67452e-06
-8.16441e-07
1.79516e-06
-9.20159e-07
1.91499e-06
-1.02513e-06
2.03224e-06
-1.13056e-06
2.14488e-06
-1.23562e-06
2.25087e-06
-1.33939e-06
2.34823e-06
-1.44098e-06
2.43518e-06
-1.53947e-06
2.51016e-06
-1.634e-06
2.57189e-06
-1.72378e-06
2.61936e-06
-1.80811e-06
2.65192e-06
-1.88641e-06
2.66924e-06
-1.95821e-06
2.67129e-06
-2.02323e-06
2.65839e-06
-2.08133e-06
2.63115e-06
-2.13254e-06
2.59043e-06
-2.17702e-06
2.53733e-06
2.47308e-06
-1.52179e-08
1.97223e-07
-5.36053e-08
5.14374e-07
-1.09112e-07
7.65795e-07
-1.76987e-07
9.66293e-07
-2.53738e-07
1.13092e-06
-3.36968e-07
1.2729e-06
-4.25121e-07
1.40254e-06
-5.17206e-07
1.5268e-06
-6.1254e-07
1.64963e-06
-7.10567e-07
1.77254e-06
-8.10729e-07
1.89532e-06
-9.124e-07
2.01666e-06
-1.01487e-06
2.13471e-06
-1.11735e-06
2.24736e-06
-1.21898e-06
2.3525e-06
-1.31887e-06
2.44812e-06
-1.41613e-06
2.53244e-06
-1.50989e-06
2.60392e-06
-1.59932e-06
2.66132e-06
-1.68368e-06
2.70373e-06
-1.76235e-06
2.73059e-06
-1.8348e-06
2.74169e-06
-1.90068e-06
2.73717e-06
-1.95979e-06
2.7175e-06
-2.01209e-06
2.68344e-06
-2.05769e-06
2.63603e-06
-2.09687e-06
2.57651e-06
2.50624e-06
-1.4939e-08
2.12162e-07
-5.27928e-08
5.52228e-07
-1.07695e-07
8.20697e-07
-1.74964e-07
1.03356e-06
-2.51094e-07
1.20705e-06
-3.3363e-07
1.35544e-06
-4.20941e-07
1.48985e-06
-5.11958e-07
1.61782e-06
-6.05936e-07
1.74361e-06
-7.02265e-07
1.86887e-06
-8.00346e-07
1.9934e-06
-8.99527e-07
2.11584e-06
-9.99082e-07
2.23426e-06
-1.09821e-06
2.34649e-06
-1.19607e-06
2.45035e-06
-1.29177e-06
2.54383e-06
-1.38446e-06
2.62513e-06
-1.4733e-06
2.69276e-06
-1.55752e-06
2.74554e-06
-1.63644e-06
2.78265e-06
-1.7095e-06
2.80365e-06
-1.77627e-06
2.80846e-06
-1.83647e-06
2.79737e-06
-1.89e-06
2.77102e-06
-1.9369e-06
2.73035e-06
-1.9774e-06
2.67653e-06
-2.01184e-06
2.61094e-06
2.53508e-06
-1.45143e-08
2.26676e-07
-5.15102e-08
5.89224e-07
-1.0539e-07
8.74577e-07
-1.71593e-07
1.09976e-06
-2.46632e-07
1.28208e-06
-3.28006e-07
1.43681e-06
-4.14013e-07
1.57585e-06
-5.03509e-07
1.70731e-06
-5.95684e-07
1.83579e-06
-6.89878e-07
1.96307e-06
-7.85457e-07
2.08898e-06
-8.81749e-07
2.21213e-06
-9.78015e-07
2.33053e-06
-1.07346e-06
2.44193e-06
-1.16725e-06
2.54414e-06
-1.25854e-06
2.63511e-06
-1.34648e-06
2.71308e-06
-1.4303e-06
2.77658e-06
-1.50928e-06
2.82452e-06
-1.5828e-06
2.85617e-06
-1.65038e-06
2.87123e-06
-1.71168e-06
2.86975e-06
-1.7665e-06
2.8522e-06
-1.81483e-06
2.81936e-06
-1.85681e-06
2.77233e-06
-1.89272e-06
2.71244e-06
-1.92299e-06
2.64121e-06
2.56022e-06
-1.3949e-08
2.40625e-07
-4.97717e-08
6.25047e-07
-1.02219e-07
9.27024e-07
-1.66908e-07
1.16445e-06
-2.40398e-07
1.35557e-06
-3.20158e-07
1.51657e-06
-4.04417e-07
1.66011e-06
-4.91961e-07
1.79486e-06
-5.81916e-07
1.92574e-06
-6.73572e-07
2.05472e-06
-7.66267e-07
2.18167e-06
-8.59312e-07
2.30518e-06
-9.51969e-07
2.42319e-06
-1.04345e-06
2.53342e-06
-1.13295e-06
2.63364e-06
-1.21963e-06
2.7218e-06
-1.30272e-06
2.79617e-06
-1.38148e-06
2.85533e-06
-1.45525e-06
2.89828e-06
-1.52349e-06
2.92441e-06
-1.58579e-06
2.93352e-06
-1.64188e-06
2.92585e-06
-1.69168e-06
2.90199e-06
-1.73523e-06
2.86291e-06
-1.77275e-06
2.80985e-06
-1.8046e-06
2.74429e-06
-1.83125e-06
2.66785e-06
2.58222e-06
-1.32507e-08
2.53876e-07
-4.75982e-08
6.59394e-07
-9.82182e-08
9.77644e-07
-1.60958e-07
1.22719e-06
-2.32456e-07
1.42707e-06
-3.10167e-07
1.59428e-06
-3.92259e-07
1.7422e-06
-4.77445e-07
1.88004e-06
-5.64791e-07
2.01309e-06
-6.53543e-07
2.14348e-06
-7.43011e-07
2.27114e-06
-8.32497e-07
2.39467e-06
-9.21269e-07
2.51196e-06
-1.00856e-06
2.62071e-06
-1.09358e-06
2.71866e-06
-1.17555e-06
2.80378e-06
-1.25373e-06
2.87435e-06
-1.32744e-06
2.92904e-06
-1.39609e-06
2.96693e-06
-1.45921e-06
2.98753e-06
-1.51646e-06
2.99078e-06
-1.56767e-06
2.97706e-06
-1.61281e-06
2.94713e-06
-1.65202e-06
2.90211e-06
-1.68557e-06
2.8434e-06
-1.71387e-06
2.77259e-06
-1.73743e-06
2.69141e-06
2.60162e-06
-1.24289e-08
2.66305e-07
-4.50161e-08
6.91981e-07
-9.34328e-08
1.02606e-06
-1.53807e-07
1.28757e-06
-2.2289e-07
1.49616e-06
-2.98136e-07
1.66953e-06
-3.77663e-07
1.82173e-06
-4.60115e-07
1.96249e-06
-5.44496e-07
2.09747e-06
-6.30011e-07
2.22899e-06
-7.15948e-07
2.35708e-06
-8.01607e-07
2.48032e-06
-8.86266e-07
2.59662e-06
-9.69181e-07
2.70362e-06
-1.0496e-06
2.79908e-06
-1.12679e-06
2.88096e-06
-1.20006e-06
2.94762e-06
-1.26878e-06
2.99777e-06
-1.33245e-06
3.0306e-06
-1.39065e-06
3.04573e-06
-1.44314e-06
3.04326e-06
-1.48979e-06
3.02371e-06
-1.53067e-06
2.98801e-06
-1.56596e-06
2.9374e-06
-1.596e-06
2.87344e-06
-1.62123e-06
2.79783e-06
-1.64218e-06
2.71237e-06
2.61889e-06
-1.14947e-08
2.77799e-07
-4.20571e-08
7.22544e-07
-8.79166e-08
1.07192e-06
-1.45531e-07
1.34518e-06
-2.11795e-07
1.56242e-06
-2.84186e-07
1.74192e-06
-3.60775e-07
1.89832e-06
-4.40143e-07
2.04186e-06
-5.21235e-07
2.17856e-06
-6.03217e-07
2.31097e-06
-6.8536e-07
2.43922e-06
-7.66964e-07
2.56193e-06
-8.47325e-07
2.67698e-06
-9.2573e-07
2.78203e-06
-1.00147e-06
2.87481e-06
-1.07385e-06
2.95335e-06
-1.14224e-06
3.01601e-06
-1.20609e-06
3.06162e-06
-1.26494e-06
3.08945e-06
-1.31846e-06
3.09925e-06
-1.36646e-06
3.09127e-06
-1.4089e-06
3.06616e-06
-1.4459e-06
3.025e-06
-1.47769e-06
2.9692e-06
-1.50466e-06
2.9004e-06
-1.52726e-06
2.82043e-06
-1.54605e-06
2.73116e-06
2.63445e-06
-1.04608e-08
2.8826e-07
-3.87569e-08
7.5084e-07
-8.17305e-08
1.11489e-06
-1.36215e-07
1.39967e-06
-1.99282e-07
1.62549e-06
-2.68448e-07
1.81109e-06
-3.41753e-07
1.97162e-06
-4.17716e-07
2.11783e-06
-4.95228e-07
2.25607e-06
-5.73416e-07
2.38916e-06
-6.51537e-07
2.51734e-06
-7.28898e-07
2.63929e-06
-8.04816e-07
2.7529e-06
-8.78615e-07
2.85582e-06
-9.49626e-07
2.94582e-06
-1.01722e-06
3.02094e-06
-1.08081e-06
3.0796e-06
-1.13991e-06
3.12072e-06
-1.19414e-06
3.14367e-06
-1.24322e-06
3.14834e-06
-1.28704e-06
3.13508e-06
-1.32561e-06
3.10473e-06
-1.3591e-06
3.05849e-06
-1.38779e-06
2.99789e-06
-1.41208e-06
2.92469e-06
-1.43245e-06
2.84081e-06
-1.44946e-06
2.74817e-06
2.64865e-06
-9.34082e-09
2.97601e-07
-3.51546e-08
7.76654e-07
-7.49419e-08
1.15468e-06
-1.25953e-07
1.45068e-06
-1.85468e-07
1.685e-06
-2.51068e-07
1.87669e-06
-3.20769e-07
2.04133e-06
-3.93036e-07
2.19009e-06
-4.66706e-07
2.32974e-06
-5.40872e-07
2.46333e-06
-6.1478e-07
2.59125e-06
-6.87744e-07
2.71225e-06
-7.59112e-07
2.82427e-06
-8.28243e-07
2.92496e-06
-8.94519e-07
3.0121e-06
-9.57362e-07
3.08378e-06
-1.01625e-06
3.1385e-06
-1.07077e-06
3.17523e-06
-1.12057e-06
3.19348e-06
-1.16548e-06
3.19324e-06
-1.20541e-06
3.17502e-06
-1.24044e-06
3.13976e-06
-1.27077e-06
3.08881e-06
-1.29671e-06
3.02383e-06
-1.31869e-06
2.94667e-06
-1.33718e-06
2.8593e-06
-1.35272e-06
2.76371e-06
2.66179e-06
-8.14928e-09
3.0575e-07
-3.12923e-08
7.99797e-07
-6.76228e-08
1.19101e-06
-1.14845e-07
1.4979e-06
-1.70483e-07
1.74064e-06
-2.32199e-07
1.9384e-06
-2.98001e-07
2.10713e-06
-3.66308e-07
2.2584e-06
-4.35906e-07
2.39934e-06
-5.05855e-07
2.53328e-06
-5.75389e-07
2.66078e-06
-6.43839e-07
2.7807e-06
-7.10578e-07
2.891e-06
-7.75011e-07
2.98939e-06
-8.3657e-07
3.07366e-06
-8.94733e-07
3.14194e-06
-9.49044e-07
3.19281e-06
-9.99133e-07
3.22532e-06
-1.04474e-06
3.23908e-06
-1.08571e-06
3.23422e-06
-1.12204e-06
3.21135e-06
-1.15384e-06
3.17156e-06
-1.18133e-06
3.11631e-06
-1.20486e-06
3.04735e-06
-1.22483e-06
2.96665e-06
-1.24174e-06
2.87621e-06
-1.25609e-06
2.77806e-06
2.6741e-06
-6.90113e-09
-2.7214e-08
-5.98493e-08
1.22365e-06
-1.02999e-07
1.54105e-06
-1.54459e-07
1.7921e-06
-2.12e-07
1.99594e-06
-2.73636e-07
2.16877e-06
-3.37747e-07
2.32251e-06
-4.03069e-07
2.46466e-06
-4.68633e-07
2.59884e-06
-5.33665e-07
2.72582e-06