/*--------------------------------*- C++ -*----------------------------------*\
  =========                 |
  \\      /  F ield         | OpenFOAM: The Open Source CFD Toolbox
   \\    /   O peration     | Website:  https://openfoam.org
    \\  /    A nd           | Version:  9
     \\/     M anipulation  |
\*---------------------------------------------------------------------------*/
FoamFile
{
    format      ascii;
    class       volScalarField;
    location    "3";
    object      p;
}
// * * * * * * * * * * * * * * * * * * * * * * * * * * * * * * * * * * * * * //

dimensions      [0 2 -2 0 0 0 0];

internalField   nonuniform List<scalar> 
1240
(
0.00015814
0.000306521
0.000377874
0.000369497
0.00028081
0.000113399
-0.000129036
-0.000440833
-0.000814645
-0.0012415
-0.00171153
-0.00221414
-0.00273842
-0.00327365
-0.00380963
-0.00433695
-0.00484736
-0.00533385
-0.00579081
-0.00621404
-0.00660072
-0.00694929
-0.00725933
-0.00753135
-0.00776664
-0.00796701
-0.0081346
-0.00827169
-0.00838052
-0.00846313
-0.00852129
-0.0085565
-0.00857013
-0.0085638
-0.00854017
-0.00850416
-0.00846364
-0.00843195
-0.000141946
-3.53866e-06
6.17796e-05
5.14365e-05
-3.50966e-05
-0.000196268
-0.0004285
-0.000726333
-0.00108266
-0.00148904
-0.00193591
-0.00241324
-0.00291071
-0.00341819
-0.00392606
-0.00442555
-0.00490893
-0.00536973
-0.00580275
-0.00620417
-0.00657139
-0.00690304
-0.00719873
-0.00745899
-0.00768499
-0.00787841
-0.00804124
-0.0081756
-0.00828363
-0.00836734
-0.00842856
-0.00846899
-0.00849024
-0.00849409
-0.00848303
-0.00846089
-0.00843204
-0.00840022
-0.000346901
-0.000211457
-0.000147526
-0.000157698
-0.000242515
-0.000400447
-0.000627938
-0.00091955
-0.00126819
-0.00166543
-0.00210186
-0.00256746
-0.00305199
-0.00354552
-0.00403862
-0.00452272
-0.00499035
-0.00543531
-0.0058527
-0.00623894
-0.00659175
-0.00690995
-0.00719337
-0.0074427
-0.00765922
-0.00784469
-0.00800114
-0.00813074
-0.00823564
-0.00831787
-0.00837929
-0.00842158
-0.00844626
-0.00845483
-0.00844914
-0.00843183
-0.00840329
-0.00835961
-0.000544181
-0.000406043
-0.000338962
-0.000345665
-0.000426797
-0.000580891
-0.000804403
-0.00109187
-0.00143612
-0.00182858
-0.00225965
-0.00271956
-0.00319736
-0.00368332
-0.00416791
-0.00464253
-0.00509977
-0.00553351
-0.00593903
-0.00631296
-0.0066533
-0.00695909
-0.00723047
-0.00746837
-0.00767432
-0.00785031
-0.00799854
-0.00812132
-0.00822092
-0.00829943
-0.00835872
-0.00840041
-0.00842577
-0.00843584
-0.00843175
-0.00841493
-0.00838257
-0.00832528
-0.000793391
-0.000646495
-0.000570574
-0.000568607
-0.000641462
-0.000787828
-0.00100426
-0.0012853
-0.00162373
-0.00201087
-0.00243696
-0.00289169
-0.00336437
-0.00384468
-0.00432301
-0.00479042
-0.00523951
-0.0056641
-0.00605949
-0.00642247
-0.0067511
-0.00704481
-0.00730396
-0.00752979
-0.00772414
-0.00788926
-0.00802765
-0.00814182
-0.00823421
-0.00830705
-0.00836225
-0.00840132
-0.00842536
-0.00843494
-0.00843055
-0.00841268
-0.00837604
-0.00830714
-0.00113041
-0.000967033
-0.000874572
-0.000856411
-0.000913784
-0.00104569
-0.00124891
-0.00151814
-0.00184618
-0.00222429
-0.00264256
-0.00309038
-0.00355679
-0.00403101
-0.00450371
-0.00496462
-0.00540669
-0.00582346
-0.00621008
-0.00656331
-0.00688133
-0.00716368
-0.007411
-0.00762477
-0.00780713
-0.00796069
-0.00808821
-0.00819252
-0.00827626
-0.00834184
-0.00839126
-0.00842602
-0.00844706
-0.00845464
-0.00844874
-0.00842917
-0.00838896
-0.00831197
-0.00159185
-0.00140242
-0.00128353
-0.00123916
-0.00127111
-0.00137886
-0.00155963
-0.00180843
-0.00211825
-0.00248043
-0.00288498
-0.00332109
-0.00377754
-0.00424326
-0.00470787
-0.00516169
-0.00559662
-0.00600593
-0.00638454
-0.00672902
-0.0070375
-0.00730945
-0.00754583
-0.00774816
-0.00791889
-0.00806091
-0.0081773
-0.00827119
-0.0083455
-0.00840284
-0.00844537
-0.00847464
-0.00849155
-0.00849616
-0.00848813
-0.00846682
-0.00842436
-0.0083432
-0.00221584
-0.00198893
-0.00183157
-0.00174851
-0.00174232
-0.00181324
-0.00195915
-0.00217561
-0.00245605
-0.00279206
-0.00317376
-0.00359023
-0.00403006
-0.0044818
-0.00493455
-0.00537825
-0.00580418
-0.00620513
-0.00657558
-0.00691175
-0.00721152
-0.00747435
-0.00770076
-0.00789273
-0.0080528
-0.00818404
-0.00828983
-0.00837355
-0.00843842
-0.00848729
-0.00852252
-0.0085458
-0.00855807
-0.00855934
-0.00854912
-0.00852653
-0.00848337
-0.00840183
-0.00376697
-0.00337876
-0.00304141
-0.00276404
-0.00255424
-0.00241775
-0.00235815
-0.00237672
-0.00247229
-0.00264129
-0.00287786
-0.00317411
-0.00352049
-0.00390619
-0.0043197
-0.00474929
-0.0051836
-0.00561204
-0.00602526
-0.00641541
-0.00677638
-0.00710384
-0.00739521
-0.0076496
-0.00786746
-0.00805052
-0.00820139
-0.00832326
-0.00841967
-0.00849426
-0.00855048
-0.00859144
-0.00861972
-0.00863721
-0.00864497
-0.00864309
-0.00863107
-0.00860793
-0.00856567
-0.00848707
-0.0059271
-0.00542656
-0.00494895
-0.0045059
-0.00410844
-0.00376659
-0.00348899
-0.00328256
-0.00315217
-0.0031004
-0.00312739
-0.00323076
-0.00340574
-0.0036453
-0.00394053
-0.00428099
-0.00465527
-0.00505152
-0.00545799
-0.00586354
-0.00625814
-0.00663321
-0.00698187
-0.00729907
-0.00758157
-0.00782792
-0.0080382
-0.00821377
-0.00835719
-0.00847151
-0.00856036
-0.00862749
-0.00867657
-0.00871091
-0.00873331
-0.00874589
-0.00874989
-0.00874556
-0.00873248
-0.00870972
-0.00866982
-0.00859683
-0.0075195
-0.00696973
-0.00643458
-0.00592617
-0.00545622
-0.00503569
-0.00467439
-0.00438056
-0.00416061
-0.0040187
-0.00395661
-0.0039736
-0.00406634
-0.00422911
-0.00445401
-0.00473137
-0.00505016
-0.00539861
-0.00576475
-0.00613696
-0.00650453
-0.00685804
-0.00718971
-0.00749357
-0.00776556
-0.00800341
-0.00820658
-0.00837596
-0.0085135
-0.00862225
-0.00870568
-0.00876752
-0.00881152
-0.00884113
-0.00885936
-0.0088685
-0.00887001
-0.00886435
-0.00885125
-0.00882991
-0.00879365
-0.00872825
-0.00946137
-0.00885705
-0.00825721
-0.00767433
-0.00712075
-0.00660831
-0.00614799
-0.00574949
-0.00542089
-0.00516822
-0.00499523
-0.00490318
-0.00489069
-0.0049538
-0.00508614
-0.0052792
-0.00552281
-0.00580561
-0.00611563
-0.00644094
-0.00677019
-0.0070931
-0.00740088
-0.0076865
-0.00794478
-0.00817247
-0.0083681
-0.00853178
-0.00866493
-0.00877004
-0.00885029
-0.00890924
-0.00895059
-0.00897782
-0.00899403
-0.00900168
-0.00900241
-0.00899687
-0.00898502
-0.00896618
-0.00893462
-0.00887809
-0.0117721
-0.0111103
-0.0104411
-0.00977718
-0.00913124
-0.0085159
-0.00794324
-0.00742439
-0.00696916
-0.00658563
-0.00627982
-0.00605534
-0.00591321
-0.00585178
-0.00586675
-0.00595139
-0.00609686
-0.0062927
-0.00652737
-0.00678886
-0.00706534
-0.00734573
-0.00762016
-0.00788037
-0.00811992
-0.00833427
-0.00852078
-0.0086785
-0.00880798
-0.00891098
-0.00899013
-0.00904861
-0.00908988
-0.0091173
-0.00913397
-0.0091424
-0.00914435
-0.00914065
-0.00913143
-0.00911619
-0.00909016
-0.00904312
-0.014457
-0.0137377
-0.0129977
-0.0122496
-0.0115062
-0.0107806
-0.0100857
-0.00943399
-0.00883691
-0.00830465
-0.0078456
-0.00746606
-0.00716985
-0.00695815
-0.00682934
-0.00677913
-0.00680069
-0.00688508
-0.0070217
-0.00719895
-0.00740481
-0.00762754
-0.00785623
-0.00808131
-0.00829486
-0.00849086
-0.00866516
-0.00881548
-0.00894118
-0.00904298
-0.00912271
-0.00918293
-0.00922662
-0.00925687
-0.00927659
-0.00928823
-0.00929358
-0.00929357
-0.00928844
-0.00927786
-0.00925794
-0.00922047
-0.017504
-0.0167307
-0.0159224
-0.0150912
-0.0142498
-0.0134113
-0.0125891
-0.0117968
-0.0110471
-0.0103523
-0.00972299
-0.00916839
-0.00869541
-0.00830849
-0.0080093
-0.00779667
-0.00766656
-0.00761232
-0.00762508
-0.00769421
-0.00780803
-0.00795449
-0.00812181
-0.00829909
-0.00847683
-0.00864727
-0.00880449
-0.00894452
-0.00906517
-0.00916585
-0.00924723
-0.00931097
-0.00935935
-0.00939493
-0.00942024
-0.00943755
-0.00944851
-0.00945406
-0.00945449
-0.00944954
-0.00943615
-0.00940786
-0.0208834
-0.0200629
-0.0191927
-0.0182841
-0.0173491
-0.0164005
-0.015452
-0.0145173
-0.0136103
-0.0127448
-0.0119337
-0.0111888
-0.0105201
-0.00993585
-0.00944135
-0.00903922
-0.00872906
-0.0085074
-0.00836796
-0.00830201
-0.00829894
-0.00834693
-0.0084337
-0.00854723
-0.0086764
-0.00881152
-0.00894464
-0.00906976
-0.00918275
-0.0092813
-0.00936459
-0.00943305
-0.00948792
-0.00953102
-0.00956431
-0.0095896
-0.00960831
-0.00962125
-0.00962864
-0.00963023
-0.00962361
-0.00960382
-0.0245486
-0.0236904
-0.0227682
-0.0217921
-0.0207731
-0.0197231
-0.0186552
-0.0175832
-0.0165213
-0.0154843
-0.0144868
-0.013543
-0.0126659
-0.0118671
-0.0111563
-0.0105402
-0.0100229
-0.00960487
-0.00928363
-0.00905335
-0.00890549
-0.00882933
-0.00881275
-0.008843
-0.00890752
-0.00899464
-0.00909415
-0.00919765
-0.00929869
-0.0093928
-0.00947726
-0.00955083
-0.00961347
-0.00966587
-0.00970916
-0.00974454
-0.00977297
-0.00979499
-0.00981063
-0.00981957
-0.00981986
-0.00980773
-0.0284391
-0.0275548
-0.0265933
-0.0255631
-0.0244739
-0.0233362
-0.022162
-0.0209645
-0.0197575
-0.0185561
-0.0173759
-0.0162328
-0.0151423
-0.0141193
-0.0131773
-0.0123278
-0.0115797
-0.0109385
-0.0104063
-0.00998147
-0.00965881
-0.00942986
-0.00928363
-0.00920739
-0.00918756
-0.00921067
-0.00926414
-0.00933689
-0.00941972
-0.00950552
-0.00958917
-0.00966737
-0.00973829
-0.00980121
-0.00985613
-0.00990337
-0.00994325
-0.00997585
-0.0100009
-0.0100179
-0.0100252
-0.0100199
-0.0324857
-0.0315878
-0.0306012
-0.0295325
-0.0283899
-0.0271822
-0.0259198
-0.0246144
-0.0232791
-0.0219282
-0.0205775
-0.0192436
-0.0179439
-0.0166957
-0.0155163
-0.0144214
-0.0134249
-0.012538
-0.0117685
-0.0111199
-0.0105918
-0.0101794
-0.00987432
-0.00966484
-0.00953725
-0.00947672
-0.00946841
-0.0094984
-0.0095544
-0.00962614
-0.00970557
-0.00978676
-0.00986565
-0.00993968
-0.0100073
-0.0100678
-0.0101206
-0.0101651
-0.0102006
-0.0102263
-0.0102408
-0.0102415
-0.0366165
-0.0357172
-0.0347196
-0.0336289
-0.0324511
-0.0311933
-0.029864
-0.0284729
-0.0270314
-0.0255526
-0.0240513
-0.022544
-0.0210487
-0.0195844
-0.0181709
-0.0168278
-0.0155739
-0.0144259
-0.0133978
-0.0124996
-0.0117369
-0.0111102
-0.0106151
-0.0102428
-0.00998045
-0.00981285
-0.00972338
-0.00969535
-0.00971311
-0.0097628
-0.00983284
-0.00991407
-0.00999963
-0.0100846
-0.0101656
-0.0102403
-0.010307
-0.0103645
-0.0104114
-0.0104465
-0.0104682
-0.0104745
-0.0407625
-0.0398726
-0.0388773
-0.0377802
-0.0365853
-0.0352978
-0.0339241
-0.0324715
-0.0309495
-0.029369
-0.0277432
-0.0260872
-0.0244185
-0.0227567
-0.0211228
-0.0195394
-0.0180291
-0.0166138
-0.0153139
-0.0141463
-0.0131237
-0.0122535
-0.0115373
-0.0109706
-0.0105436
-0.0102419
-0.0100481
-0.00994319
-0.00990811
-0.00992509
-0.00997848
-0.0100552
-0.010145
-0.0102398
-0.0103341
-0.0104235
-0.0105051
-0.0105764
-0.0106354
-0.0106805
-0.0107098
-0.0107215
-0.0448628
-0.0439911
-0.0430093
-0.0419193
-0.0407236
-0.0394256
-0.0380291
-0.0365396
-0.0349638
-0.0333101
-0.0315894
-0.0298146
-0.0280017
-0.0261692
-0.0243383
-0.0225327
-0.0207779
-0.0191
-0.0175249
-0.0160766
-0.0147756
-0.0136372
-0.0126708
-0.0118783
-0.011255
-0.0107892
-0.0104642
-0.0102596
-0.0101535
-0.0101241
-0.0101511
-0.0102168
-0.0103069
-0.0104097
-0.0105165
-0.0106207
-0.0107176
-0.0108034
-0.0108753
-0.010931
-0.0109683
-0.0109855
-0.0488679
-0.0480207
-0.0470608
-0.0459888
-0.0448059
-0.0435136
-0.0421139
-0.0406099
-0.0390057
-0.0373073
-0.0355224
-0.0336613
-0.0317373
-0.0297669
-0.0277699
-0.0257697
-0.0237927
-0.0218679
-0.0200255
-0.0182958
-0.0167068
-0.0152827
-0.0140417
-0.0129943
-0.0121429
-0.0114812
-0.0109951
-0.0106645
-0.0104654
-0.0103724
-0.0103603
-0.0104064
-0.0104912
-0.0105987
-0.0107165
-0.0108351
-0.0109475
-0.0110484
-0.0111339
-0.0112008
-0.0112467
-0.01127
-0.0527412
-0.0519223
-0.0509898
-0.0499436
-0.0487836
-0.0475098
-0.0461227
-0.0446233
-0.0430133
-0.041296
-0.0394761
-0.0375609
-0.0355604
-0.0334879
-0.0313607
-0.0292002
-0.0270323
-0.0248866
-0.0227961
-0.0207957
-0.0189201
-0.0172021
-0.0156695
-0.0143431
-0.0132343
-0.0123447
-0.0116657
-0.0111795
-0.0108618
-0.0106842
-0.0106172
-0.0106322
-0.0107042
-0.0108119
-0.0109383
-0.0110702
-0.011198
-0.0113143
-0.011414
-0.011493
-0.0115483
-0.0115786
-0.0564587
-0.0556697
-0.0547676
-0.0537517
-0.0526212
-0.051375
-0.0500122
-0.0485322
-0.0469346
-0.0452203
-0.0433913
-0.0414515
-0.0394074
-0.0372686
-0.035049
-0.0327668
-0.0304452
-0.0281129
-0.0258034
-0.0235541
-0.0214051
-0.0193962
-0.0175649
-0.0159426
-0.0145521
-0.013405
-0.0125009
-0.0118275
-0.0113623
-0.0110756
-0.010934
-0.0109036
-0.0109529
-0.0110545
-0.0111858
-0.0113294
-0.0114721
-0.0116043
-0.0117188
-0.0118106
-0.0118764
-0.0119149
-0.0600079
-0.0592483
-0.0583773
-0.0573937
-0.0562961
-0.0550828
-0.0537519
-0.0523015
-0.0507299
-0.0490357
-0.0472184
-0.045279
-0.0432205
-0.0410489
-0.0387735
-0.0364087
-0.0339738
-0.0314946
-0.0290029
-0.0265365
-0.024138
-0.021853
-0.0197269
-0.017802
-0.0161128
-0.0146834
-0.0135242
-0.0126314
-0.0119874
-0.0115638
-0.0113247
-0.0112311
-0.011245
-0.0113322
-0.0114637
-0.0116165
-0.0117732
-0.0119212
-0.0120513
-0.0121569
-0.0122342
-0.0122824
-0.0633852
-0.0626534
-0.0618123
-0.0608606
-0.0597967
-0.0586184
-0.0573234
-0.0559089
-0.0543719
-0.0527096
-0.0509196
-0.0490003
-0.0469516
-0.0447757
-0.0424777
-0.0400674
-0.0375594
-0.0349751
-0.0323426
-0.0296978
-0.0270835
-0.024548
-0.022143
-0.0199198
-0.0179248
-0.0161955
-0.0147557
-0.0136129
-0.0127583
-0.0121674
-0.0118043
-0.0116264
-0.0115894
-0.0116515
-0.0117766
-0.0119351
-0.0121044
-0.0122681
-0.0124144
-0.0125349
-0.012625
-0.0126847
-0.0665939
-0.0658873
-0.0650738
-0.0641521
-0.0631206
-0.061977
-0.0607187
-0.0593425
-0.0578448
-0.0562216
-0.0544692
-0.052584
-0.0505633
-0.0484059
-0.0461131
-0.04369
-0.0411462
-0.0384975
-0.0357672
-0.032987
-0.030197
-0.0274459
-0.0247885
-0.022283
-0.0199864
-0.0179492
-0.0162101
-0.014791
-0.0136948
-0.0129051
-0.0123891
-0.0121025
-0.0119957
-0.0120197
-0.0121299
-0.0122893
-0.0124692
-0.0126482
-0.0128112
-0.0129476
-0.013052
-0.0131251
-0.0696416
-0.0689571
-0.0681681
-0.0672735
-0.0662718
-0.0651607
-0.0639378
-0.0625996
-0.0611422
-0.0595614
-0.0578522
-0.0560097
-0.0540293
-0.0519073
-0.0496414
-0.0472324
-0.0446849
-0.0420091
-0.0392222
-0.0363501
-0.0334285
-0.030503
-0.0276288
-0.0248677
-0.022285
-0.0199429
-0.0178951
-0.0161797
-0.0148146
-0.0137953
-0.0130959
-0.0126735
-0.0124752
-0.0124448
-0.0125296
-0.0126838
-0.0128711
-0.0130645
-0.0132447
-0.013398
-0.0135182
-0.0136067
-0.0725382
-0.0718727
-0.0711049
-0.0702339
-0.0692585
-0.0681767
-0.0669862
-0.0656836
-0.0642653
-0.0627266
-0.0610624
-0.0592668
-0.0573341
-0.0552583
-0.0530347
-0.0506603
-0.0481352
-0.0454639
-0.0426574
-0.039735
-0.0367259
-0.0336707
-0.0306215
-0.0276406
-0.0247979
-0.0221652
-0.01981
-0.0177869
-0.0161314
-0.0148543
-0.013941
-0.013354
-0.0130396
-0.0129362
-0.0129824
-0.0131234
-0.0133141
-0.0135205
-0.0137179
-0.0138892
-0.0140267
-0.0141327
-0.074645
-0.073895
-0.0730441
-0.0720913
-0.0710349
-0.0698729
-0.0686025
-0.0672201
-0.0657212
-0.0641008
-0.0623527
-0.0604703
-0.0584467
-0.056275
)
;

boundaryField
{
    movingWall
    {
        type            zeroGradient;
    }
    fixedWalls
    {
        type            zeroGradient;
    }
    frontAndBack
    {
        type            empty;
    }
    procBoundary7to1
    {
        type            processor;
        value           nonuniform List<scalar> 
33
(
-6.25845e-05
-0.000348954
-0.000549369
-0.000748722
-0.00100631
-0.00135933
-0.0018459
-0.00284993
-0.00250562
-0.00250562
-0.00465392
-0.00419573
-0.00419573
-0.00643866
-0.00807173
-0.0100579
-0.0124144
-0.0151437
-0.0182312
-0.0216442
-0.025334
-0.0292388
-0.033289
-0.0374132
-0.0415441
-0.0456226
-0.0496016
-0.0534465
-0.0571352
-0.0606567
-0.0640085
-0.0671943
-0.0702221
)
;
    }
    procBoundary7to6
    {
        type            processor;
        value           nonuniform List<scalar> 
45
(
-0.0731018
-0.0752946
-0.0539494
-0.0514661
-0.0488245
-0.0460298
-0.0430941
-0.0400394
-0.0368991
-0.0337198
-0.030561
-0.0274935
-0.0245952
-0.0219448
-0.0196129
-0.0176533
-0.0160954
-0.0149397
-0.0141587
-0.0137016
-0.0135037
-0.013496
-0.0136138
-0.0138025
-0.0140195
-0.0142339
-0.0144241
-0.0145803
-0.014706
-0.0752946
-0.0772848
-0.0765495
-0.0757153
-0.0747812
-0.0737463
-0.0726087
-0.0713662
-0.0700155
-0.0685528
-0.066973
-0.0652703
-0.0634379
-0.0614681
-0.0539494
-0.0593529
)
;
    }
}


// ************************************************************************* //
