/*--------------------------------*- C++ -*----------------------------------*\
  =========                 |
  \\      /  F ield         | OpenFOAM: The Open Source CFD Toolbox
   \\    /   O peration     | Website:  https://openfoam.org
    \\  /    A nd           | Version:  9
     \\/     M anipulation  |
\*---------------------------------------------------------------------------*/
FoamFile
{
    format      ascii;
    class       surfaceScalarField;
    location    "3";
    object      phi;
}
// * * * * * * * * * * * * * * * * * * * * * * * * * * * * * * * * * * * * * //

dimensions      [0 3 -1 0 0 0 0];

internalField   nonuniform List<scalar> 
2407
(
-1.04117e-07
-1.49036e-08
-8.86138e-08
-1.5503e-08
-7.27507e-08
-1.58631e-08
-5.67776e-08
-1.59731e-08
-4.09488e-08
-1.58288e-08
-2.55156e-08
-1.54333e-08
-1.07189e-08
-1.47967e-08
3.21808e-09
-1.39369e-08
1.60972e-08
-1.28791e-08
2.77479e-08
-1.16507e-08
3.80363e-08
-1.02884e-08
4.68656e-08
-8.82937e-09
5.41798e-08
-7.31419e-09
5.99618e-08
-5.78196e-09
6.42323e-08
-4.27048e-09
6.7047e-08
-2.81473e-09
6.84919e-08
-1.44488e-09
6.86776e-08
-1.85702e-10
6.77335e-08
9.44122e-10
6.58012e-08
1.93227e-09
6.30284e-08
2.77277e-09
5.95631e-08
3.4653e-09
5.55483e-08
4.01485e-09
5.11176e-08
4.43064e-09
4.63925e-08
4.7251e-09
4.148e-08
4.91258e-09
3.64721e-08
5.00788e-09
3.14475e-08
5.02455e-09
2.64746e-08
4.97292e-09
2.16168e-08
4.85778e-09
1.69411e-08
4.67577e-09
1.25285e-08
4.41255e-09
8.48819e-09
4.04032e-09
4.97094e-09
3.51725e-09
2.17707e-09
2.79387e-09
3.43062e-10
1.834e-09
-3.39229e-10
6.82288e-10
-3.39232e-10
-2.98376e-07
-5.2688e-08
-2.59234e-07
-5.46454e-08
-2.19263e-07
-5.5834e-08
-1.79014e-07
-5.62218e-08
-1.39047e-07
-5.57958e-08
-9.99175e-08
-5.45631e-08
-6.21623e-08
-5.25518e-08
-2.62881e-08
-4.98112e-08
7.24316e-09
-4.64103e-08
3.80292e-08
-4.24368e-08
6.57306e-08
-3.79897e-08
9.00854e-08
-3.31842e-08
1.10914e-07
-2.81425e-08
1.28119e-07
-2.29869e-08
1.41686e-07
-1.78377e-08
1.51681e-07
-1.28101e-08
1.58243e-07
-8.00698e-09
1.61574e-07
-3.51676e-09
1.6193e-07
5.88879e-10
1.59604e-07
4.258e-09
1.54919e-07
7.45736e-09
1.48212e-07
1.01727e-08
1.3982e-07
1.24072e-08
1.30071e-07
1.41794e-08
1.19277e-07
1.55192e-08
1.07725e-07
1.64647e-08
9.56755e-08
1.7057e-08
8.33656e-08
1.73344e-08
7.10121e-08
1.73264e-08
5.88231e-08
1.70468e-08
4.70131e-08
1.64858e-08
3.58211e-08
1.56046e-08
2.553e-08
1.43314e-08
1.64805e-08
1.25668e-08
9.06667e-09
1.02077e-08
3.69758e-09
7.20309e-09
7.0667e-10
3.6732e-09
3.67438e-10
-4.85442e-07
-1.07643e-07
-4.28633e-07
-1.11454e-07
-3.70654e-07
-1.13813e-07
-3.12214e-07
-1.14662e-07
-2.54035e-07
-1.13975e-07
-1.96838e-07
-1.11759e-07
-1.41331e-07
-1.08059e-07
-8.81879e-08
-1.02954e-07
-3.8036e-08
-9.65623e-08
8.55899e-09
-8.90317e-08
5.11112e-08
-8.05419e-08
8.92121e-08
-7.12851e-08
1.22562e-07
-6.14925e-08
1.50958e-07
-5.13829e-08
1.74303e-07
-4.1183e-08
1.92608e-07
-3.11143e-08
2.0598e-07
-2.13795e-08
2.14623e-07
-1.21591e-08
2.18817e-07
-3.60582e-09
2.18915e-07
4.16047e-09
2.15315e-07
1.10568e-08
2.08456e-07
1.7032e-08
1.98792e-07
2.20709e-08
1.86784e-07
2.61881e-08
1.7288e-07
2.94231e-08
1.57511e-07
3.18331e-08
1.41084e-07
3.3484e-08
1.23979e-07
3.44401e-08
1.06553e-07
3.47522e-08
8.91548e-08
3.44448e-08
7.21365e-08
3.35041e-08
5.58727e-08
3.18684e-08
4.07788e-08
2.94253e-08
2.73217e-08
2.60239e-08
1.60152e-08
2.15142e-08
7.3898e-09
1.58285e-08
1.92615e-09
9.13685e-09
2.29358e-09
-6.73056e-07
-1.75206e-07
-6.03243e-07
-1.81267e-07
-5.31924e-07
-1.85132e-07
-4.59878e-07
-1.86708e-07
-3.87903e-07
-1.8595e-07
-3.16803e-07
-1.82859e-07
-2.47375e-07
-1.77487e-07
-1.80392e-07
-1.69938e-07
-1.16587e-07
-1.60367e-07
-5.66378e-08
-1.4898e-07
-1.15425e-09
-1.36025e-07
4.93569e-08
-1.21796e-07
9.446e-08
-1.06596e-07
1.33842e-07
-9.07648e-08
1.67301e-07
-7.46417e-08
1.94752e-07
-5.85662e-08
2.16229e-07
-4.28556e-08
2.31871e-07
-2.78011e-08
2.41922e-07
-1.36574e-08
2.4672e-07
-6.3741e-10
2.46671e-07
1.11061e-08
2.42245e-07
2.1458e-08
2.33952e-07
3.03642e-08
2.22324e-07
3.78153e-08
2.07904e-07
4.38432e-08
1.91227e-07
4.85105e-08
1.72813e-07
5.18983e-08
1.53163e-07
5.409e-08
1.3276e-07
5.51544e-08
1.12078e-07
5.51271e-08
9.15892e-08
5.3993e-08
7.1784e-08
5.16736e-08
5.31855e-08
4.80239e-08
3.63615e-08
4.28479e-08
2.19304e-08
3.59453e-08
1.05589e-08
2.71999e-08
2.96461e-09
1.67312e-08
5.25819e-09
-8.68171e-07
-2.51888e-07
-7.88817e-07
-2.60621e-07
-7.0755e-07
-2.66399e-07
-6.25164e-07
-2.69094e-07
-5.42487e-07
-2.68628e-07
-4.6036e-07
-2.64986e-07
-3.79631e-07
-2.58216e-07
-3.01134e-07
-2.48435e-07
-2.25676e-07
-2.35825e-07
-1.54021e-07
-2.20636e-07
-8.6869e-08
-2.03177e-07
-2.48501e-08
-1.83815e-07
3.15084e-08
-1.62954e-07
8.17779e-08
-1.41034e-07
1.25632e-07
-1.18496e-07
1.62886e-07
-9.58196e-08
1.93463e-07
-7.34332e-08
2.17414e-07
-5.17521e-08
2.34906e-07
-3.11486e-08
2.4621e-07
-1.19414e-08
2.51701e-07
5.61456e-09
2.51828e-07
2.13308e-08
2.47107e-07
3.50857e-08
2.38098e-07
4.68242e-08
2.25392e-07
5.65495e-08
2.09591e-07
6.43112e-08
1.913e-07
7.01895e-08
1.71114e-07
7.42752e-08
1.49621e-07
7.66474e-08
1.27399e-07
7.73492e-08
1.05027e-07
7.63652e-08
8.30958e-08
7.36046e-08
6.22247e-08
6.8895e-08
4.30756e-08
6.19969e-08
2.6374e-08
5.26469e-08
1.29365e-08
4.06375e-08
3.72399e-09
2.59437e-08
8.98218e-09
-1.07561e-06
-3.35139e-07
-9.89181e-07
-3.47052e-07
-9.00311e-07
-3.55269e-07
-8.09792e-07
-3.59612e-07
-7.18457e-07
-3.59963e-07
-6.27167e-07
-3.56277e-07
-5.368e-07
-3.48583e-07
-4.48241e-07
-3.36994e-07
-3.62357e-07
-3.21709e-07
-2.79985e-07
-3.03007e-07
-2.01915e-07
-2.81247e-07
-1.28871e-07
-2.5686e-07
-6.14917e-08
-2.30333e-07
-3.24296e-10
-2.02202e-07
5.4224e-08
-1.73044e-07
1.01818e-07
-1.43413e-07
1.42276e-07
-1.13891e-07
1.75543e-07
-8.50196e-08
2.0169e-07
-5.72953e-08
2.20906e-07
-3.11576e-08
2.33496e-07
-6.9754e-09
2.39863e-07
1.49643e-08
2.4049e-07
3.44582e-08
2.35934e-07
5.13801e-08
2.268e-07
6.5684e-08
2.13725e-07
7.73858e-08
1.97368e-07
8.65464e-08
1.78395e-07
9.32487e-08
1.57472e-07
9.75705e-08
1.35266e-07
9.95553e-08
1.12446e-07
9.91847e-08
8.96951e-08
9.63557e-08
6.77204e-08
9.08697e-08
4.72775e-08
8.24399e-08
2.91999e-08
7.07244e-08
1.4449e-08
5.53884e-08
4.19515e-09
3.61975e-08
1.31773e-08
-1.2974e-06
-4.23114e-07
-1.20563e-06
-4.38824e-07
-1.11077e-06
-4.50129e-07
-1.01359e-06
-4.56787e-07
-9.1493e-07
-4.58625e-07
-8.15655e-07
-4.55551e-07
-7.16674e-07
-4.47564e-07
-6.18911e-07
-4.34757e-07
-5.23295e-07
-4.17325e-07
-4.30737e-07
-3.95565e-07
-3.42112e-07
-3.69873e-07
-2.5824e-07
-3.40732e-07
-1.79866e-07
-3.08707e-07
-1.07642e-07
-2.74425e-07
-4.21261e-08
-2.38561e-07
1.62642e-08
-2.01804e-07
6.72253e-08
-1.64852e-07
1.10588e-07
-1.28382e-07
1.46319e-07
-9.30257e-08
1.74514e-07
-5.93528e-08
1.95394e-07
-2.78557e-08
2.09303e-07
1.05571e-09
2.16668e-07
2.70926e-08
2.18021e-07
5.00274e-08
2.13955e-07
6.97497e-08
2.0512e-07
8.62209e-08
1.92203e-07
9.94636e-08
1.75916e-07
1.09536e-07
1.56986e-07
1.165e-07
1.36151e-07
1.20391e-07
1.14156e-07
1.21179e-07
9.17653e-08
1.18746e-07
6.97707e-08
1.12864e-07
4.90173e-08
1.03193e-07
3.0441e-08
8.93008e-08
1.5127e-08
7.07024e-08
4.40063e-09
4.69239e-08
1.7578e-08
-1.53281e-06
-5.14405e-07
-1.43701e-06
-5.34629e-07
-1.33736e-06
-5.49777e-07
-1.23461e-06
-5.59534e-07
-1.12958e-06
-5.63655e-07
-1.02315e-06
-5.61986e-07
-9.16237e-07
-5.54473e-07
-8.09821e-07
-5.41172e-07
-7.04886e-07
-5.2226e-07
-6.0242e-07
-4.98032e-07
-5.03388e-07
-4.68904e-07
-4.08714e-07
-4.35406e-07
-3.19255e-07
-3.98166e-07
-2.35784e-07
-3.57897e-07
-1.5897e-07
-3.15374e-07
-8.93619e-08
-2.71412e-07
-2.73786e-08
-2.26836e-07
2.66988e-08
-1.8246e-07
7.27301e-08
-1.39057e-07
1.10716e-07
-9.73383e-08
1.40792e-07
-5.79323e-08
1.63219e-07
-2.13706e-08
1.78384e-07
1.19271e-08
1.86766e-07
4.16455e-08
1.88936e-07
6.75794e-08
1.85538e-07
8.96192e-08
1.7727e-07
1.07731e-07
1.64873e-07
1.21933e-07
1.49118e-07
1.32256e-07
1.30796e-07
1.38712e-07
1.10721e-07
1.41255e-07
8.97252e-08
1.39742e-07
6.86795e-08
1.3391e-07
4.85112e-08
1.23362e-07
3.02448e-08
1.07567e-07
1.50602e-08
8.5887e-08
4.37677e-09
5.76073e-08
2.19547e-08
-1.95986e-06
-5.4158e-07
-1.87231e-06
-5.77036e-07
-1.77894e-06
-6.07777e-07
-1.68027e-06
-6.33297e-07
-1.57692e-06
-6.53129e-07
-1.46959e-06
-6.66867e-07
-1.35906e-06
-6.74179e-07
-1.24622e-06
-6.74829e-07
-1.132e-06
-6.68689e-07
-1.01742e-06
-6.55757e-07
-9.03511e-07
-6.36167e-07
-7.91349e-07
-6.10195e-07
-6.81994e-07
-5.78259e-07
-5.76483e-07
-5.40918e-07
-4.75795e-07
-4.98853e-07
-3.80834e-07
-4.52858e-07
-2.92401e-07
-4.03808e-07
-2.11176e-07
-3.52637e-07
-1.37703e-07
-3.00308e-07
-7.23834e-08
-2.47779e-07
-1.54666e-08
-1.95974e-07
3.29494e-08
-1.45754e-07
7.29138e-08
-9.78967e-08
1.04615e-07
-5.30722e-08
1.28376e-07
-1.1834e-08
1.44634e-07
2.53877e-08
1.53928e-07
5.82861e-08
1.56885e-07
8.66617e-08
1.54207e-07
1.1041e-07
1.4665e-07
1.2949e-07
1.35016e-07
1.4389e-07
1.2014e-07
1.53588e-07
1.0289e-07
1.58505e-07
8.41616e-08
1.5847e-07
6.48933e-08
1.53178e-07
4.60842e-08
1.42171e-07
2.88295e-08
1.24822e-07
1.43711e-08
1.00345e-07
4.16644e-09
6.7812e-08
2.61212e-08
-2.36752e-06
-5.24925e-07
-2.29393e-06
-5.75536e-07
-2.21319e-06
-6.22322e-07
-2.12556e-06
-6.64666e-07
-2.03138e-06
-7.01951e-07
-1.9311e-06
-7.33581e-07
-1.82524e-06
-7.58991e-07
-1.71443e-06
-7.77669e-07
-1.59944e-06
-7.89179e-07
-1.48108e-06
-7.93179e-07
-1.36033e-06
-7.89447e-07
-1.23819e-06
-7.77893e-07
-1.11577e-06
-7.58584e-07
-9.9422e-07
-7.31749e-07
-8.74694e-07
-6.97785e-07
-7.58353e-07
-6.57258e-07
-6.46316e-07
-6.1089e-07
-5.39632e-07
-5.59541e-07
-4.39254e-07
-5.04186e-07
-3.46012e-07
-4.45879e-07
-2.60595e-07
-3.85726e-07
-1.83536e-07
-3.24839e-07
-1.15203e-07
-2.64307e-07
-5.58004e-08
-2.05157e-07
-5.36823e-09
-1.48329e-07
3.62089e-08
-9.46493e-08
6.91911e-08
-4.48162e-08
9.39749e-08
6.0392e-10
1.11064e-07
4.11972e-08
1.21073e-07
7.66529e-08
1.24698e-07
1.06784e-07
1.22708e-07
1.3148e-07
1.15927e-07
1.5067e-07
1.05229e-07
1.64286e-07
9.1524e-08
1.7221e-07
7.5764e-08
1.7423e-07
5.89456e-08
1.69997e-07
4.21266e-08
1.5899e-07
2.64535e-08
1.40495e-07
1.31999e-08
1.13599e-07
3.81563e-09
7.71963e-08
2.99368e-08
-2.61471e-06
-5.88466e-07
-2.54348e-06
-6.46762e-07
-2.46465e-06
-7.01155e-07
-2.37835e-06
-7.5096e-07
-2.28483e-06
-7.95479e-07
-2.18439e-06
-8.34022e-07
-2.07746e-06
-8.6592e-07
-1.96458e-06
-8.90544e-07
-1.84642e-06
-9.07337e-07
-1.72377e-06
-9.1583e-07
-1.59754e-06
-9.15677e-07
-1.46876e-06
-9.06673e-07
-1.33856e-06
-8.88784e-07
-1.20815e-06
-8.62157e-07
-1.0788e-06
-8.27138e-07
-9.51788e-07
-7.84271e-07
-8.28385e-07
-7.34293e-07
-7.0981e-07
-6.78117e-07
-5.97191e-07
-6.16804e-07
-4.91537e-07
-5.51533e-07
-3.93707e-07
-4.83555e-07
-3.04393e-07
-4.14153e-07
-2.24105e-07
-3.44595e-07
-1.53166e-07
-2.76096e-07
-9.17166e-08
-2.09778e-07
-3.972e-08
-1.46646e-07
3.02484e-09
-8.7561e-08
3.68638e-08
-3.3235e-08
6.22853e-08
1.57758e-08
7.98833e-08
5.90548e-08
9.0355e-08
9.63128e-08
9.44794e-08
1.27355e-07
9.31041e-08
1.52045e-07
8.71334e-08
1.70257e-07
7.75202e-08
1.81823e-07
6.52623e-08
1.86488e-07
5.1406e-08
1.83853e-07
3.70556e-08
1.7334e-07
2.3391e-08
1.54159e-07
1.1693e-08
1.25297e-07
3.37097e-09
8.55183e-08
3.33078e-08
-2.85096e-06
-6.48094e-07
-2.78344e-06
-7.14286e-07
-2.70798e-06
-7.76618e-07
-2.62459e-06
-8.34345e-07
-2.53337e-06
-8.86699e-07
-2.4345e-06
-9.32898e-07
-2.32825e-06
-9.72164e-07
-2.21505e-06
-1.00375e-06
-2.09543e-06
-1.02696e-06
-1.97009e-06
-1.04117e-06
-1.83987e-06
-1.0459e-06
-1.70576e-06
-1.04078e-06
-1.5689e-06
-1.02564e-06
-1.43054e-06
-1.00052e-06
-1.29203e-06
-9.65651e-07
-1.15477e-06
-9.21529e-07
-1.0202e-06
-8.68867e-07
-8.89711e-07
-8.08603e-07
-7.64647e-07
-7.41869e-07
-6.46224e-07
-6.69956e-07
-5.35512e-07
-5.94268e-07
-4.33397e-07
-5.16268e-07
-3.40565e-07
-4.37427e-07
-2.5749e-07
-3.59171e-07
-1.84433e-07
-2.82835e-07
-1.21451e-07
-2.09628e-07
-6.84102e-08
-1.40601e-07
-2.50062e-08
-7.6639e-08
9.22039e-09
-1.84509e-08
3.48586e-08
3.34166e-08
5.26101e-08
7.85613e-08
6.32702e-08
1.16695e-07
6.7712e-08
1.47604e-07
6.6873e-08
1.71096e-07
6.17453e-08
1.86951e-07
5.33701e-08
1.94863e-07
4.28357e-08
1.94387e-07
3.12828e-08
1.84893e-07
1.99114e-08
1.65531e-07
9.99255e-09
1.35216e-07
2.87695e-09
9.26339e-08
3.61847e-08
-3.06963e-06
-7.02633e-07
-3.00716e-06
-7.76751e-07
-2.9366e-06
-8.47178e-07
-2.85782e-06
-9.1313e-07
-2.77074e-06
-9.73776e-07
-2.67538e-06
-1.02825e-06
-2.57186e-06
-1.07569e-06
-2.46042e-06
-1.11519e-06
-2.34143e-06
-1.14594e-06
-2.21545e-06
-1.16715e-06
-2.0832e-06
-1.17815e-06
-1.94558e-06
-1.1784e-06
-1.80367e-06
-1.16755e-06
-1.65874e-06
-1.14545e-06
-1.51218e-06
-1.11221e-06
-1.36551e-06
-1.0682e-06
-1.2203e-06
-1.01408e-06
-1.07815e-06
-9.50748e-07
-9.40635e-07
-8.79389e-07
-8.09208e-07
-8.01383e-07
-6.85195e-07
-7.18281e-07
-5.69728e-07
-6.31734e-07
-4.63718e-07
-5.43437e-07
-3.67833e-07
-4.55056e-07
-2.82494e-07
-3.68175e-07
-2.07879e-07
-2.84243e-07
-1.43941e-07
-2.04539e-07
-9.0428e-08
-1.30152e-07
-4.69068e-08
-6.19721e-08
-1.27923e-08
-6.97879e-10
1.26289e-08
5.31401e-08
3.01764e-08
9.91478e-08
4.07564e-08
1.37024e-07
4.53452e-08
1.66507e-07
4.49769e-08
1.87319e-07
4.07352e-08
1.99105e-07
3.3748e-08
2.01375e-07
2.51856e-08
1.93455e-07
1.6261e-08
1.74455e-07
8.22761e-09
1.43249e-07
2.37348e-09
9.8488e-08
3.85582e-08
-3.26425e-06
-7.51003e-07
-3.20813e-06
-8.32866e-07
-3.14397e-06
-9.11336e-07
-3.0715e-06
-9.85606e-07
-2.99047e-06
-1.05481e-06
-2.90071e-06
-1.11801e-06
-2.80215e-06
-1.17425e-06
-2.69482e-06
-1.22253e-06
-2.5789e-06
-1.26187e-06
-2.45473e-06
-1.29132e-06
-2.32286e-06
-1.31002e-06
-2.18405e-06
-1.31721e-06
-2.03927e-06
-1.31233e-06
-1.88972e-06
-1.295e-06
-1.73679e-06
-1.26514e-06
-1.58206e-06
-1.22293e-06
-1.42723e-06
-1.1689e-06
-1.27409e-06
-1.10389e-06
-1.12444e-06
-1.02904e-06
-9.80021e-07
-9.45805e-07
-8.42447e-07
-8.55855e-07
-7.13152e-07
-7.61029e-07
-5.93331e-07
-6.63257e-07
-4.8391e-07
-5.64477e-07
-3.85524e-07
-4.66561e-07
-2.98521e-07
-3.71246e-07
-2.22975e-07
-2.80086e-07
-1.58708e-07
-1.94419e-07
-1.05326e-07
-1.15354e-07
-6.22514e-08
-4.37729e-08
-2.87522e-08
1.96409e-08
-3.97661e-09
7.43722e-08
1.30237e-08
1.20023e-07
2.3273e-08
1.56258e-07
2.7855e-08
1.82737e-07
2.78999e-08
1.9906e-07
2.45764e-08
2.04698e-07
1.90845e-08
1.98947e-07
1.26486e-08
1.80891e-07
6.50701e-09
1.49391e-07
1.89376e-09
1.03101e-07
4.0452e-08
-3.42903e-06
-7.92326e-07
-3.38037e-06
-8.81529e-07
-3.32395e-06
-9.67752e-07
-3.25937e-06
-1.05019e-06
-3.18621e-06
-1.12796e-06
-3.10412e-06
-1.2001e-06
-3.0128e-06
-1.26556e-06
-2.91206e-06
-1.32327e-06
-2.80184e-06
-1.37209e-06
-2.68223e-06
-1.41092e-06
-2.55356e-06
-1.43869e-06
-2.41635e-06
-1.45442e-06
-2.27139e-06
-1.45728e-06
-2.11975e-06
-1.44664e-06
-1.96275e-06
-1.42214e-06
-1.80195e-06
-1.38373e-06
-1.63913e-06
-1.33172e-06
-1.47623e-06
-1.26679e-06
-1.31527e-06
-1.19e-06
-1.15826e-06
-1.10281e-06
-1.00717e-06
-1.00695e-06
-8.63767e-07
-9.04431e-07
-7.29606e-07
-7.97419e-07
-6.05939e-07
-6.88144e-07
-4.93691e-07
-5.78808e-07
-3.93448e-07
-4.71489e-07
-3.05459e-07
-3.68075e-07
-2.29666e-07
-2.70212e-07
-1.65739e-07
-1.79281e-07
-1.13119e-07
-9.63931e-08
-7.10611e-08
-2.24169e-08
-3.86754e-08
4.19866e-08
-1.49607e-08
9.63086e-08
1.16614e-09
1.40131e-07
1.08476e-08
1.73056e-07
1.52707e-08
1.94637e-07
1.56516e-08
2.04317e-07
1.32255e-08
2.01373e-07
9.2351e-09
1.84882e-07
4.91404e-09
1.53712e-07
1.46289e-09
1.06552e-07
4.19148e-08
-3.5593e-06
-8.26012e-07
-3.5189e-06
-9.2193e-07
-3.47128e-06
-1.01538e-06
-3.41589e-06
-1.10558e-06
-3.35218e-06
-1.19167e-06
-3.27961e-06
-1.27267e-06
-3.19768e-06
-1.3475e-06
-3.10594e-06
-1.415e-06
-3.00408e-06
-1.47396e-06
-2.89191e-06
-1.52309e-06
-2.76945e-06
-1.56115e-06
-2.63696e-06
-1.58691e-06
-2.49498e-06
-1.59927e-06
-2.34432e-06
-1.5973e-06
-2.18615e-06
-1.58031e-06
-2.02194e-06
-1.54795e-06
-1.85344e-06
-1.50021e-06
-1.68268e-06
-1.43755e-06
-1.51185e-06
-1.36083e-06
-1.34324e-06
-1.27142e-06
-1.17914e-06
-1.17105e-06
-1.02171e-06
-1.06186e-06
-8.72922e-07
-9.46208e-07
-7.34433e-07
-8.26634e-07
-6.07547e-07
-7.05694e-07
-4.9317e-07
-5.85865e-07
-3.91809e-07
-4.69435e-07
-3.03589e-07
-3.58432e-07
-2.28293e-07
-2.54577e-07
-1.65411e-07
-1.59275e-07
-1.14199e-07
-7.36285e-08
-7.37333e-08
1.52056e-09
-4.29524e-08
6.55277e-08
-2.0704e-08
1.17882e-07
-5.77158e-09
1.58123e-07
3.09961e-09
1.85766e-07
7.18592e-09
2.00231e-07
7.77005e-09
2.00789e-07
6.12647e-09
1.86525e-07
3.50342e-09
1.56335e-07
1.09704e-09
1.08959e-07
4.30119e-08
-3.65195e-06
-8.51834e-07
-3.62023e-06
-9.5365e-07
-3.58204e-06
-1.05357e-06
-3.53674e-06
-1.15088e-06
-3.48366e-06
-1.24475e-06
-3.42209e-06
-1.33423e-06
-3.35134e-06
-1.41825e-06
-3.27073e-06
-1.49561e-06
-3.17968e-06
-1.56501e-06
-3.0777e-06
-1.62507e-06
-2.9645e-06
-1.67435e-06
-2.83999e-06
-1.71142e-06
-2.70437e-06
-1.73489e-06
-2.55816e-06
-1.74351e-06
-2.40223e-06
-1.73623e-06
-2.23787e-06
-1.71232e-06
-2.06669e-06
-1.67139e-06
-1.89071e-06
-1.61353e-06
-1.7122e-06
-1.53934e-06
-1.53366e-06
-1.44996e-06
-1.35769e-06
-1.34703e-06
-1.18685e-06
-1.2327e-06
-1.02355e-06
-1.1095e-06
-8.69951e-07
-9.80235e-07
-7.27812e-07
-8.47834e-07
-5.98465e-07
-7.15212e-07
-4.82775e-07
-5.85126e-07
-3.81138e-07
-4.6007e-07
-2.93521e-07
-3.42194e-07
-2.19519e-07
-2.33277e-07
-1.58423e-07
-1.34725e-07
-1.09284e-07
-4.76179e-08
-7.09888e-08
2.72324e-08
-4.23045e-08
8.91981e-08
-2.19291e-08
1.37748e-07
-8.52258e-09
1.72359e-07
-7.31948e-10
1.9244e-07
2.79067e-09
1.97267e-07
3.37204e-09
1.85944e-07
2.30051e-09
1.57407e-07
8.03356e-10
1.10456e-07
4.38152e-08
-3.70574e-06
-8.69951e-07
-3.68269e-06
-9.76702e-07
-3.6541e-06
-1.08216e-06
-3.61928e-06
-1.1857e-06
-3.57747e-06
-1.28656e-06
-3.52784e-06
-1.38385e-06
-3.46955e-06
-1.47654e-06
-3.40171e-06
-1.56345e-06
-3.32349e-06
-1.64323e-06
-3.23411e-06
-1.71445e-06
-3.13294e-06
-1.77553e-06
-3.01952e-06
-1.82483e-06
-2.89367e-06
-1.86074e-06
-2.75552e-06
-1.88166e-06
-2.60558e-06
-1.88618e-06
-2.44478e-06
-1.87311e-06
-2.27452e-06
-1.84164e-06
-2.09664e-06
-1.79141e-06
-1.91339e-06
-1.72259e-06
-1.72738e-06
-1.63597e-06
-1.54142e-06
-1.53298e-06
-1.35846e-06
-1.41566e-06
-1.18137e-06
-1.28659e-06
-1.01282e-06
-1.14878e-06
-8.55137e-07
-1.00552e-06
-7.10177e-07
-8.60171e-07
-5.79275e-07
-7.16028e-07
-4.63213e-07
-5.76131e-07
-3.62244e-07
-4.43163e-07
-2.76143e-07
-3.19377e-07
-2.0429e-07
-2.06578e-07
-1.45752e-07
-1.06156e-07
-9.93698e-08
-1.91497e-08
-6.38339e-08
5.36622e-08
-3.77451e-08
1.11659e-07
-1.9662e-08
1.54276e-07
-8.13432e-09
1.80913e-07
-1.72656e-09
1.90859e-07
9.65835e-10
1.83252e-07
1.30247e-09
1.5707e-07
5.80483e-10
1.11178e-07
4.43957e-08
-3.72142e-06
-8.8089e-07
-3.7066e-06
-9.91528e-07
-3.68729e-06
-1.10147e-06
-3.66279e-06
-1.2102e-06
-3.63231e-06
-1.31704e-06
-3.59496e-06
-1.42121e-06
-3.54975e-06
-1.52175e-06
-3.49567e-06
-1.61753e-06
-3.43167e-06
-1.70724e-06
-3.3567e-06
-1.78941e-06
-3.26983e-06
-1.8624e-06
-3.17021e-06
-1.92445e-06
-3.05726e-06
-1.97369e-06
-2.93066e-06
-2.00826e-06
-2.79047e-06
-2.02637e-06
-2.63719e-06
-2.02639e-06
-2.47183e-06
-2.007e-06
-2.29594e-06
-1.96731e-06
-2.11157e-06
-1.90696e-06
-1.92129e-06
-1.82625e-06
-1.72805e-06
-1.72623e-06
-1.53505e-06
-1.60866e-06
-1.34559e-06
-1.47605e-06
-1.16289e-06
-1.33149e-06
-9.89855e-07
-1.17855e-06
-8.28986e-07
-1.02104e-06
-6.82202e-07
-8.62811e-07
-5.50801e-07
-7.07533e-07
-4.35441e-07
-5.58524e-07
-3.36187e-07
-4.1863e-07
-2.52592e-07
-2.90174e-07
-1.83791e-07
-1.74957e-07
-1.28616e-07
-7.43249e-08
-8.56895e-08
1.0736e-08
-5.3512e-08
7.94816e-08
-3.05259e-08
1.3129e-07
-1.51628e-08
1.6555e-07
-5.87363e-09
1.8157e-07
-1.14701e-09
1.78525e-07
4.81163e-10
1.55442e-07
4.19571e-10
1.1124e-07
4.48153e-08
-3.70166e-06
-8.85486e-07
-3.69424e-06
-9.98944e-07
-3.68345e-06
-1.11227e-06
-3.66861e-06
-1.22504e-06
-3.64893e-06
-1.33672e-06
-3.62351e-06
-1.44663e-06
-3.59133e-06
-1.55393e-06
-3.55125e-06
-1.6576e-06
-3.50209e-06
-1.7564e-06
-3.44261e-06
-1.8489e-06
-3.37157e-06
-1.93344e-06
-3.28781e-06
-2.0082e-06
-3.19032e-06
-2.07118e-06
-3.07833e-06
-2.12025e-06
-2.9514e-06
-2.15331e-06
-2.8095e-06
-2.16829e-06
-2.65315e-06
-2.16335e-06
-2.48344e-06
-2.13702e-06
-2.30209e-06
-2.08831e-06
-2.11142e-06
-2.01691e-06
-1.91435e-06
-1.9233e-06
-1.71421e-06
-1.8088e-06
-1.51463e-06
-1.67563e-06
-1.3193e-06
-1.52682e-06
-1.13176e-06
-1.36608e-06
-9.55195e-07
-1.19761e-06
-7.92223e-07
-1.02578e-06
-6.44787e-07
-8.54968e-07
-5.14097e-07
-6.89214e-07
-4.00639e-07
-5.32089e-07
-3.04247e-07
-3.86566e-07
-2.24212e-07
-2.54992e-07
-1.59409e-07
-1.39128e-07
-1.08423e-07
-4.02505e-08
-6.96595e-08
4.07184e-08
-4.14369e-08
1.03068e-07
-2.20491e-08
1.46162e-07
-9.8074e-09
1.69328e-07
-3.0627e-09
1.7178e-07
-2.11843e-10
1.52591e-07
3.05802e-10
1.10722e-07
4.51211e-08
-3.65067e-06
-8.84789e-07
-3.64957e-06
-1.00005e-06
-3.64617e-06
-1.11566e-06
-3.63989e-06
-1.23132e-06
-3.62998e-06
-1.34663e-06
-3.61557e-06
-1.46104e-06
-3.59566e-06
-1.57384e-06
-3.5691e-06
-1.68416e-06
-3.53461e-06
-1.79089e-06
-3.49083e-06
-1.89268e-06
-3.4363e-06
-1.98797e-06
-3.3696e-06
-2.0749e-06
-3.28935e-06
-2.15143e-06
-3.19433e-06
-2.21527e-06
-3.08359e-06
-2.26405e-06
-2.95654e-06
-2.29534e-06
-2.8131e-06
-2.30679e-06
-2.65379e-06
-2.29633e-06
-2.47981e-06
-2.26229e-06
-2.29308e-06
-2.20364e-06
-2.09626e-06
-2.12012e-06
-1.89263e-06
-2.01243e-06
-1.68598e-06
-1.88228e-06
-1.48038e-06
-1.73242e-06
-1.27994e-06
-1.56652e-06
-1.08854e-06
-1.389e-06
-9.09589e-07
-1.20474e-06
-7.4579e-07
-1.01877e-06
-5.99052e-07
-8.35952e-07
-4.70435e-07
-6.60705e-07
-3.60196e-07
-4.96805e-07
-2.67891e-07
-3.47296e-07
-1.92522e-07
-2.14497e-07
-1.32683e-07
-1.00089e-07
-8.6711e-08
-5.25374e-09
-5.27991e-08
6.91558e-08
-2.90901e-08
1.22453e-07
-1.37318e-08
1.5397e-07
-4.90672e-09
1.62955e-07
-8.38041e-10
1.48522e-07
2.20229e-10
1.09664e-07
4.53413e-08
-3.57377e-06
-8.79954e-07
-3.57772e-06
-9.96109e-07
-3.58037e-06
-1.11301e-06
-3.58124e-06
-1.23046e-06
-3.57967e-06
-1.3482e-06
-3.57488e-06
-1.46582e-06
-3.56594e-06
-1.58279e-06
-3.55173e-06
-1.69837e-06
-3.53099e-06
-1.81163e-06
-3.50229e-06
-1.92139e-06
-3.46407e-06
-2.02618e-06
-3.4147e-06
-2.12427e-06
-3.35252e-06
-2.21361e-06
-3.27592e-06
-2.29187e-06
-3.18347e-06
-2.3565e-06
-3.07403e-06
-2.40478e-06
-2.94688e-06
-2.43394e-06
-2.80186e-06
-2.44134e-06
-2.63953e-06
-2.42462e-06
-2.46123e-06
-2.38194e-06
-2.26914e-06
-2.31222e-06
-2.06625e-06
-2.21531e-06
-1.85632e-06
-2.09222e-06
-1.64361e-06
-1.94513e-06
-1.43269e-06
-1.77745e-06
-1.22808e-06
-1.59361e-06
-1.03399e-06
-1.39883e-06
-8.54e-07
-1.19876e-06
-6.90848e-07
-9.99104e-07
-5.46329e-07
-8.05224e-07
-4.21283e-07
-6.21851e-07
-3.15673e-07
-4.52906e-07
-2.28736e-07
-3.01435e-07
-1.59153e-07
-1.69672e-07
-1.05233e-07
-5.91747e-08
-6.50595e-08
2.89827e-08
-3.66194e-08
9.40126e-08
-1.78778e-08
1.35228e-07
-6.82225e-09
1.519e-07
-1.47137e-09
1.43171e-07
1.41261e-10
1.08051e-07
4.54826e-08
-3.47681e-06
-8.7214e-07
-3.48449e-06
-9.88426e-07
-3.49176e-06
-1.10574e-06
-3.49821e-06
-1.22401e-06
-3.50333e-06
-1.34308e-06
-3.50645e-06
-1.4627e-06
-3.50676e-06
-1.58248e-06
-3.50323e-06
-1.70189e-06
-3.49468e-06
-1.82018e-06
-3.47972e-06
-1.93635e-06
-3.45676e-06
-2.04914e-06
-3.42408e-06
-2.15696e-06
-3.37982e-06
-2.25787e-06
-3.3221e-06
-2.3496e-06
-3.24906e-06
-2.42953e-06
-3.15907e-06
-2.49478e-06
-3.05076e-06
-2.54225e-06
-2.9233e-06
-2.56881e-06
-2.77647e-06
-2.57144e-06
-2.61089e-06
-2.54752e-06
-2.42808e-06
-2.49503e-06
-2.23052e-06
-2.41287e-06
-2.02165e-06
-2.30109e-06
-1.80571e-06
-2.16108e-06
-1.5875e-06
-1.99566e-06
-1.3721e-06
-1.80901e-06
-1.16446e-06
-1.60646e-06
-9.69072e-07
-1.39415e-06
-7.89615e-07
-1.17856e-06
-6.28778e-07
-9.66061e-07
-4.88154e-07
-7.62475e-07
-3.68281e-07
-5.72779e-07
-2.68768e-07
-4.00948e-07
-1.88487e-07
-2.49952e-07
-1.25784e-07
-1.21878e-07
-7.86685e-08
-1.81324e-08
-4.49775e-08
6.03216e-08
-2.24831e-08
1.12734e-07
-8.95614e-09
1.38373e-07
-2.1839e-09
1.36399e-07
4.8019e-11
1.05819e-07
4.55306e-08
-3.36561e-06
-8.62417e-07
-3.3758e-06
-9.7824e-07
-3.38626e-06
-1.09528e-06
-3.39673e-06
-1.21354e-06
-3.40681e-06
-1.33299e-06
-3.41599e-06
-1.45352e-06
-3.42359e-06
-1.57488e-06
-3.42875e-06
-1.69673e-06
-3.43041e-06
-1.81852e-06
-3.42729e-06
-1.93948e-06
-3.41787e-06
-2.05856e-06
-3.40043e-06
-2.17439e-06
-3.37305e-06
-2.28525e-06
-3.33365e-06
-2.389e-06
-3.2801e-06
-2.48308e-06
-3.21033e-06
-2.56455e-06
-3.12243e-06
-2.63015e-06
-3.01487e-06
-2.67637e-06
-2.88667e-06
-2.69964e-06
-2.73761e-06
-2.69658e-06
-2.56838e-06
-2.66426e-06
-2.38075e-06
-2.6005e-06
-2.17758e-06
-2.50426e-06
-1.96279e-06
-2.37587e-06
-1.74119e-06
-2.21725e-06
-1.51819e-06
-2.03202e-06
-1.29936e-06
-1.82529e-06
-1.09006e-06
-1.60345e-06
-8.94989e-07
-1.37363e-06
-7.17853e-07
-1.1432e-06
-5.61172e-07
-9.19155e-07
-4.26239e-07
-7.07713e-07
-3.132e-07
-5.13986e-07
-2.21253e-07
-3.419e-07
-1.4887e-07
-1.9426e-07
-9.40445e-08
-7.29582e-08
-5.44855e-08
2.07627e-08
-2.77732e-08
8.60213e-08
-1.1448e-08
1.22048e-07
-3.04525e-09
1.27996e-07
-8.17781e-11
1.02856e-07
4.54488e-08
-3.24558e-06
-8.51702e-07
-3.25717e-06
-9.66647e-07
-3.26955e-06
-1.08289e-06
-3.28257e-06
-1.20053e-06
-3.29596e-06
-1.3196e-06
-3.30936e-06
-1.44011e-06
-3.32227e-06
-1.56198e-06
-3.33399e-06
-1.68501e-06
-3.34365e-06
-1.80886e-06
-3.35012e-06
-1.933e-06
-3.35205e-06
-2.05663e-06
-3.3478e-06
-2.17864e-06
-3.33549e-06
-2.29756e-06
-3.313e-06
-2.41149e-06
-3.27803e-06
-2.51805e-06
-3.2282e-06
-2.61438e-06
-3.16117e-06
-2.69718e-06
-3.0748e-06
-2.76273e-06
-2.96738e-06
-2.80706e-06
-2.83783e-06
-2.82614e-06
-2.68591e-06
-2.81617e-06
-2.51249e-06
-2.77392e-06
-2.31963e-06
-2.69712e-06
-2.11065e-06
-2.58484e-06
-1.89006e-06
-2.43785e-06
-1.6633e-06
-2.25878e-06
-1.43638e-06
-2.05221e-06
-1.21541e-06
-1.82442e-06
-1.00607e-06
-1.58297e-06
-8.13188e-07
-1.33608e-06
-6.40359e-07
-1.09198e-06
-4.89817e-07
-8.58255e-07
-3.62434e-07
-6.41368e-07
-2.5789e-07
-4.46445e-07
-1.7491e-07
-2.77241e-07
-1.11545e-07
-1.36323e-07
-6.54236e-08
-2.5359e-08
-3.39467e-08
5.45444e-08
-1.44208e-08
1.02522e-07
-4.1155e-09
1.17691e-07
-2.62803e-10
9.90029e-08
4.5186e-08
-3.1213e-06
-8.40726e-07
-3.13341e-06
-9.54542e-07
-3.14664e-06
-1.06967e-06
-3.16093e-06
-1.18623e-06
-3.17617e-06
-1.30437e-06
-3.19212e-06
-1.42416e-06
-3.20845e-06
-1.54565e-06
-3.22467e-06
-1.6688e-06
-3.24008e-06
-1.79345e-06
-3.25378e-06
-1.9193e-06
-3.26461e-06
-2.0458e-06
-3.27112e-06
-2.17213e-06
-3.27156e-06
-2.29713e-06
-3.26387e-06
-2.41917e-06
-3.24574e-06
-2.53618e-06
-3.21462e-06
-2.6455e-06
-3.16787e-06
-2.74393e-06
-3.10289e-06
-2.82771e-06
-3.01731e-06
-2.89264e-06
-2.90923e-06
-2.93422e-06
-2.77749e-06
-2.94791e-06
-2.62194e-06
-2.92947e-06
-2.44365e-06
-2.87541e-06
-2.24509e-06
-2.78341e-06
-2.03013e-06
-2.6528e-06
-1.80395e-06
-2.48496e-06
-1.57268e-06
-2.28348e-06
-1.34298e-06
-2.05412e-06
-1.12143e-06
-1.80452e-06
-9.13958e-07
-1.54355e-06
-7.25364e-07
-1.28058e-06
-5.58997e-07
-1.02462e-06
-4.16655e-07
-7.83711e-07
-2.98682e-07
-5.64417e-07
-2.04208e-07
-3.71715e-07
-1.3145e-07
-2.09081e-07
-7.80176e-08
-7.87914e-08
-4.11662e-08
1.76931e-08
-1.79754e-08
7.93308e-08
-5.44399e-09
1.0516e-07
-5.10213e-10
9.40691e-08
4.46758e-08
-2.99645e-06
-8.30015e-07
-3.00839e-06
-9.42598e-07
-3.02163e-06
-1.05643e-06
-3.03619e-06
-1.17167e-06
-3.05206e-06
-1.2885e-06
-3.06914e-06
-1.40708e-06
-3.08725e-06
-1.52754e-06
-3.10608e-06
-1.64997e-06
-3.12515e-06
-1.77438e-06
-3.14378e-06
-1.90067e-06
-3.16105e-06
-2.02853e-06
-3.17574e-06
-2.15744e-06
-3.18631e-06
-2.28655e-06
-3.19089e-06
-2.4146e-06
-3.18724e-06
-2.53983e-06
-3.17282e-06
-2.65992e-06
-3.14485e-06
-2.7719e-06
-3.10041e-06
-2.87216e-06
-3.03662e-06
-2.95643e-06
-2.95088e-06
-3.01995e-06
-2.84116e-06
-3.05763e-06
-2.70625e-06
-3.06438e-06
-2.54614e-06
-3.03552e-06
-2.36223e-06
-2.96732e-06
-2.15748e-06
-2.85755e-06
-1.93644e-06
-2.706e-06
-1.70505e-06
-2.51487e-06
-1.4702e-06
-2.28898e-06
-1.23915e-06
-2.03557e-06
-1.01889e-06
-1.76381e-06
-8.15457e-07
-1.48401e-06
-6.33461e-07
-1.20662e-06
-4.75818e-07
-9.41354e-07
-3.43744e-07
-6.96491e-07
-2.36948e-07
-4.7851e-07
-1.53951e-07
-2.92078e-07
-9.24329e-08
-1.40309e-07
-4.95538e-08
-2.5186e-08
-2.2188e-08
5.19649e-08
-7.06752e-09
9.00392e-08
-8.33684e-10
8.78353e-08
4.38421e-08
-2.87367e-06
-8.19909e-07
-2.885e-06
-9.31271e-07
-2.89766e-06
-1.04377e-06
-2.91174e-06
-1.15759e-06
-2.92731e-06
-1.27293e-06
-2.94438e-06
-1.39e-06
-2.96293e-06
-1.50899e-06
-2.98279e-06
-1.63011e-06
-3.00369e-06
-1.75348e-06
-3.02518e-06
-1.87918e-06
-3.04657e-06
-2.00714e-06
-3.06693e-06
-2.13709e-06
-3.08497e-06
-2.26851e-06
-3.09907e-06
-2.4005e-06
-3.10721e-06
-2.53169e-06
-3.10696e-06
-2.66017e-06
-3.09555e-06
-2.78331e-06
-3.06992e-06
-2.89779e-06
-3.02687e-06
-2.99949e-06
-2.96325e-06
-3.08357e-06
-2.87626e-06
-3.14463e-06
-2.76373e-06
-3.1769e-06
-2.62452e-06
-3.17473e-06
-2.45883e-06
-3.13302e-06
-2.26849e-06
-3.04789e-06
-2.05712e-06
-2.91736e-06
-1.83007e-06
-2.74192e-06
-1.59411e-06
-2.52494e-06
-1.3569e-06
-2.27277e-06
-1.1263e-06
-1.99442e-06
-9.09539e-07
-1.70077e-06
-7.12584e-07
-1.40357e-06
-5.39644e-07
-1.11429e-06
-3.93015e-07
-8.4312e-07
-2.73189e-07
-5.98336e-07
-1.79152e-07
-3.86115e-07
-1.08775e-07
-2.10686e-07
-5.91931e-08
-7.47683e-08
-2.71119e-08
1.98837e-08
-9.01149e-09
7.19388e-08
-1.23972e-09
8.00635e-08
4.26024e-08
-2.7547e-06
-8.10582e-07
-2.76515e-06
-9.20821e-07
-2.77686e-06
-1.03206e-06
-2.78997e-06
-1.14449e-06
-2.8046e-06
-1.2583e-06
-2.82087e-06
-1.37373e-06
-2.83883e-06
-1.49103e-06
-2.85848e-06
-1.61045e-06
-2.87973e-06
-1.73224e-06
-2.90232e-06
-1.85659e-06
-2.92582e-06
-1.98364e-06
-2.94955e-06
-2.11335e-06
-2.97255e-06
-2.24551e-06
-2.99346e-06
-2.37958e-06
-3.01056e-06
-2.51459e-06
-3.02166e-06
-2.64906e-06
-3.02414e-06
-2.78084e-06
-3.01495e-06
-2.90697e-06
-2.99076e-06
-3.02368e-06
-2.94806e-06
-3.12627e-06
-2.88345e-06
-3.20923e-06
-2.79394e-06
-3.26642e-06
-2.67731e-06
-3.29136e-06
-2.53253e-06
-3.27779e-06
-2.36017e-06
-3.22025e-06
-2.16265e-06
-3.11488e-06
-1.94437e-06
-2.96019e-06
-1.71162e-06
-2.7577e-06
-1.47206e-06
-2.51233e-06
-1.23415e-06
-2.23233e-06
-1.00617e-06
-1.92874e-06
-7.95455e-07
-1.61429e-06
-6.07625e-07
-1.30212e-06
-4.46267e-07
-1.00448e-06
-3.12869e-07
-7.31734e-07