/*--------------------------------*- C++ -*----------------------------------*\
  =========                 |
  \\      /  F ield         | OpenFOAM: The Open Source CFD Toolbox
   \\    /   O peration     | Website:  https://openfoam.org
    \\  /    A nd           | Version:  9
     \\/     M anipulation  |
\*---------------------------------------------------------------------------*/
FoamFile
{
    format      ascii;
    class       volVectorField;
    location    "3";
    object      U;
}
// * * * * * * * * * * * * * * * * * * * * * * * * * * * * * * * * * * * * * //

dimensions      [0 1 -1 0 0 0 0];

internalField   nonuniform List<vector> 
1240
(
(-0.0111719 -0.000448317 0)
(-0.00964675 -0.000468917 0)
(-0.00807332 -0.000481244 0)
(-0.00647624 -0.000484873 0)
(-0.00488086 -0.000479644 0)
(-0.00331259 -0.000465684 0)
(-0.00179616 -0.000443413 0)
(-0.000354856 -0.000413553 0)
(0.000989954 -0.000377113 0)
(0.00221973 -0.000335117 0)
(0.00331933 -0.000289014 0)
(0.0042771 -0.000240221 0)
(0.00508535 -0.000190223 0)
(0.00574044 -0.000140431 0)
(0.00624257 -9.21659e-05 0)
(0.00659563 -4.66047e-05 0)
(0.00680679 -4.70874e-06 0)
(0.00688598 3.27901e-05 0)
(0.00684534 6.53988e-05 0)
(0.00669853 9.28721e-05 0)
(0.00646015 0.000115187 0)
(0.00614511 0.000132516 0)
(0.00576804 0.000145201 0)
(0.00534289 0.000153717 0)
(0.00488245 0.000158624 0)
(0.0043982 0.000160527 0)
(0.00390007 0.000160028 0)
(0.00339657 0.000157666 0)
(0.00289497 0.000153852 0)
(0.00240172 0.00014878 0)
(0.00192314 0.000142318 0)
(0.00146644 0.000133864 0)
(0.00104088 0.000122186 0)
(0.000659399 0.000105298 0)
(0.000339629 8.06211e-05 0)
(0.000103132 4.59016e-05 0)
(-2.56997e-05 2.67444e-06 0)
(-2.99879e-05 -3.02347e-05 0)
(-0.0317639 -0.00283289 0)
(-0.0279058 -0.00294495 0)
(-0.0239378 -0.00301261 0)
(-0.0199142 -0.00303392 0)
(-0.0158906 -0.00300811 0)
(-0.0119233 -0.00293568 0)
(-0.00806702 -0.00281847 0)
(-0.0043743 -0.00265961 0)
(-0.000893769 -0.00246351 0)
(0.00233091 -0.00223542 0)
(0.00526248 -0.00198162 0)
(0.00787081 -0.00170902 0)
(0.0101337 -0.00142504 0)
(0.0120371 -0.00113686 0)
(0.0135757 -0.000851501 0)
(0.0147519 -0.000575522 0)
(0.0155763 -0.000314651 0)
(0.016066 -7.36525e-05 0)
(0.0162441 0.000143791 0)
(0.0161386 0.000335158 0)
(0.0157805 0.000499122 0)
(0.015203 0.000635396 0)
(0.0144401 0.000744699 0)
(0.0135253 0.00082857 0)
(0.0124909 0.000889169 0)
(0.0113669 0.000929037 0)
(0.0101807 0.000950818 0)
(0.00895707 0.000956943 0)
(0.00771857 0.000949254 0)
(0.00648615 0.000928588 0)
(0.00528057 0.000894317 0)
(0.00412407 0.00084389 0)
(0.00304238 0.00077249 0)
(0.00206671 0.000673161 0)
(0.00123416 0.00053818 0)
(0.000584567 0.000362871 0)
(0.00015947 0.000155745 0)
(4.21447e-06 -2.54624e-05 0)
(-0.0513432 -0.00760057 0)
(-0.0457395 -0.00787828 0)
(-0.0399839 -0.00804811 0)
(-0.0341463 -0.00810565 0)
(-0.0282984 -0.00804905 0)
(-0.0225129 -0.00787915 0)
(-0.0168615 -0.00759965 0)
(-0.0114136 -0.00721708 0)
(-0.00623452 -0.00674075 0)
(-0.00138433 -0.00618242 0)
(0.00308403 -0.00555588 0)
(0.00712549 -0.00487635 0)
(0.0107046 -0.00416119 0)
(0.0137961 -0.00342715 0)
(0.0163848 -0.00269115 0)
(0.0184665 -0.00196948 0)
(0.0200472 -0.00127687 0)
(0.0211427 -0.00062615 0)
(0.0217774 -2.78835e-05 0)
(0.0219832 0.000509939 0)
(0.0217982 0.000982094 0)
(0.0212646 0.00138591 0)
(0.0204274 0.00172126 0)
(0.0193327 0.00199018 0)
(0.0180262 0.00219645 0)
(0.0165522 0.00234503 0)
(0.0149527 0.00244139 0)
(0.0132668 0.00249071 0)
(0.0115314 0.00249701 0)
(0.00978147 0.00246214 0)
(0.00805158 0.00238489 0)
(0.00637762 0.00226016 0)
(0.00479878 0.00207865 0)
(0.00335931 0.00182779 0)
(0.00210827 0.00149507 0)
(0.00109529 0.00107521 0)
(0.00037783 0.000585096 0)
(5.0646e-05 0.000108817 0)
(-0.0707456 -0.0138547 0)
(-0.0638598 -0.0143396 0)
(-0.0567853 -0.0146431 0)
(-0.0495987 -0.0147577 0)
(-0.0423788 -0.0146801 0)
(-0.0352062 -0.0144108 0)
(-0.0281612 -0.013955 0)
(-0.0213227 -0.013322 0)
(-0.0147663 -0.0125256 0)
(-0.00856295 -0.0115839 0)
(-0.00277675 -0.0105183 0)
(0.00253486 -0.00935327 0)
(0.00732445 -0.00811556 0)
(0.0115557 -0.00683318 0)
(0.015202 -0.00553419 0)
(0.0182489 -0.00424662 0)
(0.020694 -0.00299613 0)
(0.0225458 -0.00180596 0)
(0.0238241 -0.000696053 0)
(0.0245579 0.000317602 0)
(0.0247849 0.00122318 0)
(0.0245494 0.00201347 0)
(0.0239007 0.00268541 0)
(0.0228915 0.00323974 0)
(0.0215758 0.00368051 0)
(0.0200078 0.00401412 0)
(0.0182404 0.00424822 0)
(0.0163249 0.00439045 0)
(0.0143103 0.0044469 0)
(0.0122442 0.00442064 0)
(0.0101735 0.00431016 0)
(0.008146 0.00410834 0)
(0.00621209 0.00380217 0)
(0.00442643 0.00337426 0)
(0.00284767 0.00280742 0)
(0.00153488 0.00209356 0)
(0.000565507 0.00124983 0)
(8.93849e-05 0.000359084 0)
(-0.0907235 -0.0211418 0)
(-0.0829045 -0.0218713 0)
(-0.0748552 -0.0223432 0)
(-0.0666536 -0.0225468 0)
(-0.0583809 -0.0224761 0)
(-0.0501208 -0.0221306 0)
(-0.041958 -0.0215158 0)
(-0.0339771 -0.0206428 0)
(-0.0262605 -0.019529 0)
(-0.0188869 -0.0181972 0)
(-0.0119301 -0.0166758 0)
(-0.00545698 -0.0149978 0)
(0.00047423 -0.0131989 0)
(0.00581557 -0.011318 0)
(0.0105289 -0.00939442 0)
(0.0145883 -0.00746884 0)
(0.0179811 -0.0055786 0)
(0.0207057 -0.00375877 0)
(0.0227731 -0.00204039 0)
(0.0242055 -0.000449535 0)
(0.0250357 0.000993319 0)
(0.025305 0.00227388 0)
(0.0250622 0.00338389 0)
(0.0243615 0.00432058 0)
(0.0232609 0.00508622 0)
(0.0218205 0.0056869 0)
(0.0201008 0.00613111 0)
(0.0181621 0.00642789 0)
(0.0160635 0.00658489 0)
(0.0138631 0.00660615 0)
(0.0116186 0.00649019 0)
(0.00938811 0.0062285 0)
(0.0072318 0.00580516 0)
(0.00521374 0.00519845 0)
(0.003402 0.00438561 0)
(0.00186623 0.00335152 0)
(0.000704747 0.00210292 0)
(0.000116704 0.000699143 0)
(-0.111808 -0.0291903 0)
(-0.103307 -0.0302096 0)
(-0.0945245 -0.0308961 0)
(-0.0855361 -0.0312345 0)
(-0.0764236 -0.0312155 0)
(-0.0672718 -0.0308362 0)
(-0.0581681 -0.030101 0)
(-0.0492009 -0.0290217 0)
(-0.0404582 -0.0276176 0)
(-0.0320255 -0.0259154 0)
(-0.0239848 -0.023949 0)
(-0.016412 -0.0217584 0)
(-0.00937562 -0.0193883 0)
(-0.00293431 -0.0168876 0)
(0.00286153 -0.0143075 0)
(0.00797449 -0.0116994 0)
(0.012381 -0.0091139 0)
(0.0160681 -0.0065987 0)
(0.0190365 -0.00419709 0)
(0.0212993 -0.00194667 0)
(0.0228814 0.000121736 0)
(0.0238187 0.00198453 0)
(0.0241557 0.00362608 0)
(0.023945 0.00503787 0)
(0.0232451 0.00621817 0)
(0.0221184 0.00717076 0)
(0.0206302 0.00790313 0)
(0.0188468 0.00842438 0)
(0.0168351 0.00874266 0)
(0.0146617 0.0088625 0)
(0.0123933 0.00878236 0)
(0.0100971 0.00849257 0)
(0.00784225 0.00797466 0)
(0.00570182 0.00720244 0)
(0.00375343 0.00614602 0)
(0.00207793 0.00477902 0)
(0.000792327 0.00308958 0)
(0.000132978 0.00110073 0)
(-0.134238 -0.03779 0)
(-0.125235 -0.0391555 0)
(-0.115886 -0.0401152 0)
(-0.106265 -0.0406485 0)
(-0.0964536 -0.0407412 0)
(-0.0865359 -0.0403868 0)
(-0.0766014 -0.0395871 0)
(-0.0667421 -0.0383529 0)
(-0.057051 -0.0367042 0)
(-0.0476205 -0.03467 0)
(-0.0385404 -0.0322885 0)
(-0.029896 -0.0296056 0)
(-0.0217658 -0.0266741 0)
(-0.0142203 -0.0235522 0)
(-0.00732029 -0.0203026 0)
(-0.00111496 -0.0169875 0)
(0.00435949 -0.0136708 0)
(0.00907924 -0.0104132 0)
(0.0130341 -0.00727104 0)
(0.0162273 -0.0042946 0)
(0.0186748 -0.00152656 0)
(0.0204052 0.000998785 0)
(0.0214573 0.003256 0)
(0.0218794 0.00522915 0)
(0.0217283 0.00691041 0)
(0.0210666 0.00829909 0)
(0.0199613 0.0093998 0)
(0.0184829 0.01022 0)
(0.0167035 0.0107671 0)
(0.0146964 0.0110451 0)
(0.0125357 0.011052 0)
(0.0102966 0.0107768 0)
(0.00805654 0.0101983 0)
(0.00589718 0.00928535 0)
(0.00390548 0.00799937 0)
(0.00217296 0.00629975 0)
(0.00083126 0.00415134 0)
(0.000139653 0.00153572 0)
(-0.157962 -0.0467841 0)
(-0.148592 -0.0485627 0)
(-0.138803 -0.0498663 0)
(-0.128665 -0.0506674 0)
(-0.118257 -0.0509454 0)
(-0.107662 -0.0506887 0)
(-0.0969726 -0.0498946 0)
(-0.086283 -0.0485714 0)
(-0.0756917 -0.046738 0)
(-0.0652979 -0.0444244 0)
(-0.0551997 -0.0416715 0)
(-0.0454922 -0.0385303 0)
(-0.0362649 -0.0350606 0)
(-0.0275998 -0.0313295 0)
(-0.0195695 -0.0274097 0)
(-0.0122354 -0.023376 0)
(-0.00564599 -0.0193048 0)
(0.000163411 -0.0152703 0)
(0.00517164 -0.0113426 0)
(0.00937175 -0.0075855 0)
(0.0127707 -0.00405473 0)
(0.0153884 -0.000796672 0)
(0.0172577 0.00215222 0)
(0.0184222 0.00476643 0)
(0.0189348 0.00703023 0)
(0.0188566 0.00893656 0)
(0.0182552 0.0104853 0)
(0.0172028 0.0116805 0)
(0.0157754 0.0125273 0)
(0.0140511 0.0130284 0)
(0.0121103 0.0131801 0)
(0.010035 0.0129696 0)
(0.00791007 0.0123725 0)
(0.00582521 0.0113519 0)
(0.00387591 0.00985999 0)
(0.00216291 0.00784029 0)
(0.000827623 0.00523304 0)
(0.000138429 0.00197907 0)
(-0.200206 -0.0500656 0)
(-0.191754 -0.0532822 0)
(-0.182697 -0.0560473 0)
(-0.173082 -0.0583146 0)
(-0.162965 -0.0600424 0)
(-0.152414 -0.0611949 0)
(-0.141502 -0.0617437 0)
(-0.130312 -0.0616698 0)
(-0.118936 -0.0609646 0)
(-0.107472 -0.0596315 0)
(-0.0960218 -0.0576864 0)
(-0.0846924 -0.0551586 0)
(-0.0735908 -0.0520902 0)
(-0.0628224 -0.0485359 0)
(-0.0524888 -0.0445615 0)
(-0.0426845 -0.0402425 0)
(-0.0334956 -0.0356615 0)
(-0.0249964 -0.0309057 0)
(-0.0172485 -0.0260645 0)
(-0.0102997 -0.0212261 0)
(-0.0041824 -0.0164751 0)
(0.0010859 -0.0118899 0)
(0.00550284 -0.00754046 0)
(0.0090805 -0.00348645 0)
(0.0118447 0.000223713 0)
(0.0138338 0.00355304 0)
(0.015097 0.00647633 0)
(0.015693 0.00897849 0)
(0.0156886 0.0110529 0)
(0.0151571 0.0126988 0)
(0.0141767 0.0139174 0)
(0.0128296 0.0147086 0)
(0.0112008 0.0150664 0)
(0.00937847 0.0149751 0)
(0.00745397 0.0144066 0)
(0.00552406 0.013318 0)
(0.00369156 0.0116516 0)
(0.00206443 0.00933546 0)
(0.000789025 0.00628664 0)
(0.000131039 0.00240981 0)
(-0.240243 -0.049211 0)
(-0.233247 -0.0538943 0)
(-0.225525 -0.0582021 0)
(-0.217099 -0.0620762 0)
(-0.208 -0.0654592 0)
(-0.198266 -0.0682959 0)
(-0.187945 -0.0705352 0)
(-0.177096 -0.0721315 0)
(-0.165788 -0.0730469 0)
(-0.154099 -0.0732531 0)
(-0.142121 -0.072733 0)
(-0.129951 -0.071483 0)
(-0.117696 -0.0695137 0)
(-0.10547 -0.066851 0)
(-0.0933873 -0.0635365 0)
(-0.0815657 -0.0596267 0)
(-0.0701197 -0.0551924 0)
(-0.0591582 -0.0503163 0)
(-0.0487821 -0.0450912 0)
(-0.0390812 -0.0396165 0)
(-0.0301319 -0.0339951 0)
(-0.0219957 -0.0283304 0)
(-0.0147177 -0.0227226 0)
(-0.00832684 -0.0172658 0)
(-0.00283506 -0.0120452 0)
(0.00176152 -0.00713535 0)
(0.00548197 -0.00259839 0)
(0.00835944 0.00151641 0)
(0.0104393 0.00517255 0)
(0.0117779 0.00834568 0)
(0.0124413 0.0110213 0)
(0.0125029 0.013192 0)
(0.0120428 0.0148541 0)
(0.0111462 0.0160032 0)
(0.00990223 0.0166298 0)
(0.00840412 0.0167148 0)
(0.006749 0.0162256 0)
(0.0050396 0.0151131 0)
(0.00338454 0.0133102 0)
(0.00189691 0.0107311 0)
(0.000723846 0.00727304 0)
(0.000119206 0.00281155 0)
(-0.264833 -0.0557362 0)
(-0.258093 -0.0611731 0)
(-0.250588 -0.0662206 0)
(-0.242327 -0.0708135 0)
(-0.23333 -0.0748862 0)
(-0.223623 -0.0783742 0)
(-0.213244 -0.081216 0)
(-0.20224 -0.0833551 0)
(-0.190671 -0.084742 0)
(-0.178611 -0.0853371 0)
(-0.166144 -0.0851123 0)
(-0.153368 -0.0840539 0)
(-0.140391 -0.0821644 0)
(-0.127331 -0.0794634 0)
(-0.114312 -0.0759891 0)
(-0.101462 -0.0717976 0)
(-0.0889103 -0.0669626 0)
(-0.0767817 -0.0615731 0)
(-0.0651947 -0.0557312 0)
(-0.0542569 -0.0495486 0)
(-0.0440623 -0.0431428 0)
(-0.0346889 -0.0366333 0)
(-0.0261972 -0.0301374 0)
(-0.0186289 -0.0237667 0)
(-0.0120071 -0.0176236 0)
(-0.00633688 -0.011799 0)
(-0.00160599 -0.00637042 0)
(0.00221334 -0.00140104 0)
(0.00516322 0.00306019 0)
(0.00729816 0.0069781 0)
(0.00868318 0.0103289 0)
(0.00939247 0.0130976 0)
(0.00950773 0.015274 0)
(0.00911682 0.0168487 0)
(0.00831276 0.0178075 0)
(0.00719309 0.0181271 0)
(0.00585994 0.0177701 0)
(0.00442095 0.0166816 0)
(0.00298914 0.0147858 0)
(0.0016808 0.0119858 0)
(0.00064066 0.00816303 0)
(0.000104607 0.00317257 0)
(-0.288267 -0.0619327 0)
(-0.281911 -0.0681522 0)
(-0.274762 -0.0739802 0)
(-0.266818 -0.079345 0)
(-0.258085 -0.0841732 0)
(-0.248575 -0.088391 0)
(-0.238312 -0.0919261 0)
(-0.227329 -0.09471 0)
(-0.215673 -0.0966801 0)
(-0.203408 -0.0977832 0)
(-0.190608 -0.0979774 0)
(-0.177367 -0.097236 0)
(-0.16379 -0.0955494 0)
(-0.149998 -0.0929275 0)
(-0.136121 -0.0894012 0)
(-0.122298 -0.085023 0)
(-0.108671 -0.0798665 0)
(-0.0953835 -0.074025 0)
(-0.0825736 -0.0676088 0)
(-0.0703699 -0.0607414 0)
(-0.0588877 -0.0535555 0)
(-0.0482256 -0.0461881 0)
(-0.0384626 -0.0387756 0)
(-0.0296568 -0.0314493 0)
(-0.0218452 -0.0243313 0)
(-0.0150432 -0.0175313 0)
(-0.00924676 -0.0111443 0)
(-0.00443349 -0.00524938 0)
(-0.00056466 9.061e-05 0)
(0.00241267 0.00482801 0)
(0.0045635 0.00892857 0)
(0.00596311 0.0123684 0)
(0.0066953 0.0151302 0)
(0.00685094 0.0171981 0)
(0.00652672 0.018553 0)
(0.00582439 0.0191668 0)
(0.00485045 0.0189971 0)
(0.00371662 0.0179833 0)
(0.00253912 0.0160431 0)
(0.00143604 0.0130707 0)
(0.000547707 0.00893742 0)
(8.88046e-05 0.00348577 0)
(-0.309878 -0.0676798 0)
(-0.304032 -0.074695 0)
(-0.297385 -0.0813291 0)
(-0.28992 -0.0875054 0)
(-0.281628 -0.0931435 0)
(-0.272505 -0.098161 0)
(-0.262558 -0.102475 0)
(-0.251803 -0.106004 0)
(-0.240271 -0.108672 0)
(-0.228008 -0.110409 0)
(-0.215077 -0.111158 0)
(-0.20156 -0.110875 0)
(-0.187557 -0.109534 0)
(-0.173183 -0.107132 0)
(-0.158574 -0.103687 0)
(-0.143874 -0.0992438 0)
(-0.129241 -0.0938714 0)
(-0.114834 -0.0876641 0)
(-0.100812 -0.0807379 0)
(-0.0873295 -0.0732271 0)
(-0.0745259 -0.0652796 0)
(-0.0625254 -0.057051 0)
(-0.0514306 -0.0486989 0)
(-0.0413211 -0.0403772 0)
(-0.0322512 -0.0322309 0)
(-0.0242509 -0.0243918 0)
(-0.0173261 -0.0169753 0)
(-0.0114615 -0.0100792 0)
(-0.00662196 -0.00378262 0)
(-0.00275612 0.00185269 0)
(0.000201609 0.00678058 0)
(0.00232842 0.0109673 0)
(0.00371107 0.0143871 0)
(0.00444404 0.0170176 0)
(0.00462814 0.0188339 0)
(0.00436944 0.0198029 0)
(0.00377865 0.0198776 0)
(0.00297108 0.0189926 0)
(0.00206545 0.0170605 0)
(0.00118082 0.0139698 0)
(0.000452404 0.00958648 0)
(7.31731e-05 0.00374831 0)
(-0.329026 -0.0728615 0)
(-0.323809 -0.0806657 0)
(-0.317802 -0.0881123 0)
(-0.310977 -0.095121 0)
(-0.303306 -0.101607 0)
(-0.294771 -0.107479 0)
(-0.285356 -0.112645 0)
(-0.27506 -0.117012 0)
(-0.263892 -0.120488 0)
(-0.251877 -0.122988 0)
(-0.239061 -0.124434 0)
(-0.225507 -0.124764 0)
(-0.211302 -0.123931 0)
(-0.196554 -0.121913 0)
(-0.181395 -0.118711 0)
(-0.165972 -0.114354 0)
(-0.150451 -0.108904 0)
(-0.135008 -0.102448 0)
(-0.119825 -0.0951068 0)
(-0.105079 -0.0870208 0)
(-0.0909401 -0.0783523 0)
(-0.0775629 -0.0692759 0)
(-0.0650795 -0.0599726 0)
(-0.0535967 -0.0506217 0)
(-0.0431929 -0.041395 0)
(-0.0339171 -0.0324505 0)
(-0.02579 -0.0239285 0)
(-0.0188057 -0.0159491 0)
(-0.0129349 -0.00861098 0)
(-0.00812809 -0.00199249 0)
(-0.00431898 0.00384644 0)
(-0.00142776 0.00886077 0)
(0.000636227 0.0130158 0)
(0.00197209 0.0162818 0)
(0.00268558 0.0186279 0)
(0.00288765 0.0200161 0)
(0.00269351 0.0203953 0)
(0.00222207 0.0196965 0)
(0.00159441 0.0178287 0)
(0.000930531 0.014678 0)
(0.000360954 0.0101088 0)
(5.88358e-05 0.00396106 0)
(-0.345141 -0.0773763 0)
(-0.340651 -0.0859406 0)
(-0.335407 -0.0941831 0)
(-0.329367 -0.102023 0)
(-0.32249 -0.109371 0)
(-0.314736 -0.116132 0)
(-0.306072 -0.122206 0)
(-0.296473 -0.127488 0)
(-0.285925 -0.131872 0)
(-0.274429 -0.135256 0)
(-0.262006 -0.137542 0)
(-0.248697 -0.138645 0)
(-0.234567 -0.138496 0)
(-0.219709 -0.137046 0)
(-0.204243 -0.134274 0)
(-0.188312 -0.130189 0)
(-0.172086 -0.124834 0)
(-0.155752 -0.118287 0)
(-0.139508 -0.110663 0)
(-0.12356 -0.102106 0)
(-0.108108 -0.0927888 0)
(-0.0933406 -0.0829045 0)
(-0.0794264 -0.0726579 0)
(-0.0665066 -0.0622569 0)
(-0.0546908 -0.0519039 0)
(-0.0440548 -0.0417886 0)
(-0.0346398 -0.0320813 0)
(-0.0264548 -0.0229296 0)
(-0.0194792 -0.0144563 0)
(-0.0136677 -0.00675997 0)
(-0.008954 8.28574e-05 0)
(-0.00525538 0.00601404 0)
(-0.0024765 0.0109887 0)
(-0.000512511 0.0149692 0)
(0.000748423 0.0179188 0)
(0.00142316 0.019795 0)
(0.00163215 0.0205433 0)
(0.00149852 0.0200919 0)
(0.00114626 0.0183484 0)
(0.000696973 0.0151989 0)
(0.000278064 0.0105099 0)
(4.6622e-05 0.00412784 0)
(-0.357771 -0.0811471 0)
(-0.354078 -0.0904199 0)
(-0.349689 -0.0994176 0)
(-0.344551 -0.108061 0)
(-0.33861 -0.116261 0)
(-0.331809 -0.123919 0)
(-0.324096 -0.13093 0)
(-0.315422 -0.137181 0)
(-0.305749 -0.142553 0)
(-0.29505 -0.146926 0)
(-0.283317 -0.150185 0)
(-0.270561 -0.152219 0)
(-0.256822 -0.152933 0)
(-0.242167 -0.152249 0)
(-0.226694 -0.150116 0)
(-0.210537 -0.146516 0)
(-0.193855 -0.141467 0)
(-0.176841 -0.135027 0)
(-0.159706 -0.127296 0)
(-0.142678 -0.118417 0)
(-0.125986 -0.108566 0)
(-0.109857 -0.0979511 0)
(-0.0945002 -0.0867998 0)
(-0.0800982 -0.0753505 0)
(-0.0668006 -0.0638402 0)
(-0.0547186 -0.0524954 0)
(-0.0439229 -0.041523 0)
(-0.0344441 -0.0311048 0)
(-0.0262767 -0.0213939 0)
(-0.0193829 -0.0125143 0)
(-0.0136988 -0.00456316 0)
(-0.00913953 0.00238537 0)
(-0.00560486 0.00827446 0)
(-0.00298318 0.0130579 0)
(-0.00115534 0.0166928 0)
(2.77053e-06 0.0191326 0)
(0.000618149 0.0203202 0)
(0.000819319 0.0201826 0)
(0.000734374 0.0186276 0)
(0.000487945 0.015543 0)
(0.000206794 0.0108 0)
(3.70483e-05 0.00425452 0)
(-0.366622 -0.0841307 0)
(-0.363758 -0.0940391 0)
(-0.360277 -0.103727 0)
(-0.356118 -0.113121 0)
(-0.351215 -0.122133 0)
(-0.3455 -0.130667 0)
(-0.338901 -0.138615 0)
(-0.331349 -0.145857 0)
(-0.322779 -0.152267 0)
(-0.313138 -0.157711 0)
(-0.302385 -0.162053 0)
(-0.290499 -0.16516 0)
(-0.277485 -0.166909 0)
(-0.263377 -0.167189 0)
(-0.248245 -0.165917 0)
(-0.232197 -0.163038 0)
(-0.215376 -0.158536 0)
(-0.197966 -0.15244 0)
(-0.180183 -0.144828 0)
(-0.162268 -0.135825 0)
(-0.144478 -0.125606 0)
(-0.127075 -0.114385 0)
(-0.11031 -0.102411 0)
(-0.0944159 -0.0899501 0)
(-0.079589 -0.077277 0)
(-0.0659861 -0.0646602 0)
(-0.0537175 -0.0523502 0)
(-0.0428456 -0.0405707 0)
(-0.0333876 -0.0295132 0)
(-0.02532 -0.0193343 0)
(-0.0185854 -0.0101576 0)
(-0.0130992 -0.00207766 0)
(-0.00875678 0.00483395 0)
(-0.00543957 0.0105208 0)
(-0.00301984 0.0149335 0)
(-0.00136476 0.0180218 0)
(-0.000339104 0.019727 0)
(0.000192782 0.0199759 0)
(0.000364931 0.018678 0)
(0.000307091 0.0157244 0)
(0.000148525 0.0109922 0)
(3.0322e-05 0.00434816 0)
(-0.371592 -0.0863224 0)
(-0.369547 -0.0967762 0)
(-0.36698 -0.10707 0)
(-0.363827 -0.117136 0)
(-0.360015 -0.126894 0)
(-0.355464 -0.136251 0)
(-0.350089 -0.145101 0)
(-0.343803 -0.153323 0)
(-0.33652 -0.160785 0)
(-0.328158 -0.167343 0)
(-0.318644 -0.172847 0)
(-0.307924 -0.177142 0)
(-0.295962 -0.180076 0)
(-0.282755 -0.181508 0)
(-0.268334 -0.181314 0)
(-0.25277 -0.179401 0)
(-0.236179 -0.175709 0)
(-0.218723 -0.170228 0)
(-0.200608 -0.163 0)
(-0.182078 -0.154125 0)
(-0.163408 -0.143759 0)
(-0.14489 -0.132116 0)
(-0.126818 -0.119454 0)
(-0.109473 -0.106066 0)
(-0.0931081 -0.0922639 0)
(-0.0779349 -0.0783608 0)
(-0.0641143 -0.0646578 0)
(-0.0517522 -0.0514295 0)
(-0.0408994 -0.0389149 0)
(-0.0315558 -0.0273127 0)
(-0.023677 -0.0167809 0)
(-0.0171833 -0.00744083 0)
(-0.011968 0.000616591 0)
(-0.00790598 0.00732211 0)
(-0.0048604 0.0126187 0)
(-0.00268822 0.0164522 0)
(-0.00124409 0.0187629 0)
(-0.000383086 0.0194789 0)
(3.71314e-05 0.0185122 0)
(0.000154053 0.0157582 0)
(0.000103051 0.0111004 0)
(2.63641e-05 0.00441606 0)
(-0.372776 -0.0877576 0)
(-0.371501 -0.0986544 0)
(-0.36981 -0.109453 0)
(-0.367638 -0.120093 0)
(-0.364909 -0.130506 0)
(-0.36154 -0.140604 0)
(-0.357436 -0.150288 0)
(-0.352497 -0.159441 0)
(-0.346619 -0.16793 0)
(-0.339695 -0.175606 0)
(-0.331625 -0.182308 0)
(-0.322318 -0.187864 0)
(-0.311702 -0.192099 0)
(-0.299729 -0.19484 0)
(-0.286383 -0.195924 0)
(-0.271693 -0.195213 0)
(-0.255731 -0.1926 0)
(-0.238625 -0.188026 0)
(-0.220557 -0.181483 0)
(-0.201758 -0.173031 0)
(-0.182507 -0.162797 0)
(-0.163114 -0.150976 0)
(-0.14391 -0.137826 0)
(-0.125225 -0.123656 0)
(-0.10737 -0.10881 0)
(-0.0906192 -0.0936484 0)
(-0.0751953 -0.0785272 0)
(-0.0612605 -0.0637803 0)
(-0.0489124 -0.0497048 0)
(-0.0381857 -0.0365526 0)
(-0.0290591 -0.0245268 0)
(-0.0214643 -0.0137841 0)
(-0.0152971 -0.00444146 0)
(-0.0104279 0.00341449 0)
(-0.00671101 0.00971658 0)
(-0.00399207 0.014406 0)
(-0.0021138 0.0174222 0)
(-0.000919609 0.0186951 0)
(-0.000256136 0.0181403 0)
(2.48866e-05 0.0156579 0)
(6.87631e-05 0.0111374 0)
(2.48508e-05 0.00446503 0)
(-0.370458 -0.0885064 0)
(-0.369869 -0.0997388 0)
(-0.368973 -0.110931 0)
(-0.367709 -0.122036 0)
(-0.366004 -0.132993 0)
(-0.363772 -0.143728 0)
(-0.360918 -0.154149 0)
(-0.357333 -0.164149 0)
(-0.352901 -0.173599 0)
(-0.347499 -0.182351 0)
(-0.341002 -0.19024 0)
(-0.333289 -0.197083 0)
(-0.324249 -0.202686 0)
(-0.313791 -0.206849 0)
(-0.301851 -0.209373 0)
(-0.288405 -0.210075 0)
(-0.273474 -0.208797 0)
(-0.257138 -0.205421 0)
(-0.239537 -0.199883 0)
(-0.220873 -0.192187 0)
(-0.201411 -0.182411 0)
(-0.181465 -0.170717 0)
(-0.161388 -0.157345 0)
(-0.141553 -0.142605 0)
(-0.122325 -0.126867 0)
(-0.104047 -0.110531 0)
(-0.0870125 -0.0940112 0)
(-0.0714517 -0.077707 0)
(-0.0575231 -0.0619846 0)
(-0.0453108 -0.0471615 0)
(-0.0348285 -0.0334987 0)
(-0.0260295 -0.0211999 0)
(-0.018819 -0.0104176 0)
(-0.013067 -0.00126249 0)
(-0.00862043 0.00618381 0)
(-0.00531354 0.0118556 0)
(-0.00297555 0.0156909 0)
(-0.00143584 0.0176217 0)
(-0.00052717 0.0175675 0)
(-8.73003e-05 0.0154332 0)
(4.2894e-05 0.0111134 0)
(2.52716e-05 0.00450062 0)
(-0.365071 -0.0886668 0)
(-0.36506 -0.100129 0)
(-0.364849 -0.111603 0)
(-0.364381 -0.123055 0)
(-0.36359 -0.134437 0)
(-0.362397 -0.145686 0)
(-0.360708 -0.156726 0)
(-0.358413 -0.167459 0)
(-0.355393 -0.177768 0)
(-0.351513 -0.187512 0)
(-0.346633 -0.196528 0)
(-0.340606 -0.204631 0)
(-0.33329 -0.211614 0)
(-0.324554 -0.217256 0)
(-0.314285 -0.221331 0)
(-0.302404 -0.223612 0)
(-0.288876 -0.223889 0)
(-0.273719 -0.221985 0)
(-0.257017 -0.217768 0)
(-0.238928 -0.211175 0)
(-0.219679 -0.202219 0)
(-0.199571 -0.191009 0)
(-0.178961 -0.177744 0)
(-0.158247 -0.162722 0)
(-0.137846 -0.146315 0)
(-0.118163 -0.128958 0)
(-0.099569 -0.111119 0)
(-0.0823726 -0.0932646 0)
(-0.0668076 -0.0758405 0)
(-0.0530223 -0.0592424 0)
(-0.041081 -0.0438038 0)
(-0.0309711 -0.0297901 0)
(-0.022617 -0.0174014 0)
(-0.0158946 -0.00678228 0)
(-0.0106473 0.00196432 0)
(-0.00669876 0.00876185 0)
(-0.00386405 0.013545 0)
(-0.00195645 0.0162472 0)
(-0.000792058 0.0167918 0)
(-0.000191526 0.0150881 0)
(2.1864e-05 0.0110345 0)
(2.69872e-05 0.00452668 0)
(-0.357153 -0.0883528 0)
(-0.3576 -0.0999464 0)
(-0.357941 -0.111597 0)
(-0.358131 -0.123281 0)
(-0.358113 -0.134964 0)
(-0.357816 -0.1466 0)
(-0.357154 -0.158124 0)
(-0.356026 -0.169457 0)
(-0.354311 -0.180495 0)
(-0.351874 -0.19111 0)
(-0.348567 -0.20115 0)
(-0.344227 -0.210431 0)
(-0.338689 -0.218748 0)
(-0.331787 -0.225867 0)
(-0.323367 -0.231539 0)
(-0.313296 -0.235503 0)
(-0.301478 -0.237504 0)
(-0.287866 -0.237302 0)
(-0.272477 -0.234697 0)
(-0.255404 -0.229546 0)
(-0.236823 -0.221787 0)
(-0.216993 -0.211451 0)
(-0.196255 -0.19868 0)
(-0.175015 -0.183728 0)
(-0.153722 -0.166954 0)
(-0.132837 -0.148808 0)
(-0.112805 -0.1298 0)
(-0.0940211 -0.110464 0)
(-0.0768062 -0.0913298 0)
(-0.0613886 -0.0728829 0)
(-0.0478992 -0.0555451 0)
(-0.0363755 -0.0396598 0)
(-0.0267735 -0.0254909 0)
(-0.0189846 -0.0132298 0)
(-0.0128542 -0.00301037 0)
(-0.00819836 0.00507345 0)
(-0.00481811 0.0109493 0)
(-0.00250936 0.0145503 0)
(-0.00106913 0.0158028 0)
(-0.000297952 0.0146199 0)
(1.71998e-06 0.010902 0)
(2.92619e-05 0.00454499 0)
(-0.34729 -0.0876838 0)
(-0.348071 -0.0993244 0)
(-0.348827 -0.111056 0)
(-0.349523 -0.122867 0)
(-0.350116 -0.134736 0)
(-0.350547 -0.146629 0)
(-0.35074 -0.158502 0)
(-0.350606 -0.17029 0)
(-0.350033 -0.181909 0)
(-0.348893 -0.193248 0)
(-0.347037 -0.20417 0)
(-0.344299 -0.214506 0)
(-0.340497 -0.224055 0)
(-0.335443 -0.232584 0)
(-0.328947 -0.239832 0)
(-0.320832 -0.245515 0)
(-0.310944 -0.249337 0)
(-0.29917 -0.251006 0)
(-0.285452 -0.250252 0)
(-0.269808 -0.246852 0)
(-0.252341 -0.240653 0)
(-0.233252 -0.231596 0)
(-0.212839 -0.219739 0)
(-0.191489 -0.205268 0)
(-0.169661 -0.188502 0)
(-0.147857 -0.16988 0)
(-0.126588 -0.149934 0)
(-0.106335 -0.129261 0)
(-0.0875118 -0.108469 0)
(-0.0704424 -0.088144 0)
(-0.0553415 -0.0688115 0)
(-0.0423137 -0.0509109 0)
(-0.0313624 -0.0347882 0)
(-0.0224067 -0.0206984 0)
(-0.0153025 -0.00881961 0)
(-0.00986302 0.000727358 0)
(-0.00587722 0.00785711 0)
(-0.00312324 0.012499 0)
(-0.00137724 0.0145809 0)
(-0.000417073 0.0140182 0)
(-2.15939e-05 0.0107122 0)
(3.13951e-05 0.00455514 0)
(-0.336062 -0.0867741 0)
(-0.337061 -0.0983934 0)
(-0.338099 -0.110128 0)
(-0.339154 -0.121974 0)
(-0.340192 -0.133924 0)
(-0.34117 -0.145959 0)
(-0.342027 -0.158049 0)
(-0.342689 -0.170148 0)
(-0.343058 -0.182192 0)
(-0.343018 -0.194093 0)
(-0.34243 -0.205733 0)
(-0.341131 -0.216963 0)
(-0.338938 -0.227598 0)
(-0.33565 -0.237414 0)
(-0.331053 -0.246151 0)
(-0.324935 -0.253513 0)
(-0.317093 -0.259178 0)
(-0.307351 -0.26281 0)
(-0.295579 -0.264078 0)
(-0.281712 -0.262679 0)
(-0.265769 -0.258366 0)
(-0.247872 -0.250976 0)
(-0.228252 -0.240465 0)
(-0.207249 -0.226925 0)
(-0.185307 -0.210601 0)
(-0.162943 -0.191891 0)
(-0.140716 -0.171327 0)
(-0.119186 -0.149541 0)
(-0.0988619 -0.127219 0)
(-0.0801728 -0.105048 0)
(-0.063433 -0.0836681 0)
(-0.048833 -0.0636332 0)
(-0.0364413 -0.0453927 0)
(-0.02622 -0.0292855 0)
(-0.0180468 -0.0155508 0)
(-0.0117394 -0.00434949 0)
(-0.00707844 0.00421116 0)
(-0.00382529 0.0100515 0)
(-0.00173436 0.0130975 0)
(-0.000558858 0.0132655 0)
(-5.18467e-05 0.0104558 0)
(3.27927e-05 0.00455456 0)
(-0.324 -0.085725 0)
(-0.325117 -0.0972727 0)
(-0.326318 -0.108949 0)
(-0.327593 -0.120758 0)
(-0.328921 -0.132703 0)
(-0.330272 -0.144777 0)
(-0.331602 -0.156966 0)
(-0.332852 -0.169242 0)
(-0.333945 -0.181562 0)
(-0.334782 -0.193858 0)
(-0.335238 -0.206041 0)
(-0.335164 -0.217983 0)
(-0.334384 -0.229525 0)
(-0.332697 -0.24046 0)
(-0.32988 -0.250541 0)
(-0.325697 -0.259473 0)
(-0.319907 -0.266925 0)
(-0.312284 -0.272529 0)
(-0.30263 -0.275906 0)
(-0.290798 -0.276681 0)
(-0.276718 -0.274515 0)
(-0.260418 -0.269138 0)
(-0.242041 -0.260387 0)
(-0.221856 -0.248237 0)
(-0.200259 -0.232829 0)
(-0.177753 -0.214486 0)
(-0.154922 -0.193702 0)
(-0.132382 -0.17112 0)
(-0.110736 -0.147481 0)
(-0.0905197 -0.123569 0)
(-0.0721601 -0.100146 0)
(-0.0559511 -0.0778962 0)
(-0.0420464 -0.0573948 0)
(-0.0304685 -0.0390873 0)
(-0.0211313 -0.0232958 0)
(-0.0138671 -0.0102377 0)
(-0.008454 -5.46545e-05 0)
(-0.00463944 0.00715658 0)
(-0.00215634 0.0113158 0)
(-0.000732037 0.0123376 0)
(-9.2395e-05 0.0101194 0)
(3.28461e-05 0.00453879 0)
(-0.311554 -0.0846198 0)
(-0.312708 -0.0960629 0)
(-0.313975 -0.107638 0)
(-0.315354 -0.119358 0)
(-0.316835 -0.131232 0)
(-0.318401 -0.143263 0)
(-0.320026 -0.155452 0)
(-0.321667 -0.167788 0)
(-0.323268 -0.180245 0)
(-0.324748 -0.192782 0)
(-0.326007 -0.205333 0)
(-0.326912 -0.217799 0)
(-0.327305 -0.230048 0)
(-0.326995 -0.241904 0)
(-0.325762 -0.253139 0)
(-0.323361 -0.263476 0)
(-0.319531 -0.272585 0)
(-0.314004 -0.280088 0)
(-0.306527 -0.285571 0)
(-0.296881 -0.288603 0)
(-0.284908 -0.288764 0)
(-0.270534 -0.285676 0)
(-0.253802 -0.279053 0)
(-0.234885 -0.268733 0)
(-0.214103 -0.25473 0)
(-0.191911 -0.23725 0)
(-0.168884 -0.216715 0)
(-0.145675 -0.193737 0)
(-0.122958 -0.169086 0)
(-0.101373 -0.143624 0)
(-0.0814671 -0.118232 0)
(-0.0636532 -0.0937401 0)
(-0.0481891 -0.070868 0)
(-0.035178 -0.0501936 0)
(-0.0245871 -0.0321463 0)
(-0.0162762 -0.0170222 0)
(-0.0100296 -0.00501309 0)
(-0.00558522 0.00375609 0)
(-0.00265619 0.00919226 0)
(-0.000943763 0.0112044 0)
(-0.000145859 0.00968522 0)
(3.11679e-05 0.00450188 0)
(-0.29908 -0.0835213 0)
(-0.300211 -0.0948426 0)
(-0.301469 -0.106293 0)
(-0.302859 -0.117889 0)
(-0.304382 -0.129645 0)
(-0.306033 -0.141574 0)
(-0.307798 -0.153687 0)
(-0.309655 -0.165986 0)
(-0.311564 -0.178465 0)
(-0.313468 -0.191103 0)
(-0.315289 -0.20386 0)
(-0.31692 -0.216667 0)
(-0.318224 -0.229423 0)
(-0.319031 -0.241985 0)
(-0.319134 -0.254158 0)
(-0.318295 -0.26569 0)
(-0.316243 -0.27627 0)
(-0.312692 -0.285525 0)
(-0.307345 -0.293026 0)
(-0.299925 -0.298305 0)
(-0.290191 -0.300874 0)
(-0.277976 -0.300262 0)
(-0.263211 -0.29606 0)
(-0.24596 -0.287964 0)
(-0.226439 -0.275833 0)
(-0.205026 -0.259732 0)
(-0.182252 -0.239962 0)
(-0.158769 -0.217064 0)
(-0.1353 -0.191793 0)
(-0.112574 -0.165063 0)
(-0.0912567 -0.137863 0)
(-0.0718899 -0.111168 0)
(-0.0548542 -0.0858619 0)
(-0.0403545 -0.0626809 0)
(-0.0284309 -0.0421899 0)
(-0.0189868 -0.0247889 0)
(-0.0118239 -0.010741 0)
(-0.00667732 -0.000213654 0)
(-0.00324383 0.00667764 0)
(-0.00119944 0.0098313 0)
(-0.000214163 0.00913255 0)
(2.74962e-05 0.00443661 0)
(-0.286833 -0.0824722 0)
(-0.287903 -0.093668 0)
(-0.289099 -0.104984 0)
(-0.290434 -0.116439 0)
(-0.291916 -0.12805 0)
(-0.293549 -0.139838 0)
(-0.295332 -0.15182 0)
(-0.297258 -0.164011 0)
(-0.299305 -0.176419 0)
(-0.301438 -0.189043 0)
(-0.303602 -0.201865 0)
(-0.305716 -0.214847 0)
(-0.307671 -0.22792 0)
(-0.309322 -0.240975 0)
(-0.310487 -0.253856 0)
(-0.310943 -0.266349 0)
(-0.310429 -0.278171 0)
(-0.308652 -0.288972 0)
(-0.305293 -0.298328 0)
(-0.30003 -0.305753 0)
(-0.292559 -0.310716 0)
(-0.282624 -0.312668 0)
(-0.27005 -0.311087 0)
(-0.254783 -0.30553 0)
(-0.236919 -0.295693 0)
(-0.21673 -0.281469 0)
(-0.194667 -0.263002 0)
(-0.171344 -0.240714 0)
(-0.147498 -0.215298 0)
(-0.123923 -0.187676 0)
(-0.101392 -0.158918 0)
(-0.0805782 -0.130138 0)
(-0.062 -0.102395 0)
(-0.045984 -0.0766072 0)
(-0.0326651 -0.0535046 0)
(-0.0220087 -0.0336211 0)
(-0.0138483 -0.0173164 0)
(-0.00792562 -0.0048196 0)
(-0.00392618 0.00371909 0)
(-0.00150287 0.00818029 0)
(-0.000298617 0.00843836 0)
(2.16719e-05 0.00433501 0)
(-0.274978 -0.0814972 0)
(-0.275963 -0.0925738 0)
(-0.277068 -0.103758 0)
(-0.278306 -0.115069 0)
(-0.27969 -0.126526 0)
(-0.281233 -0.138152 0)
(-0.282944 -0.149971 0)
(-0.284826 -0.162006 0)
(-0.286876 -0.174276 0)
(-0.289076 -0.186796 0)
(-0.291394 -0.199569 0)
(-0.293775 -0.212584 0)
(-0.29614 -0.225802 0)
(-0.298372 -0.239151 0)
(-0.30032 -0.252517 0)
(-0.301787 -0.265727 0)
(-0.302533 -0.278541 0)
(-0.302273 -0.290642 0)
(-0.300685 -0.301631 0)
(-0.297422 -0.311026 0)
(-0.292133 -0.318274 0)
(-0.284489 -0.322774 0)
(-0.274221 -0.323912 0)
(-0.261159 -0.321114 0)
(-0.24527 -0.313913 0)