/*--------------------------------*- C++ -*----------------------------------*\
  =========                 |
  \\      /  F ield         | OpenFOAM: The Open Source CFD Toolbox
   \\    /   O peration     | Website:  https://openfoam.org
    \\  /    A nd           | Version:  9
     \\/     M anipulation  |
\*---------------------------------------------------------------------------*/
FoamFile
{
    format      ascii;
    class       volScalarField;
    location    "1.5";
    object      p;
}
// * * * * * * * * * * * * * * * * * * * * * * * * * * * * * * * * * * * * * //

dimensions      [0 2 -2 0 0 0 0];

internalField   nonuniform List<scalar> 
1250
(
9.03612e-09
2.27807e-06
-1.71275e-06
-1.17583e-05
-2.70575e-05
-4.67262e-05
-6.99122e-05
-9.592e-05
-0.000124251
-0.000154584
-0.000186745
-0.000220664
-0.000256341
-0.000293813
-0.000333131
-0.000374334
-0.000417438
-0.000462423
-0.000509227
-0.000557743
-0.000607815
-0.000659243
-0.000711773
-0.000765109
-0.000818902
-0.000872754
-0.000926218
-0.000978784
-0.0010299
-2.32864e-06
-7.45844e-08
-4.05077e-06
-1.32939e-05
-2.69993e-05
-4.46047e-05
-6.55343e-05
-8.92745e-05
-0.000115426
-0.00014371
-0.000173948
-0.000206042
-0.00023995
-0.000275661
-0.000313176
-0.000352493
-0.000393592
-0.000436428
-0.000480921
-0.000526957
-0.00057438
-0.000622998
-0.000672573
-0.000722829
-0.000773445
-0.000824058
-0.000874256
-0.00092357
-0.000971484
1.75763e-06
3.79501e-06
-3.52026e-07
-9.36337e-06
-2.23764e-05
-3.89324e-05
-5.85872e-05
-8.09254e-05
-0.000105623
-0.000132447
-0.000161239
-0.000191904
-0.000224388
-0.000258665
-0.000294715
-0.000332518
-0.000372036
-0.00041321
-0.000455954
-0.000500149
-0.000545645
-0.000592255
-0.00063976
-0.0006879
-0.000736381
-0.000784869
-0.000832988
-0.000880297
-0.000926306
1.2322e-05
1.30963e-05
8.21346e-06
-1.08168e-06
-1.3976e-05
-3.00672e-05
-4.89655e-05
-7.03411e-05
-9.39386e-05
-0.000119574
-0.000147126
-0.000176519
-0.000207709
-0.000240671
-0.000275383
-0.000311817
-0.00034993
-0.000389659
-0.000430915
-0.000473582
-0.000517516
-0.000562543
-0.000608459
-0.000655029
-0.000701983
-0.000749021
-0.000795803
-0.000841914
-0.000886889
2.88371e-05
2.7173e-05
2.08922e-05
1.08383e-05
-2.36835e-06
-1.83575e-05
-3.68128e-05
-5.7482e-05
-8.01796e-05
-0.00010478
-0.000131207
-0.000159416
-0.000189387
-0.000221107
-0.000254561
-0.000289725
-0.000326557
-0.000364996
-0.00040496
-0.000446337
-0.000488996
-0.000532781
-0.000577508
-0.000622968
-0.000668925
-0.000715117
-0.000761244
-0.000806914
-0.000851692
5.05689e-05
4.54827e-05
3.72265e-05
2.5984e-05
1.2077e-05
-4.14772e-06
-2.24451e-05
-4.26471e-05
-6.46441e-05
-8.83757e-05
-0.000113818
-0.000140971
-0.000169844
-0.000200449
-0.000232787
-0.000266847
-0.000302596
-0.000339983
-0.000378936
-0.00041936
-0.000461141
-0.000504143
-0.000548214
-0.000593177
-0.000638835
-0.000684968
-0.000731325
-0.000777536
-0.000823194
7.65739e-05
6.73698e-05
5.66597e-05
4.38107e-05
2.88703e-05
1.21247e-05
-6.25911e-06
-2.62051e-05
-4.76867e-05
-7.07151e-05
-9.53287e-05
-0.000121577
-0.00014951
-0.000179173
-0.000210591
-0.000243773
-0.000278706
-0.000315357
-0.00035367
-0.000393575
-0.000434983
-0.000477791
-0.000521882
-0.000567122
-0.000613359
-0.000660426
-0.000708124
-0.000756106
-0.000803996
0.00010591
9.1982e-05
7.83784e-05
6.36441e-05
4.74109e-05
2.9918e-05
1.12511e-05
-8.61491e-06
-2.9745e-05
-5.22292e-05
-7.61748e-05
-0.00010169
-0.000128873
-0.000157806
-0.000188551
-0.000221144
-0.000255597
-0.000291906
-0.000330043
-0.000369969
-0.000411633
-0.000454974
-0.000499922
-0.000546395
-0.000594298
-0.000643525
-0.000693937
-0.000745209
-0.000797004
0.000137576
0.000118421
0.000101609
8.47358e-05
6.70006e-05
4.85841e-05
2.94779e-05
9.54476e-06
-1.13813e-05
-3.34781e-05
-5.69273e-05
-8.1903e-05
-0.000108559
-0.000137025
-0.0001674
-0.00019976
-0.000234154
-0.000270611
-0.000309146
-0.000349764
-0.000392462
-0.000437234
-0.000484072
-0.000532958
-0.000583867
-0.000636766
-0.000691583
-0.00074802
-0.000805779
0.000170546
0.000145726
0.000125438
0.000106229
8.68338e-05
6.73603e-05
4.76921e-05
2.75661e-05
6.70682e-06
-1.51608e-05
-3.83021e-05
-6.29612e-05
-8.93543e-05
-0.000117665
-0.000148042
-0.000180608
-0.000215456
-0.000252667
-0.000292307
-0.000334439
-0.000379127
-0.000426436
-0.000476433
-0.000529182
-0.000584742
-0.000643169
-0.000704469
-0.00076837
-0.000834626
0.000203685
0.00017284
0.000148854
0.000127163
0.000105991
8.53622e-05
6.50357e-05
4.46074e-05
2.36797e-05
1.87411e-06
-2.11669e-05
-4.57662e-05
-7.22086e-05
-0.000100739
-0.000131565
-0.000164866
-0.000200796
-0.000239495
-0.000281102
-0.000325753
-0.000373597
-0.00042479
-0.000479495
-0.000537876
-0.000600094
-0.000666312
-0.000736626
-0.000810796
-0.000888639
0.000235832
0.00019862
0.000170749
0.000146463
0.000123435
0.000101579
8.05146e-05
5.96826e-05
3.85495e-05
1.66221e-05
-6.55531e-06
-3.13923e-05
-5.82506e-05
-8.74467e-05
-0.000119257
-0.000153931
-0.000191695
-0.000232772
-0.000277386
-0.000325772
-0.000378185
-0.000434894
-0.000496183
-0.000562339
-0.000633647
-0.000710395
-0.000792786
-0.000880617
-0.000973787
0.000265709
0.000221817
0.000189905
0.000162943
0.000138001
0.000114866
9.29958e-05
7.16572e-05
5.01697e-05
2.79146e-05
4.32822e-06
-2.10945e-05
-4.88014e-05
-7.91914e-05
-0.000112623
-0.000149429
-0.00018993
-0.000234448
-0.000283319
-0.000336901
-0.00039558
-0.000459767
-0.000529895
-0.0006064
-0.000689718
-0.000780285
-0.000878426
-0.000983992
-0.00109698
0.000291929
0.000241073
0.000204989
0.000175293
0.0001484
0.000123944
0.000101201
7.92446e-05
5.72335e-05
3.44122e-05
1.00986e-05
-1.63178e-05
-4.53825e-05
-7.75896e-05
-0.000113395
-0.000153235
-0.000197544
-0.000246769
-0.000301385
-0.000361903
-0.000428872
-0.000502878
-0.000584533
-0.000674454
-0.000773257
-0.000881553
-0.000999813
-0.00112795
-0.00126607
0.000312989
0.000254912
0.000214549
0.000182078
0.000153209
0.000127395
0.000103705
8.10032e-05
5.82704e-05
3.46028e-05
9.18813e-06
-1.87012e-05
-4.9722e-05
-8.44791e-05
-0.000123544
-0.000167481
-0.000216862
-0.00027229
-0.000334411
-0.000403922
-0.000481574
-0.000568164
-0.000664521
-0.000771478
-0.000889863
-0.00102049
-0.001164
-0.00132038
-0.00148988
0.000327263
0.00026174
0.000217012
0.000181742
0.000150878
0.000123665
9.89397e-05
7.53375e-05
5.16466e-05
2.68005e-05
-1.55856e-07
-3.00809e-05
-6.37586e-05
-0.000101923
-0.000145286
-0.000194563
-0.000250498
-0.000313882
-0.00038557
-0.000466487
-0.000557627
-0.000660039
-0.00077481
-0.000903029
-0.00104577
-0.00120409
-0.0013788
-0.00157
-0.0017781
0.000333003
0.000259844
0.000210689
0.000172606
0.000139728
0.000111063
8.51926e-05
6.05005e-05
3.55667e-05
9.14775e-06
-1.98684e-05
-5.24873e-05
-8.96387e-05
-0.00013221
-0.000181077
-0.000237141
-0.000301352
-0.00037473
-0.000458384
-0.000553511
-0.000661392
-0.000783378
-0.000920858
-0.00107522
-0.00124781
-0.00143996
-0.0016527
-0.00188622
-0.0021411
0.000328342
0.000247398
0.000193773
0.000152872
0.00011796
8.77736e-05
6.06164e-05
3.4601e-05
8.08172e-06
-2.03767e-05
-5.20596e-05
-8.81382e-05
-0.00012971
-0.000177842
-0.000233608
-0.000298129
-0.000372603
-0.000458326
-0.000556707
-0.000669266
-0.000797624
-0.000943483
-0.00110858
-0.00129464
-0.00150333
-0.00173627
-0.00199469
-0.00227893
-0.00258976
0.000311299
0.00022247
0.000164357
0.000120636
8.36586e-05
5.18597e-05
2.32366e-05
-4.3876e-06
-3.29011e-05
-6.39476e-05
-9.90033e-05
-0.000139426
-0.000186508
-0.000241526
-0.000305787
-0.000380677
-0.000467686
-0.000568438
-0.000684693
-0.00081835
-0.000971426
-0.00114602
-0.00134426
-0.00156827
-0.00182005
-0.0021015
-0.00241408
-0.00275828
-0.00313507
0.000279796
0.000183032
0.000120435
7.38997e-05
3.4813e-05
1.27936e-06
-2.9033e-05
-5.86113e-05
-8.96021e-05
-0.000123875
-0.000163118
-0.0002089
-0.000262736
-0.000326148
-0.00040072
-0.000488146
-0.000590262
-0.000709072
-0.000846748
-0.00100562
-0.00118816
-0.00139692
-0.00163447
-0.00190333
-0.0022059
-0.00254434
-0.00292023
-0.00333438
-0.00378775
0.000231669
0.000126982
5.99312e-05
1.05846e-05
-3.06718e-05
-6.60963e-05
-9.83723e-05
-0.000130315
-0.000164348
-0.000202584
-0.000246946
-0.000299239
-0.000361237
-0.000434745
-0.000521668
-0.000624061
-0.000744163
-0.000884414
-0.00104746
-0.00123612
-0.00145338
-0.00170227
-0.00198585
-0.00230708
-0.00266877
-0.00307332
-0.00352215
-0.0040167
0.000164694
5.21609e-05
-1.92892e-05
-7.14433e-05
-0.000114951
-0.000152461
-0.000187031
-0.000221821
-0.000259546
-0.000302586
-0.000353118
-0.00041322
-0.000484955
-0.000570458
-0.000672005
-0.000792064
-0.000933335
-0.00109876
-0.00129151
-0.00151496
-0.00177264
-0.00206812
-0.00240495
-0.00278655
-0.00321611
-0.00369623
-0.0042283
-0.0048138
7.66091e-05
-4.36197e-05
-0.000119388
-0.000174348
-0.000220213
-0.000260048
-0.0002973
-0.000335492
-0.000377652
-0.000426441
-0.000484324
-0.000553676
-0.000636894
-0.000736488
-0.000855156
-0.00099584
-0.00116176
-0.00135642
-0.00158357
-0.00184719
-0.00215139
-0.00250032
-0.00289802
-0.00334833
-0.00385479
-0.00442012
-0.00504564
-0.00573272
-3.48491e-05
-0.000162547
-0.000242525
-0.000300297
-0.000348651
-0.000391091
-0.000431477
-0.000473706
-0.000521132
-0.000576726
-0.000643261
-0.000723449
-0.00082006
-0.00093603
-0.00107453
-0.00123904
-0.00143336
-0.0016616
-0.00192816
-0.00223765
-0.0025948
-0.00300432
-0.00347075
-0.00399832
-0.00459077
-0.0052509
-0.00597985
-0.00677867
-0.000171917
-0.000306777
-0.000390829
-0.000451422
-0.000502423
-0.000547798
-0.00059183
-0.000638806
-0.000692423
-0.000755979
-0.000832587
-0.000925331
-0.0010374
-0.00117221
-0.00133345
-0.00152521
-0.0017519
-0.00201831
-0.00232952
-0.00269081
-0.00310753
-0.00358495
-0.00412805
-0.00474134
-0.00542871
-0.00619286
-0.00703459
-0.00795441
-0.00033676
-0.000478391
-0.000566355
-0.000629784
-0.000683619
-0.000732303
-0.000780555
-0.000833061
-0.000893877
-0.000966649
-0.00105486
-0.001162
-0.00129174
-0.00144799
-0.00163505
-0.00185764
-0.00212086
-0.00243021
-0.00279147
-0.00321061
-0.00369358
-0.00424617
-0.00487372
-0.00558093
-0.00637166
-0.00724831
-0.00821118
-0.00925994
-0.000531437
-0.000679361
-0.000771043
-0.000837328
-0.000894211
-0.000946623
-0.000999726
-0.00105861
-0.00112771
-0.00121104
-0.00131248
-0.00143597
-0.00158568
-0.00176611
-0.00198219
-0.00223931
-0.00254333
-0.00290046
-0.00331723
-0.00380024
-0.00435606
-0.00499087
-0.00571029
-0.00651905
-0.00742079
-0.0084174
-0.00950841
-0.0106924
-0.000757849
-0.0009115
-0.00100668
-0.00107585
-0.00113602
-0.00119261
-0.00125125
-0.00131743
-0.00139596
-0.00149125
-0.00160762
-0.00174949
-0.00192157
-0.00212899
-0.00237735
-0.00267278
-0.00302189
-0.00343165
-0.00390928
-0.00446205
-0.005097
-0.00582067
-0.00663877
-0.00755591
-0.00857524
-0.00969792
-0.0109224
-0.012246
-0.0010177
-0.00117642
-0.00127485
-0.00134693
-0.00141064
-0.00147192
-0.00153681
-0.00161123
-0.0017004
-0.00180912
-0.00194218
-0.0021045
-0.00230139
-0.00253864
-0.00282256
-0.00316005
-0.00355847
-0.00402557
-0.00456924
-0.00519731
-0.00591725
-0.00673578
-0.00765857
-0.00868982
-0.00983202
-0.0110853
-0.0124468
-0.0139122
-0.00131244
-0.0014755
-0.0015769
-0.00165192
-0.00171945
-0.00178592
-0.00185782
-0.00194147
-0.00204251
-0.00216616
-0.00231767
-0.00250254
-0.00272668
-0.00299657
-0.00331929
-0.00370248
-0.0041543
-0.0046832
-0.00529772
-0.00600618
-0.00681632
-0.00773491
-0.00876733
-0.0099172
-0.011186
-0.0125726
-0.0140727
-0.0156798
-0.00164323
-0.00180982
-0.00191387
-0.00199186
-0.0020635
-0.00213569
-0.00221537
-0.00230927
-0.00242341
-0.00256348
-0.00273522
-0.00294469
-0.00319848
-0.00350375
-0.00386835
-0.00430072
-0.00480974
-0.00540456
-0.00609428
-0.00688758
-0.00779234
-0.00881518
-0.00996099
-0.0112325
-0.0126301
-0.0141509
-0.015789
-0.0175357
-0.00201092
-0.00218013
-0.00228651
-0.00236749
-0.00244351
-0.00252197
-0.00261019
-0.00271533
-0.00284381
-0.00300177
-0.00319546
-0.00343154
-0.00371724
-0.00406049
-0.00446988
-0.00495461
-0.00552429
-0.00618868
-0.00695732
-0.00783916
-0.00884203
-0.0099722
-0.0112338
-0.0126286
-0.0141552
-0.0158094
-0.0175828
-0.0194648
-0.00241595
-0.00258683
-0.00269516
-0.00277914
-0.00285983
-0.00294507
-0.00304261
-0.00315997
-0.00330398
-0.00348123
-0.0036985
-0.00396307
-0.00428283
-0.00466644
-0.00512325
-0.00566318
-0.00629651
-0.00703352
-0.00788412
-0.00885731
-0.00996074
-0.0112001
-0.0125785
-0.0140965
-0.0157509
-0.0175355
-0.01944
-0.0214512
-0.00285838
-0.00302991
-0.0031398
-0.00322676
-0.00331238
-0.00340492
-0.00351249
-0.003643
-0.00380366
-0.00400153
-0.00424392
-0.00453869
-0.00489443
-0.00532052
-0.00582702
-0.00642456
-0.00712399
-0.00793603
-0.00887079
-0.00993722
-0.0111425
-0.0124916
-0.0139865
-0.015626
-0.0174054
-0.019316
-0.0213454
-0.0234781
-0.00333783
-0.00350894
-0.00361996
-0.00370988
-0.00380066
-0.00390096
-0.00401924
-0.00416376
-0.00434212
-0.00456181
-0.00483066
-0.00515716
-0.00555056
-0.00602091
-0.00657899
-0.00723603
-0.00800339
-0.00889213
-0.0099124
-0.0110729
-0.0123803
-0.0138384
-0.015448
-0.0172061
-0.0191058
-0.0211365
-0.0232835
-0.025529
-0.00385348
-0.00402306
-0.00413476
-0.00422756
-0.0043237
-0.00443218
-0.00456179
-0.00472109
-0.00491806
-0.00516061
-0.00545711
-0.00581662
-0.00624903
-0.00676506
-0.00737613
-0.00809402
-0.0089305
-0.00989681
-0.011003
-0.0122575
-0.0136659
-0.0152312
-0.0169523
-0.0188246
-0.0208391
-0.0229828
-0.0252388
-0.0275873
-0.00440403
-0.00457094
-0.00468284
-0.00477844
-0.00488008
-0.00499709
-0.00513854
-0.00531329
-0.00552964
-0.00579594
-0.00612103
-0.00651455
-0.006987
-0.00754972
-0.00821469
-0.00899417
-0.00990024
-0.0109442
-0.0121359
-0.013483
-0.0149905
-0.0166598
-0.0184883
-0.0204693
-0.0225917
-0.0248403
-0.0271963
-0.0296377
-0.00498772
-0.00515081
-0.00526241
-0.00536067
-0.0054679
-0.00559372
-0.00574743
-0.00593816
-0.00617451
-0.00646522
-0.0068196
-0.00724783
-0.00776097
-0.00837093
-0.00909019
-0.0099314
-0.0109068
-0.0120277
-0.0133034
-0.0147411
-0.0163446
-0.0181137
-0.0200443
-0.0221275
-0.0243503
-0.0266952
-0.0291415
-0.0316655
-0.00560236
-0.00576048
-0.00587125
-0.00597198
-0.00608483
-0.00621963
-0.00638592
-0.006593
-0.00684978
-0.00716535
-0.00754945
-0.00801275
-0.00856685
-0.00922414
-0.00999754
-0.0109
-0.0119437
-0.01314
-0.0144976
-0.0160228
-0.0177181
-0.0195821
-0.0216086
-0.023787
-0.0261018
-0.028534
-0.0310609
-0.0336574
-0.00624529
-0.00639731
-0.00650669
-0.00660968
-0.00672808
-0.00687195
-0.00705098
-0.00727465
-0.00755209
-0.00789273
-0.0083067
-0.00880511
-0.00940001
-0.0101042
-0.0109311
-0.0118936
-0.0130041
-0.0142734
-0.0157098
-0.0173186
-0.0191011
-0.0210541
-0.0231698
-0.0254355
-0.027834
-0.0303442
-0.0329421
-0.0356014
-0.00691347
-0.00705827
-0.00716571
-0.00727066
-0.00739449
-0.0075474
-0.0077392
-0.00797951
-0.00827765
-0.00864331
-0.009087
-0.00962018
-0.0102553
-0.0110057
-0.0118847
-0.0129056
-0.0140805
-0.0154199
-0.0169314
-0.0186192
-0.0204833
-0.022519
-0.0247166
-0.0270617
-0.0295352
-0.0321144
-0.034774
-0.0374869
-0.00760349
-0.00773999
-0.00784489
-0.00795148
-0.00808052
-0.00824233
-0.00844679
-0.00870361
-0.00902226
-0.00941266
-0.0098856
-0.0104529
-0.0111274
-0.0119225
-0.0128519
-0.0139289
-0.0151654
-0.0165713
-0.0181535
-0.0199151
-0.0218548
-0.0239663
-0.0262383
-0.0286546
-0.0311945
-0.0338339
-0.0365464
-0.0393043
-0.00831167
-0.00843887
-0.00854061
-0.00864841
-0.00878233
-0.00895276
-0.00916963
-0.00944265
-0.00978141
-0.010196
-0.0106975
-0.0112979
-0.0120103
-0.0128485
-0.0138261
-0.0149564
-0.016251
-0.0177192
-0.0193673
-0.0211971
-0.023206
-0.0253862
-0.0277249
-0.0302041
-0.032802
-0.0354932
-0.0382505
-0.0410457
-0.00924907
-0.0093576
-0.00949596
-0.0096746
-0.00990342
-0.0101921
-0.0105504
-0.0109883
-0.0115172
-0.0121494
-0.012898
-0.013777
-0.0148001
-0.0159804
-0.0173292
-0.0188552
-0.0205637
-0.0224557
-0.0245271
-0.0267688
-0.0291665
-0.0317009
-0.0343488
-0.0370839
-0.0398783
-0.0427038
)
;

boundaryField
{
    movingWall
    {
        type            zeroGradient;
    }
    fixedWalls
    {
        type            zeroGradient;
    }
    frontAndBack
    {
        type            empty;
    }
    procBoundary0to1
    {
        type            processor;
        value           nonuniform List<scalar> 
45
(
-0.00107897
-0.00101747
-0.000970548
-0.000930329
-0.000895251
-0.000868055
-0.000851642
-0.000849264
-0.00086492
-0.000903421
-0.000970474
-0.00107276
-0.001218
-0.00141498
-0.00167348
-0.00200424
-0.00241866
-0.00292859
-0.00354584
-0.00428176
-0.00455791
-0.00455791
-0.00545403
-0.0064827
-0.00764829
-0.00895246
-0.0103936
-0.011967
-0.0136645
-0.0154752
-0.0173857
-0.0193804
-0.0214423
-0.0235536
-0.0256964
-0.027853
-0.0300065
-0.0321411
-0.0342424
-0.0362976
-0.0382953
-0.0402255
-0.0420798
-0.0438509
-0.0455326
)
;
    }
    procBoundary0to3
    {
        type            processor;
        value           nonuniform List<scalar> 
29
(
-0.00903413
-0.00915106
-0.00915106
-0.00996616
-0.010075
-0.0102174
-0.0104038
-0.0106441
-0.0109479
-0.0113248
-0.0117851
-0.0123402
-0.0130024
-0.0137853
-0.0147025
-0.015768
-0.0169946
-0.0183932
-0.0199719
-0.0217352
-0.0236829
-0.02581
-0.0281058
-0.0305548
-0.0331366
-0.0358268
-0.0385984
-0.0414232
-0.0442727
)
;
    }
}


// ************************************************************************* //
