/*--------------------------------*- C++ -*----------------------------------*\
  =========                 |
  \\      /  F ield         | OpenFOAM: The Open Source CFD Toolbox
   \\    /   O peration     | Website:  https://openfoam.org
    \\  /    A nd           | Version:  9
     \\/     M anipulation  |
\*---------------------------------------------------------------------------*/
FoamFile
{
    format      ascii;
    class       volScalarField;
    location    "3.25";
    object      p;
}
// * * * * * * * * * * * * * * * * * * * * * * * * * * * * * * * * * * * * * //

dimensions      [0 2 -2 0 0 0 0];

internalField   nonuniform List<scalar> 
10000
(
-6.38142e-09
2.05114e-05
3.27284e-05
3.22166e-05
1.50346e-05
-2.00587e-05
-7.24827e-05
-0.000140799
-0.00022326
-0.000318102
-0.000423752
-0.000538931
-0.000662706
-0.000794509
-0.000934116
-0.00108159
-0.00123722
-0.00140146
-0.00157483
-0.00175783
-0.00195094
-0.00215446
-0.00236857
-0.00259318
-0.00282801
-0.00307246
-0.00332566
-0.00358642
-0.0038532
-0.00412411
-0.0043969
-0.00466895
-0.00493725
-0.00519846
-0.00544888
-0.00568456
-0.00590127
-0.00609463
-0.00626019
-0.00639349
-0.00649024
-0.00654639
-0.00655829
-0.00652282
-0.00643757
-0.00630092
-0.00611222
-0.00587189
-0.00558151
-0.00524393
-0.00486328
-0.00444493
-0.00399524
-0.00352273
-0.00303602
-0.00254493
-0.00206
-0.00159217
-0.00115251
-0.000751871
-0.000400562
-0.000107989
0.000117686
0.000269856
0.000343734
0.000336563
0.000247746
7.88882e-05
-0.000166246
-0.000481889
-0.000860566
-0.00129314
-0.00176957
-0.00227905
-0.00281049
-0.00335299
-0.00389615
-0.00443043
-0.00494743
-0.00544005
-0.00590258
-0.0063308
-0.00672185
-0.00707418
-0.00738738
-0.00766201
-0.0078994
-0.00810142
-0.00827027
-0.00840828
-0.00851775
-0.00860076
-0.00865912
-0.00869437
-0.00870789
-0.00870133
-0.00867737
-0.00864098
-0.00860006
-0.00856809
-2.11135e-05
-4.68797e-07
7.07399e-06
1.73467e-06
-1.77313e-05
-5.23928e-05
-0.000102069
-0.000165842
-0.000242469
-0.000330642
-0.000429144
-0.000536943
-0.000653255
-0.000777624
-0.000909831
-0.00104991
-0.00119809
-0.00135473
-0.00152025
-0.00169509
-0.00187962
-0.00207414
-0.00227878
-0.0024935
-0.00271801
-0.00295184
-0.00319419
-0.003444
-0.00369988
-0.00396013
-0.00422268
-0.00448512
-0.00474467
-0.00499822
-0.00524231
-0.00547319
-0.00568689
-0.00587924
-0.00604596
-0.00618279
-0.00628555
-0.00635029
-0.00637343
-0.00635188
-0.00628317
-0.00616561
-0.00599843
-0.00578187
-0.00551728
-0.00520726
-0.00485575
-0.0044678
-0.00404909
-0.00360751
-0.00315167
-0.0026909
-0.00223525
-0.00179519
-0.00138132
-0.00100407
-0.00067334
-0.000398153
-0.000186352
-4.42736e-05
2.35002e-05
1.43452e-05
-7.22828e-05
-0.00023481
-0.000469596
-0.000771082
-0.00113203
-0.00154384
-0.00199679
-0.00248065
-0.00298491
-0.00349927
-0.00401395
-0.00452001
-0.00500963
-0.00547621
-0.00591451
-0.00632063
-0.006692
-0.00702721
-0.00732592
-0.00758868
-0.00781671
-0.00801174
-0.00817581
-0.00831111
-0.00841981
-0.00850397
-0.00856547
-0.00860601
-0.00862725
-0.00863099
-0.00861972
-0.00859732
-0.00856819
-0.00853609
-3.42953e-05
-8.56341e-06
-9.7072e-07
-7.71204e-06
-2.79691e-05
-6.23489e-05
-0.000110601
-0.000171866
-0.000245059
-0.000329048
-0.000422771
-0.000525332
-0.000636089
-0.000754618
-0.000880766
-0.0010146
-0.00115635
-0.00130639
-0.00146513
-0.001633
-0.0018104
-0.00199763
-0.00219486
-0.00240209
-0.00261915
-0.00284563
-0.00308087
-0.00332393
-0.00357358
-0.00382828
-0.00408612
-0.00434485
-0.00460186
-0.00485419
-0.00509852
-0.00533122
-0.0055484
-0.00574594
-0.00591961
-0.00606512
-0.00617826
-0.00625501
-0.00629166
-0.00628499
-0.00623236
-0.0061319
-0.00598261
-0.0057845
-0.00553869
-0.0052476
-0.00491486
-0.00454447
-0.0041438
-0.00371945
-0.00327976
-0.002834
-0.00239208
-0.00196437
-0.00156139
-0.00119348
-0.000870515
-0.000601493
-0.000394246
-0.000255119
-0.000188705
-0.000197647
-0.000282507
-0.000441732
-0.0006717
-0.000966876
-0.00132004
-0.00172259
-0.00216497
-0.00263694
-0.0031281
-0.00362834
-0.00412805
-0.00461852
-0.00509218
-0.00554271
-0.00596516
-0.00635591
-0.00671266
-0.00703424
-0.00732053
-0.00757221
-0.00779065
-0.00797764
-0.00813527
-0.00826575
-0.00837129
-0.00845397
-0.00851567
-0.0085581
-0.00858282
-0.00859132
-0.0085855
-0.00856797
-0.00853916
-0.00849508
-3.47408e-05
-3.91435e-06
4.83859e-06
-2.29952e-06
-2.30409e-05
-5.74972e-05
-0.000105151
-0.000165025
-0.000236022
-0.000317045
-0.000407096
-0.00050537
-0.000611293
-0.000724538
-0.000845028
-0.0009729
-0.00110846
-0.00125212
-0.00140437
-0.0015657
-0.00173656
-0.00191735
-0.00210832
-0.00230959
-0.00252108
-0.00274253
-0.00297344
-0.00321301
-0.0034602
-0.00371361
-0.0039715
-0.00423176
-0.00449191
-0.00474905
-0.00499993
-0.00524095
-0.00546816
-0.0056774
-0.00586431
-0.00602445
-0.00615341
-0.00624696
-0.00630115
-0.00631248
-0.00627805
-0.00619572
-0.00606423
-0.00588335
-0.00565397
-0.0053784
-0.0050604
-0.00470237
-0.00431282
-0.00389823
-0.00346673
-0.00302755
-0.00259062
-0.00216637
-0.00176541
-0.00139824
-0.00107485
-0.000804428
-0.000594983
-0.000453035
-0.000383344
-0.000388691
-0.000469746
-0.000625017
-0.000850903
-0.00114183
-0.00149052
-0.00188822
-0.00232516
-0.00279134
-0.00327568
-0.00376824
-0.00425933
-0.0047402
-0.00520331
-0.00564246
-0.00605286
-0.0064311
-0.0067752
-0.00708419
-0.00735824
-0.00759833
-0.00780604
-0.0079834
-0.00813268
-0.00825625
-0.00835641
-0.00843531
-0.00849486
-0.00853667
-0.00856207
-0.00857209
-0.00856788
-0.00855087
-0.0085182
-0.00846039
-1.83195e-05
1.49267e-05
2.38425e-05
1.58775e-05
-5.81434e-06
-4.09193e-05
-8.86528e-05
-0.000147879
-0.00021742
-0.000296162
-0.000383142
-0.000477612
-0.000579077
-0.000687311
-0.000802342
-0.000924414
-0.00105394
-0.00119146
-0.00133757
-0.00149288
-0.00165798
-0.00183338
-0.0020195
-0.0022166
-0.00242479
-0.00264399
-0.00287387
-0.00311384
-0.00336303
-0.0036202
-0.00388376
-0.0041517
-0.00442158
-0.00469053
-0.00495524
-0.00521201
-0.00545676
-0.00568508
-0.00589238
-0.00607393
-0.00622501
-0.00634103
-0.00641772
-0.00645124
-0.00643837
-0.00637666
-0.00626457
-0.00610163
-0.00588857
-0.00562713
-0.00531983
-0.00497359
-0.00459244
-0.00418375
-0.00375594
-0.00331828
-0.00288081
-0.00245411
-0.00204896
-0.00167608
-0.00134572
-0.00106735
-0.000849272
-0.000698312
-0.00061952
-0.000615944
-0.000688475
-0.000835789
-0.00105438
-0.0013387
-0.00168139
-0.00207362
-0.00250544
-0.00296634
-0.00344545
-0.00393227
-0.00441695
-0.0048905
-0.00534532
-0.00577516
-0.00617527
-0.00654239
-0.00687457
-0.00717128
-0.0074329
-0.00766071
-0.00785662
-0.00802294
-0.00816222
-0.00827703
-0.00836988
-0.00844301
-0.00849838
-0.00853754
-0.00856159
-0.00857112
-0.0085666
-0.00854853
-0.00851154
-0.00844204
1.68855e-05
4.95262e-05
5.71042e-05
4.74161e-05
2.40155e-05
-1.24685e-05
-6.10175e-05
-0.000120328
-0.000189129
-0.000266277
-0.000350822
-0.000442068
-0.000539612
-0.000643343
-0.000753425
-0.00087025
-0.000994391
-0.00112655
-0.00126751
-0.00141807
-0.001579
-0.00175102
-0.00193474
-0.00213067
-0.00233914
-0.00256028
-0.002794
-0.00303991
-0.0032973
-0.00356508
-0.00384174
-0.0041253
-0.00441327
-0.00470268
-0.00499004
-0.00527139
-0.00554235
-0.00579816
-0.00603384
-0.00624424
-0.00642422
-0.00656879
-0.00667327
-0.00673346
-0.00674578
-0.00670749
-0.00661677
-0.00647295
-0.00627655
-0.00602924
-0.00573373
-0.00539544
-0.00501975
-0.00461377
-0.00418582
-0.00374523
-0.00330216
-0.00286733
-0.00245177
-0.00206646
-0.00172196
-0.00142812
-0.00119365
-0.00102579
-0.000930032
-0.000909835
-0.000966468
-0.00109892
-0.00130393
-0.00157609
-0.00190808
-0.002291
-0.00271476
-0.00316854
-0.00364121
-0.00412184
-0.00460057
-0.00506755
-0.00551522
-0.00593708
-0.00632825
-0.00668544
-0.00700683
-0.00729198
-0.00754156
-0.0077571
-0.00794082
-0.00809537
-0.0082236
-0.00832838
-0.00841243
-0.00847818
-0.00852767
-0.00856244
-0.00858344
-0.00859093
-0.00858488
-0.00856509
-0.00852452
-0.00844686
7.13062e-05
0.000100492
0.000105106
9.26184e-05
6.66139e-05
2.79576e-05
-2.21345e-05
-8.22264e-05
-0.000150971
-0.000227199
-0.000309979
-0.000398685
-0.000493021
-0.00059302
-0.000699012
-0.000811583
-0.000931522
-0.00105976
-0.00119732
-0.00134524
-0.00150457
-0.0016763
-0.00186133
-0.00206044
-0.00227423
-0.0025031
-0.0027472
-0.00300633
-0.00327991
-0.00356694
-0.00386588
-0.00417467
-0.00449065
-0.00481057
-0.00513061
-0.00544642
-0.00575313
-0.00604554
-0.00631813
-0.00656526
-0.00678133
-0.00696087
-0.00709879
-0.0071905
-0.00723213
-0.00722062
-0.00715393
-0.00703114
-0.00685259
-0.00661988
-0.00633577
-0.00600504
-0.00563336
-0.00522779
-0.00479663
-0.00434924
-0.00389586
-0.00344737
-0.003015
-0.00261003
-0.00224341
-0.00192542
-0.00166526
-0.00147074
-0.00134794
-0.00130091
-0.00133148
-0.00143916
-0.00162113
-0.0018723
-0.00218557
-0.0025521
-0.00296173
-0.00340345
-0.00386584
-0.00433763
-0.00480822
-0.00526782
-0.00570816
-0.00612239
-0.00650537
-0.00685364
-0.00716531
-0.00743987
-0.00767831
-0.00788222
-0.0080541
-0.00819691
-0.00831383
-0.00840801
-0.00848246
-0.00853982
-0.0085823
-0.00861149
-0.00862828
-0.00863275
-0.00862455
-0.00860301
-0.00856017
-0.00847833
0.000144704
0.000167829
0.000167885
0.000151476
0.00012195
8.03587e-05
2.80519e-05
-3.34591e-05
-0.000102786
-0.000178759
-0.000260498
-0.000347473
-0.000439526
-0.000536865
-0.000640035
-0.000749865
-0.000867414
-0.000993905
-0.00113067
-0.00127908
-0.00144051
-0.00161631
-0.00180772
-0.00201585
-0.00224161
-0.0024857
-0.00274844
-0.00302982
-0.0033293
-0.00364585
-0.0039778
-0.00432282
-0.00467794
-0.00503947
-0.0054031
-0.00576392
-0.0061165
-0.00645503
-0.00677345
-0.00706555
-0.00732523
-0.00754657
-0.00772407
-0.0078528
-0.00792857
-0.00794805
-0.00790898
-0.00781023
-0.00765192
-0.00743549
-0.00716367
-0.00684094
-0.00647286
-0.0060664
-0.00562978
-0.00517234
-0.00470435
-0.00423679
-0.00378109
-0.0033488
-0.00295129
-0.00259931
-0.00230268
-0.00206991
-0.00190781
-0.00182122
-0.00181278
-0.00188277
-0.00202902
-0.00224706
-0.00253019
-0.00286986
-0.00325601
-0.00367754
-0.00412282
-0.00458023
-0.00503862
-0.0054878
-0.00591888
-0.00632454
-0.00669918
-0.00703895
-0.00734174
-0.00760699
-0.00783529
-0.00802866
-0.0081897
-0.00832156
-0.00842769
-0.00851153
-0.00857638
-0.00862514
-0.00866019
-0.00868328
-0.00869536
-0.00869643
-0.00868601
-0.00866317
-0.00861965
-0.00853746
0.000236485
0.00025118
0.000245189
0.000223798
0.000189912
0.000144707
8.95872e-05
2.60777e-05
-4.4447e-05
-0.000120868
-0.000202398
-0.000288642
-0.000379621
-0.000475767
-0.000577888
-0.000687114
-0.000804838
-0.000932643
-0.00107224
-0.00122541
-0.00139395
-0.00157959
-0.00178398
-0.0020086
-0.00225469
-0.00252316
-0.00281454
-0.00312885
-0.00346551
-0.00382328
-0.00420021
-0.00459357
-0.00499986
-0.00541481
-0.00583348
-0.0062503
-0.00665917
-0.00705366
-0.00742709
-0.00777272
-0.00808394
-0.00835441
-0.00857825
-0.0087502
-0.00886578
-0.00892142
-0.0089146
-0.00884399
-0.00870944
-0.00851214
-0.0082548
-0.00794148
-0.00757756
-0.00716981
-0.00672628
-0.00625619
-0.00576974
-0.00527796
-0.0047924
-0.00432487
-0.00388711
-0.00349044
-0.00314534
-0.00286113
-0.00264554
-0.00250443
-0.00244146
-0.00245796
-0.00255276
-0.00272223
-0.00296045
-0.0032594
-0.00360935
-0.00399932
-0.00441759
-0.00485225
-0.0052917
-0.0057252
-0.00614321
-0.00653778
-0.00690269
-0.00723355
-0.00752776
-0.00778441
-0.008004
-0.00818831
-0.00834
-0.00846233
-0.00855893
-0.0086335
-0.00868956
-0.00873028
-0.00875827
-0.00877548
-0.00878297
-0.00878085
-0.00876859
-0.0087452
-0.0087026
-0.00862342
0.00034576
0.000349837
0.000336444
0.000309153
0.000270187
0.000220795
0.000162353
9.63112e-05
2.39574e-05
-5.36988e-05
-0.000136017
-0.00022279
-0.000314268
-0.000411164
-0.000514611
-0.000626102
-0.000747432
-0.000880618
-0.00102783
-0.00119132
-0.00137335
-0.00157612
-0.0018017
-0.00205193
-0.00232835
-0.00263204
-0.00296361
-0.00332298
-0.00370937
-0.00412119
-0.00455601
-0.00501051
-0.00548054
-0.00596112
-0.00644656
-0.00693056
-0.00740634
-0.0078668
-0.00830468
-0.00871271
-0.00908381
-0.00941125
-0.0096888
-0.0099109
-0.0100728
-0.0101706
-0.0102016
-0.0101642
-0.0100579
-0.00988364
-0.00964396
-0.00934246
-0.00898423
-0.00857572
-0.0081247
-0.00764015
-0.0071321
-0.00661149
-0.00608992
-0.0055794
-0.005092
-0.00463959
-0.00423336
-0.00388353
-0.0035989
-0.00338654
-0.00325141
-0.00319616
-0.00322097
-0.00332343
-0.00349872
-0.00373971
-0.00403733
-0.004381
-0.0047591
-0.00515958
-0.00557048
-0.00598049
-0.0063794
-0.0067585
-0.00711078
-0.00743112
-0.00771625
-0.0079647
-0.00817657
-0.00835324
-0.00849737
-0.00861205
-0.00870097
-0.00876798
-0.00881679
-0.00885079
-0.00887283
-0.00888505
-0.00888872
-0.0088841
-0.00887077
-0.00884777
-0.00880757
-0.0087341
0.000471288
0.000462696
0.000440697
0.000406741
0.000362144
0.000308103
0.000245897
0.000176801
0.000101932
2.21182e-05
-6.22106e-05
-0.000151096
-0.000245087
-0.000345238
-0.000453071
-0.000570517
-0.000699844
-0.000843577
-0.00100441
-0.00118513
-0.0013885
-0.00161722
-0.00187376
-0.0021603
-0.00247858
-0.00282976
-0.00321434
-0.00363203
-0.00408165
-0.00456107
-0.00506721
-0.00559603
-0.00614259
-0.0067011
-0.00726508
-0.00782748
-0.00838081
-0.00891734
-0.00942923
-0.00990874
-0.0103483
-0.010741
-0.01108
-0.0113596
-0.0115748
-0.0117214
-0.0117964
-0.0117979
-0.0117252
-0.0115787
-0.0113606
-0.0110742
-0.010724
-0.0103162
-0.00985814
-0.00935834
-0.00882658
-0.00827356
-0.0077108
-0.00715038
-0.00660464
-0.0060859
-0.00560608
-0.00517633
-0.00480662
-0.00450538
-0.0042791
-0.00413207
-0.00406613
-0.00408053
-0.00417194
-0.00433456
-0.00456038
-0.00483956
-0.00516093
-0.00551252
-0.00588214
-0.00625801
-0.00662923
-0.00698622
-0.00732109
-0.00762777
-0.00790212
-0.00814188
-0.00834649
-0.00851688
-0.00865503
-0.00876406
-0.0088475
-0.00890915
-0.00895282
-0.00898204
-0.00899984
-0.00900858
-0.00900973
-0.00900376
-0.0089904
-0.00896884
-0.00893234
-0.00886658
0.000611404
0.000588184
0.000556567
0.000515335
0.000464677
0.000405641
0.000339279
0.000266583
0.000188411
0.000105328
1.74775e-05
-7.55026e-05
-0.000174529
-0.000281072
-0.000397117
-0.000525105
-0.000667851
-0.000828452
-0.00101018
-0.0012164
-0.0014504
-0.00171534
-0.00201407
-0.002349
-0.00272193
-0.00313398
-0.00358537
-0.00407537
-0.00460224
-0.00516314
-0.00575419
-0.00637051
-0.00700628
-0.00765486
-0.00830895
-0.00896074
-0.00960207
-0.0102246
-0.0108199
-0.0113799
-0.0118966
-0.0123625
-0.0127708
-0.0131154
-0.013391
-0.013593
-0.0137183
-0.0137646
-0.0137309
-0.0136172
-0.0134252
-0.0131577
-0.0128188
-0.0124142
-0.0119506
-0.011436
-0.0108798
-0.0102924
-0.00968483
-0.00906924
-0.00845805
-0.00786391
-0.00729935
-0.00677641
-0.00630625
-0.00589874
-0.00556209
-0.00530248
-0.00512375
-0.00502719
-0.00501144
-0.00507252
-0.00520397
-0.00539719
-0.00564183
-0.00592636
-0.00623866
-0.00656658
-0.00689861
-0.00722429
-0.0075347
-0.00782268
-0.00808301
-0.00831236
-0.00850926
-0.00867383
-0.00880752
-0.00891286
-0.00899308
-0.00905182
-0.00909282
-0.00911964
-0.00913542
-0.00914266
-0.00914302
-0.00913719
-0.00912509
-0.00910606
-0.00907432
-0.00901755
0.000763874
0.000724246
0.000682099
0.000633143
0.000576136
0.000511838
0.000440933
0.000364024
0.000281605
0.000193891
0.000100656
1.13887e-06
-0.000106022
-0.00022279
-0.000351692
-0.000495751
-0.000658398
-0.000843353
-0.00105451
-0.00129579
-0.00157103
-0.00188376
-0.00223712
-0.00263359
-0.00307494
-0.00356197
-0.00409448
-0.00467111
-0.00528936
-0.00594555
-0.00663488
-0.00735153
-0.00808876
-0.00883905
-0.0095943
-0.0103459
-0.0110851
-0.011803
-0.0124906
-0.0131394
-0.0137411
-0.0142878
-0.0147726
-0.0151888
-0.0155311
-0.0157948
-0.0159762
-0.0160728
-0.0160832
-0.0160072
-0.0158458
-0.0156015
-0.0152779
-0.0148797
-0.0144132
-0.0138859
-0.0133063
-0.0126843
-0.0120307
-0.0113571
-0.0106759
-0.00999987
-0.00934193
-0.00871489
-0.00813097
-0.00760151
-0.00713647
-0.0067441
-0.0064305
-0.0061994
-0.00605187
-0.00598626
-0.00599826
-0.00608106
-0.00622571
-0.0064216
-0.00665702
-0.00691981
-0.00719795
-0.00748018
-0.0077565
-0.00801849
-0.00825964
-0.00847534
-0.0086629
-0.00882137
-0.00895132
-0.00905451
-0.00913363
-0.00919192
-0.00923286
-0.00925991
-0.00927617
-0.00928421
-0.00928583
-0.00928187
-0.00927244
-0.00925705
-0.00923091
-0.00918375
0.000925849
0.000868143
0.000814726
0.000757745
0.000694212
0.000624411
0.000548545
0.000466689
0.000378869
0.000284853
0.000183965
7.49539e-05
-4.4064e-05
-0.000175626
-0.000322878
-0.000489493
-0.000679566
-0.000897478
-0.00114774
-0.00143484
-0.00176303
-0.00213617
-0.00255749
-0.00302944
-0.00355347
-0.00412994
-0.00475797
-0.00543543
-0.00615888
-0.00692369
-0.00772404
-0.00855312
-0.00940324
-0.010266
-0.0111325
-0.0119934
-0.0128392
-0.0136606
-0.0144481
-0.0151927
-0.015886
-0.0165197
-0.0170865
-0.0175799
-0.017994
-0.018324
-0.0185661
-0.0187176
-0.0187766
-0.0187425
-0.0186162
-0.0183993
-0.0180949
-0.0177072
-0.0172417
-0.016705
-0.016105
-0.0154508
-0.0147525
-0.0140211
-0.0132687
-0.0125078
-0.0117516
-0.0110132
-0.0103058
-0.00964201
-0.00903344
-0.00849043
-0.00802155
-0.00763319
-0.0073293
-0.00711109
-0.006977
-0.00692268
-0.00694127
-0.0070237
-0.00715928
-0.00733621
-0.00754234
-0.00776575
-0.00799537
-0.00822148
-0.00843606
-0.00863298
-0.00880805
-0.00895894
-0.00908499
-0.00918695
-0.00926666
-0.00932672
-0.00937015
-0.00940009
-0.00941947
-0.0094308
-0.00943587
-0.00943565
-0.00943038
-0.00941971
-0.00939975
-0.00936225
0.00109374
0.00101645
0.000951185
0.000886023
0.00081582
0.000740287
0.000658956
0.000571247
0.000476606
0.000374261
0.000262992
0.000140981
5.73055e-06
-0.000145947
-0.000317884
-0.000514458
-0.000740463
-0.00100094
-0.001301
-0.00164561
-0.00203934
-0.00248621
-0.00298939
-0.00355104
-0.00417214
-0.00485235
-0.00558997
-0.00638187
-0.00722361
-0.00810944
-0.0090325
-0.00998493
-0.0109581
-0.0119426
-0.0129289
-0.0139068
-0.0148663
-0.0157975
-0.0166906
-0.0175361
-0.0183254
-0.01905
-0.0197025
-0.0202762
-0.0207652
-0.0211646
-0.0214704
-0.0216796
-0.0217903
-0.0218015
-0.0217136
-0.021528
-0.0212471
-0.0208743
-0.0204144
-0.0198731
-0.0192576
-0.0185759
-0.0178371
-0.0170516
-0.0162306
-0.0153863
-0.0145314
-0.0136794
-0.0128437
-0.012038
-0.0112754
-0.0105681
-0.00992699
-0.00936145
-0.00887849
-0.00848265
-0.00817571
-0.00795652
-0.00782104
-0.00776258
-0.00777217
-0.00783909
-0.00795151
-0.00809722
-0.00826427
-0.00844162
-0.00861966
-0.00879046
-0.00894806
-0.0090884
-0.00920928
-0.00931005
-0.00939142
-0.00945505
-0.00950324
-0.00953861
-0.00956367
-0.00958076
-0.00959155
-0.00959698
-0.00959734
-0.00959236
-0.00957899
-0.00955077
0.00126316
0.001165
0.00108749
0.00101402
0.000937076
0.000855534
0.0007681
0.000673405
0.000570213
0.000457115
0.000332257
0.000193165
3.66523e-05
-0.000141193
-0.000344946
-0.000579722
-0.000851019
-0.00116452
-0.00152584
-0.00194031
-0.0024127
-0.00294696
-0.003546
-0.00421148
-0.00494367
-0.00574136
-0.00660179
-0.00752076
-0.00849264
-0.00951055
-0.0105665
-0.0116515
-0.0127559
-0.0138696
-0.014982
-0.0160825
-0.0171603
-0.0182051
-0.0192067
-0.0201555
-0.0210425
-0.0218594
-0.0225985
-0.0232532
-0.0238177
-0.024287
-0.0246571
-0.0249251
-0.0250889
-0.0251474
-0.0251004
-0.0249492
-0.0246954
-0.024342
-0.0238928
-0.0233529
-0.0227281
-0.0220256
-0.0212534
-0.0204207
-0.0195379
-0.018616
-0.0176673
-0.0167048
-0.0157421
-0.0147931
-0.013872
-0.0129926
-0.012168
-0.0114102
-0.0107294
-0.0101339
-0.00962912
-0.00921788
-0.0088998
-0.00867143
-0.00852647
-0.00845612
-0.00844968
-0.00849521
-0.00858026
-0.00869268
-0.00882119
-0.00895597
-0.00908896
-0.00921404
-0.00932704
-0.00942559
-0.00950886
-0.00957725
-0.00963203
-0.00967502
-0.00970819
-0.00973339
-0.00975204
-0.00976495
-0.00977236
-0.009774
-0.00976746
-0.0097478
0.00142892
0.00130887
0.00121877
0.00113702
0.00105325
0.000965325
0.000870967
0.000767894
0.000654077
0.00052738
0.00038523
0.000224416
4.09853e-05
-0.000169755
-0.000413157
-0.000695085
-0.00102172
-0.00139929
-0.00183383
-0.00233088
-0.00289518
-0.00353042
-0.00423902
-0.0050219
-0.0058784
-0.00680623
-0.00780145
-0.00885862
-0.00997084
-0.01113
-0.0123269
-0.0135515
-0.0147931
-0.0160407
-0.017283
-0.0185086
-0.0197063
-0.0208654
-0.0219754
-0.0230267
-0.0240101
-0.0249174
-0.0257411
-0.0264747
-0.0271125
-0.0276497
-0.0280827
-0.0284084
-0.0286248
-0.0287307
-0.0287257
-0.0286107
-0.0283871
-0.0280571
-0.0276238
-0.0270914
-0.0264647
-0.0257497
-0.0249533
-0.0240833
-0.0231488
-0.0221596
-0.021127
-0.0200629
-0.0189806
-0.0178938
-0.016817
-0.0157651
-0.0147528
-0.0137945
-0.0129034
-0.0120913
-0.0113678
-0.0107401
-0.0102123
-0.00978497
-0.00945566
-0.00921857
-0.00906511
-0.00898449
-0.00896448
-0.00899217
-0.00905486
-0.00914073
-0.00923944
-0.00934244
-0.0094432
-0.00953716
-0.00962153
-0.00969507
-0.0097577
-0.00981011
-0.00985342
-0.00988885
-0.00991735
-0.00993945
-0.00995521
-0.00996427
-0.0099647
-0.00995275
0.00158511
0.00144227
0.00133948
0.00124949
0.00115877
0.00106395
0.000961631
0.000848492
0.000721618
0.000578057
0.000414433
0.000226726
1.01621e-05
-0.000240776
-0.000532232
-0.000870795
-0.00126325
-0.00171629
-0.00223619
-0.0028285
-0.00349772
-0.00424705
-0.00507814
-0.00599097
-0.00698373
-0.00805288
-0.00919314
-0.0103977
-0.0116583
-0.0129655
-0.014309
-0.0156774
-0.0170592
-0.0184424
-0.019815
-0.021165
-0.0224809
-0.0237516
-0.0249666
-0.0261162
-0.0271915
-0.0281843
-0.0290876
-0.0298951
-0.0306015
-0.0312024
-0.0316943
-0.0320744
-0.032341
-0.0324928
-0.0325293
-0.0324513
-0.0322598
-0.0319564
-0.0315438
-0.031025
-0.030404
-0.0296856
-0.0288754
-0.0279799
-0.0270064
-0.0259637
-0.0248612
-0.0237097
-0.0225212
-0.0213088
-0.0200867
-0.0188699
-0.0176741
-0.0165153
-0.0154093
-0.0143712
-0.0134146
-0.0125512
-0.0117901
-0.011137
-0.0105941
-0.0101599
-0.00982918
-0.00959352
-0.00944186
-0.00936134
-0.00933828
-0.00935902
-0.00941083
-0.00948247
-0.00956461
-0.00965002
-0.00973349
-0.00981165
-0.00988263
-0.00994567
-0.0100007
-0.0100482
-0.0100883
-0.0101211
-0.0101464
-0.0101636
-0.010171
-0.0101659
0.00172475
0.00155876
0.00144331
0.00134514
0.00124726
0.00114487
0.00103331
0.000908116
0.000765393
0.000601298
0.000411584
0.000191358
-6.50193e-05
-0.000363903
-0.000712215
-0.00111721
-0.00158617
-0.00212609
-0.0027433
-0.00344315
-0.00422965
-0.00510524
-0.00607059
-0.00712448
-0.00826377
-0.00948349
-0.0107769
-0.0121357
-0.0135501
-0.0150095
-0.016502
-0.0180155
-0.0195371
-0.0210543
-0.0225542
-0.0240245
-0.0254534
-0.0268297
-0.0281429
-0.0293836
-0.0305432
-0.0316139
-0.0325892
-0.0334632
-0.0342312
-0.0348892
-0.0354342
-0.0358638
-0.0361764
-0.036371
-0.0364469
-0.0364052
-0.0362465
-0.035972
-0.0355836
-0.0350838
-0.0344757
-0.0337629
-0.0329497
-0.0320412
-0.0310432
-0.0299626
-0.0288074
-0.0275864
-0.0263102
-0.0249904
-0.0236401
-0.0222737
-0.0209071
-0.019557
-0.0182408
-0.0169763
-0.0157806
-0.0146699
-0.0136583
-0.0127571
-0.0119742
-0.0113136
-0.0107749
-0.0103534
-0.0100407
-0.00982493
-0.00969242
-0.00962815
-0.00961711
-0.00964522
-0.00969998
-0.00977099
-0.00985007
-0.00993117
-0.0100102
-0.0100844
-0.0101523
-0.0102132
-0.0102663
-0.0103111
-0.0103469
-0.0103729
-0.0103876
-0.0103886
0.00184053
0.00165126
0.00152328
0.00141699
0.00131163
0.00120081
0.00107849
0.000938946
0.000777251
0.000588595
0.000367805
0.000109074
-0.000194128
-0.000548983
-0.000963136
-0.00144441
-0.00200045
-0.00263836
-0.00336432
-0.00418321
-0.00509829
-0.006111
-0.00722078
-0.00842501
-0.00971903
-0.0110963
-0.0125484
-0.0140654
-0.0156363
-0.0172487
-0.0188897
-0.0205459
-0.0222037
-0.0238497
-0.0254705
-0.0270537
-0.0285872
-0.03006
-0.0314619
-0.0327839
-0.0340178
-0.0351565
-0.0361941
-0.0371255
-0.0379464
-0.0386535
-0.0392442
-0.0397168
-0.04007
-0.0403029
-0.0404149
-0.040408
-0.0402814
-0.0400366
-0.0396749
-0.0391984
-0.0386092
-0.03791
-0.0371039
-0.0361946
-0.0351864
-0.0340845
-0.0328949
-0.0316247
-0.0302823
-0.0288774
-0.0274214
-0.0259275
-0.0244105
-0.022887
-0.0213749
-0.0198935
-0.0184628
-0.0171025
-0.0158316
-0.0146673
-0.0136236
-0.0127109
-0.011935
-0.0112966
-0.0107914
-0.0104106
-0.0101414
-0.00996844
-0.00987494
-0.00984404
-0.00985985
-0.00990835
-0.00997776
-0.0100588
-0.0101444
-0.0102297
-0.010311
-0.0103862
-0.0104534
-0.0105113
-0.0105586
-0.0105941
-0.0106161
-0.0106226
0.00192445
0.00171214
0.00157188
0.0014575
0.00134422
0.00122393
0.00108906
0.00093261
0.000748529
0.000531
0.000273878
-2.95819e-05
-0.000386793
-0.000805724
-0.00129466
-0.00186185
-0.00251514
-0.00326153
-0.00410677
-0.00505504
-0.00610859
-0.00726761
-0.00853007
-0.00989174
-0.0113463
-0.0128853
-0.0144989
-0.0161753
-0.0179019
-0.0196651
-0.0214505
-0.0232439
-0.0250308
-0.0267972
-0.0285296
-0.0302152
-0.0318423
-0.0334001
-0.0348789
-0.0362704
-0.0375669
-0.0387624
-0.0398514
-0.0408297
-0.0416938
-0.0424411
-0.0430696
-0.043578
-0.0439653
-0.0442316
-0.0443773
-0.0444007
-0.0443043
-0.0440886
-0.0437548
-0.0433043
-0.0427385
-0.0420594
-0.041269
-0.0403698
-0.0393646
-0.0382571
-0.0370512
-0.0357522
-0.0343662
-0.0329008
-0.0313652
-0.0297703
-0.0281294
-0.0264576
-0.0247723
-0.0230933
-0.0214418
-0.0198403
-0.0183119
-0.0168787
-0.0155612
-0.0143769
-0.0133387
-0.0124543
-0.0117255
-0.0111479
-0.0107119
-0.010403
-0.0102036
-0.0100945
-0.0100566
-0.0100718
-0.0101242
-0.0102005
-0.0102902
-0.0103854
-0.0104802
-0.0105702
-0.0106523
-0.0107242
-0.0107837
-0.0108292
-0.0108588
-0.0108707
0.00196815
0.00173341
0.00158125
0.00145875
0.00133698
0.00120597
0.00105656
0.00088041
0.000670308
0.000419394
0.000120528
-0.000233973
-0.000652371
-0.00114335
-0.00171571
-0.00237798
-0.00313797
-0.00400235
-0.00497621
-0.00606273
-0.0072629
-0.00857541
-0.00999656
-0.0115203
-0.0131385
-0.0148408
-0.0166155
-0.0184493
-0.0203279
-0.0222362
-0.0241589
-0.0260808
-0.0279868
-0.0298625
-0.0316944
-0.0334698
-0.0351775
-0.0368071
-0.0383498
-0.0397978
-0.0411445
-0.0423847
-0.0435138
-0.0445284
-0.0454259
-0.0462043
-0.0468622
-0.0473989
-0.047814
-0.0481077
-0.0482807
-0.0483322
-0.0482637
-0.0480759
-0.0477699
-0.0473466
-0.0468071
-0.0461527
-0.0453845
-0.0445041
-0.043513
-0.0424134
-0.0412076
-0.0398988
-0.0384911
-0.0369897
-0.0354012
-0.0337342
-0.0319993
-0.0302095
-0.0283807
-0.0265314
-0.024683
-0.0228592
-0.0210856
-0.0193888
-0.0177948
-0.016328
-0.0150092
-0.0138543
-0.0128728
-0.012067
-0.0114323
-0.0109572
-0.0106248
-0.0104147
-0.0103046
-0.0102725
-0.010298
-0.010363
-0.010453
-0.010556
-0.0106633
-0.0107682
-0.0108658
-0.0109523
-0.0110248
-0.0110809
-0.0111185
-0.011136
0.00196312
0.0017069
0.0015433
0.0014126
0.00128166
0.0011385
0.00097239
0.000773574
0.000533677
0.000244774
-0.000101268
-0.000513046
-0.000999611
-0.00157025
-0.00223414
-0.00299988
-0.00387505
-0.00486569
-0.00597599
-0.00720786
-0.0085608
-0.0100318
-0.0116152
-0.013303
-0.0150851
-0.0169493
-0.0188819
-0.0208679
-0.0228915
-0.0249364
-0.0269864
-0.0290254
-0.031038
-0.0330099
-0.0349274
-0.0367786
-0.0385527
-0.0402402
-0.0418331
-0.0433245
-0.044709
-0.045982
-0.0471402
-0.0481809
-0.0491022
-0.0499031
-0.0505826
-0.0511407
-0.0515773
-0.0518929
-0.0520883
-0.0521636
-0.0521198
-0.0519578
-0.0516783
-0.0512822
-0.0507703
-0.0501432
-0.0494016
-0.0485461
-0.0475775
-0.0464965
-0.0453042
-0.044002
-0.0425919
-0.0410769
-0.0394612
-0.0377504
-0.0359524
-0.0340774
-0.0321385
-0.0301521
-0.0281382
-0.0261201
-0.0241245
-0.0221804
-0.0203183
-0.0185688
-0.0169605
-0.0155177
-0.0142593
-0.0131963
-0.0123311
-0.0116578
-0.0111623
-0.0108244
-0.01062
-0.0105233
-0.010509
-0.0105539
-0.0106384
-0.0107461
-0.0108644
-0.0109837
-0.0110968
-0.0111985
-0.0112846
-0.0113521
-0.0113984
-0.0114219
0.00190086
0.00162451
0.00145
0.00131098
0.00117003
0.0010132
0.000828072
0.000603533
0.000330024
-1.44139e-06
-0.000399968
-0.000875011
-0.00143632
-0.00209367
-0.00285641
-0.00373301
-0.00473055
-0.00585423
-0.00710704
-0.00848939
-0.00999904
-0.011631
-0.0133776
-0.0152288
-0.0171723
-0.019194
-0.0212783
-0.0234085
-0.0255675
-0.027738
-0.0299028
-0.0320455
-0.0341507
-0.036204
-0.0381926
-0.0401049
-0.0419309
-0.0436624
-0.0452921
-0.0468144
-0.0482248
-0.0495198
-0.0506969
-0.0517544
-0.0526912
-0.0535067
-0.0542008
-0.0547739
-0.0552263
-0.0555587
-0.0557721
-0.0558671
-0.0558447
-0.0557056
-0.0554507
-0.0550806
-0.0545959
-0.053997
-0.0532841
-0.0524574
-0.0515167
-0.050462
-0.0492931
-0.0480101
-0.0466134
-0.0451038
-0.0434832
-0.0417546
-0.0399227
-0.0379947
-0.0359803
-0.033893
-0.0317499
-0.0295724
-0.0273864
-0.0252216
-0.0231113
-0.0210905
-0.0191945
-0.0174563
-0.0159045
-0.0145601
-0.0134352
-0.0125317
-0.011841
-0.0113456
-0.011021
-0.0108385
-0.0107683
-0.0107816
-0.0108529
-0.0109606
-0.0110874
-0.01122
-0.0113486
-0.0114658
-0.0115663
-0.0116458
-0.0117016
-0.0117321
0.00177323
0.00147838
0.0012936
0.00114606
0.000994206
0.000822041
0.000615542
0.000362211
5.13341e-05
-0.00032711
-0.000783152
-0.00132703
-0.00196908
-0.00271939
-0.0035873
-0.00458092
-0.00570658
-0.00696838
-0.00836784
-0.00990367
-0.0115716
-0.0133647
-0.0152729
-0.017284
-0.0193837
-0.0215558
-0.0237829
-0.0260469
-0.0283294
-0.0306122
-0.0328779
-0.0351096
-0.0372923
-0.039412
-0.0414566
-0.0434154
-0.0452796
-0.0470418
-0.0486961
-0.0502378
-0.0516636
-0.052971
-0.0541583
-0.0552246
-0.0561696
-0.0569933
-0.0576962
-0.0582788
-0.0587421
-0.059087
-0.0593144
-0.0594254
-0.0594209
-0.0593019
-0.059069
-0.0587229
-0.0582641
-0.0576928
-0.0570089
-0.0562123
-0.0553024
-0.0542784
-0.0531395
-0.0518846
-0.0505128
-0.0490233
-0.0474159
-0.0456912
-0.0438511
-0.0418995
-0.0398428
-0.0376905
-0.0354562
-0.033158
-0.0308193
-0.0284687
-0.0261397
-0.0238701
-0.0217001
-0.0196702
-0.0178181
-0.0161761
-0.0147673
-0.0136039
-0.012686
-0.0120012
-0.0115272
-0.0112342
-0.0110884
-0.0110554
-0.0111035
-0.0112048
-0.0113365
-0.0114808
-0.0116244
-0.0117574
-0.0118728
-0.0119653
-0.0120315
-0.0120703
0.00157259
0.00126121
0.00106683
0.000910549
0.000746818
0.000557642
0.000327411
4.22995e-05
-0.000309528
-0.000739082
-0.00125725
-0.00187496
-0.00260298
-0.00345153
-0.00442975
-0.00554513
-0.00680303
-0.00820617
-0.0097544
-0.0114445
-0.01327
-0.0152217
-0.0172874