/*--------------------------------*- C++ -*----------------------------------*\
  =========                 |
  \\      /  F ield         | OpenFOAM: The Open Source CFD Toolbox
   \\    /   O peration     | Website:  https://openfoam.org
    \\  /    A nd           | Version:  9
     \\/     M anipulation  |
\*---------------------------------------------------------------------------*/
FoamFile
{
    format      ascii;
    class       surfaceScalarField;
    location    "3.25";
    object      phi;
}
// * * * * * * * * * * * * * * * * * * * * * * * * * * * * * * * * * * * * * //

dimensions      [0 3 -1 0 0 0 0];

internalField   nonuniform List<scalar> 
19800
(
7.47832e-11
-7.47375e-11
9.41605e-10
-8.66824e-10
2.48293e-09
-1.54133e-09
4.40851e-09
-1.92558e-09
6.47415e-09
-2.06564e-09
8.49622e-09
-2.02206e-09
1.03446e-08
-1.84841e-09
1.19336e-08
-1.58893e-09
1.32119e-08
-1.27833e-09
1.41546e-08
-9.42716e-10
1.47555e-08
-6.00858e-10
1.50207e-08
-2.6517e-10
1.49633e-08
5.73467e-11
1.45988e-08
3.64532e-10
1.3941e-08
6.57754e-10
1.29999e-08
9.41126e-10
1.17793e-08
1.22057e-09
1.02765e-08
1.50284e-09
8.4817e-09
1.79479e-09
6.37905e-09
2.10266e-09
3.94744e-09
2.43161e-09
1.16195e-09
2.78549e-09
-2.00462e-09
3.16657e-09
-5.58023e-09
3.57561e-09
-9.59219e-09
4.01195e-09
-1.40658e-08
4.47357e-09
-1.9023e-08
4.95723e-09
-2.44815e-08
5.45854e-09
-3.04536e-08
5.97206e-09
-3.69449e-08
6.49131e-09
-4.39537e-08
7.0088e-09
-5.14698e-08
7.51608e-09
-5.94735e-08
8.00377e-09
-6.79352e-08
8.46168e-09
-7.68141e-08
8.8789e-09
-8.60581e-08
9.24397e-09
-9.56032e-08
9.5451e-09
-1.05374e-07
9.77039e-09
-1.15282e-07
9.90807e-09
-1.25228e-07
9.94682e-09
-1.35104e-07
9.87604e-09
-1.44791e-07
9.68618e-09
-1.5416e-07
9.36903e-09
-1.63078e-07
8.91801e-09
-1.71406e-07
8.32849e-09
-1.79004e-07
7.59805e-09
-1.85731e-07
6.72673e-09
-1.91448e-07
5.71729e-09
-1.96024e-07
4.57561e-09
-1.99335e-07
3.31131e-09
-2.01272e-07
1.93711e-09
-2.01743e-07
4.7113e-10
-2.00649e-07
-1.09424e-09
-1.97951e-07
-2.69774e-09
-1.93613e-07
-4.33808e-09
-1.87629e-07
-5.98395e-09
-1.80023e-07
-7.60612e-09
-1.70849e-07
-9.1739e-09
-1.60194e-07
-1.06557e-08
-1.48174e-07
-1.20197e-08
-1.34939e-07
-1.32351e-08
-1.20666e-07
-1.42728e-08
-1.05559e-07
-1.51067e-08
-8.98446e-08
-1.57149e-08
-7.37644e-08
-1.60802e-08
-5.75726e-08
-1.61918e-08
-4.15273e-08
-1.60453e-08
-2.58836e-08
-1.56437e-08
-1.08862e-08
-1.49974e-08
3.23836e-09
-1.41246e-08
1.6289e-08
-1.30506e-08
2.80926e-08
-1.18036e-08
3.85133e-08
-1.04207e-08
4.74532e-08
-8.9399e-09
5.48555e-08
-7.40222e-09
6.0703e-08
-5.84755e-09
6.50174e-08
-4.31437e-09
6.78555e-08
-2.83813e-09
6.93051e-08
-1.44954e-09
6.94788e-08
-1.73751e-10
6.85085e-08
9.70292e-10
6.65384e-08
1.97012e-09
6.37187e-08
2.81974e-09
6.01997e-08
3.51892e-09
5.61269e-08
4.07279e-09
5.16361e-08
4.49084e-09
4.68503e-08
4.78578e-09
4.1878e-08
4.97229e-09
3.68125e-08
5.06551e-09
3.17332e-08
5.07932e-09
2.67089e-08
5.02432e-09
2.18034e-08
4.90552e-09
1.70837e-08
4.71965e-09
1.26314e-08
4.45234e-09
8.55586e-09
4.07553e-09
5.00883e-09
3.54703e-09
2.19202e-09
2.81682e-09
3.43674e-10
1.84835e-09
-3.43085e-10
6.8676e-10
-3.43083e-10
8.64446e-10
-9.39177e-10
3.3422e-09
-3.34458e-09
7.00561e-09
-5.20473e-09
1.13719e-08
-6.29183e-09
1.59854e-08
-6.67917e-09
2.04644e-08
-6.50113e-09
2.45134e-08
-5.89731e-09
2.79186e-08
-4.99423e-09
3.0538e-08
-3.89775e-09
3.2287e-08
-2.69164e-09
3.31246e-08
-1.4385e-09
3.30401e-08
-1.80714e-10
3.20427e-08
1.05472e-09
3.0148e-08
2.25929e-09
2.73718e-08
3.43399e-09
2.37229e-08
4.59005e-09
1.91988e-08
5.74466e-09
1.37835e-08
6.91811e-09
7.44723e-09
8.13104e-09
1.47639e-10
9.40225e-09
-8.16773e-09
1.0747e-08
-1.75579e-08
1.21756e-08
-2.80847e-08
1.36934e-08
-3.9809e-08
1.53e-08
-5.27868e-08
1.69898e-08
-6.70654e-08
1.87522e-08
-8.26801e-08
2.05719e-08
-9.9651e-08
2.24294e-08
-1.1798e-07
2.43012e-08
-1.37649e-07
2.616e-08
-1.58615e-07
2.79753e-08
-1.80813e-07
2.97134e-08
-2.04147e-07
3.13381e-08
-2.28496e-07
3.2811e-08
-2.5371e-07
3.40922e-08
-2.79607e-07
3.51414e-08
-3.0598e-07
3.59181e-08
-3.32593e-07
3.63833e-08
-3.59185e-07
3.64999e-08
-3.85472e-07
3.62341e-08
-4.11152e-07
3.55559e-08
-4.35907e-07
3.44407e-08
-4.59407e-07
3.28696e-08
-4.8132e-07
3.08305e-08
-5.0131e-07
2.83185e-08
-5.19049e-07
2.53369e-08
-5.34219e-07
2.18974e-08
-5.46522e-07
1.80202e-08
-5.55682e-07
1.37357e-08
-5.61455e-07
9.08422e-09
-5.63634e-07
4.11554e-09
-5.62061e-07
-1.10089e-09
-5.5659e-07
-6.56549e-09
-5.4716e-07
-1.21283e-08
-5.33761e-07
-1.77367e-08
-5.1644e-07
-2.3305e-08
-4.95304e-07
-2.8742e-08
-4.70524e-07
-3.39536e-08
-4.42336e-07
-3.88445e-08
-4.11035e-07
-4.33203e-08
-3.7698e-07
-4.72904e-08
-3.40582e-07
-5.06701e-08
-3.02305e-07
-5.33837e-08
-2.62653e-07
-5.53674e-08
-2.22161e-07
-5.65716e-08
-1.81389e-07
-5.69641e-08
-1.40903e-07
-5.65314e-08
-1.01266e-07
-5.52805e-08
-6.30234e-08
-5.32401e-08
-2.66881e-08
-5.04599e-08
7.27136e-09
-4.70101e-08
3.84471e-08
-4.29794e-08
6.64949e-08
-3.84685e-08
9.11496e-08
-3.35946e-08
1.12229e-07
-2.84813e-08
1.29634e-07
-2.32531e-08
1.43352e-07
-1.80326e-08
1.53451e-07
-1.29363e-08
1.6007e-07
-8.06883e-09
1.63416e-07
-3.5201e-09
1.63749e-07
6.3719e-10
1.61369e-07
4.35036e-09
1.56603e-07
7.58586e-09
1.49793e-07
1.03294e-08
1.41281e-07
1.25844e-08
1.31402e-07
1.43698e-08
1.20471e-07
1.57166e-08
1.0878e-07
1.66637e-08
9.65923e-08
1.7253e-08
8.41476e-08
1.75241e-08
7.16646e-08
1.75073e-08
5.93533e-08
1.72169e-08
4.74292e-08
1.66437e-08
3.61328e-08
1.57488e-08
2.57485e-08
1.44598e-08
1.6619e-08
1.26765e-08
9.14108e-09
1.02948e-08
3.72669e-09
7.26273e-09
7.11631e-10
3.70182e-09
3.68547e-10
1.54576e-09
-2.48495e-09
5.22431e-09
-7.02311e-09
1.03175e-08
-1.02979e-08
1.61831e-08
-1.21575e-08
2.22421e-08
-1.27382e-08
2.80024e-08
-1.22614e-08
3.30704e-08
-1.09654e-08
3.71495e-08
-9.07332e-09
4.003e-08
-6.77816e-09
4.15751e-08
-4.2368e-09
4.17056e-08
-1.56894e-09
4.03835e-08
1.14134e-09
3.75958e-08
3.84243e-09
3.33431e-08
6.51192e-09
2.76268e-08
9.15033e-09
2.04407e-08
1.17761e-08
1.17659e-08
1.44195e-08
1.56728e-09
1.71167e-08
-1.02062e-08
1.99045e-08
-2.36196e-08
2.28157e-08
-3.87484e-08
2.58757e-08
-5.5673e-08
2.91002e-08
-7.44735e-08
3.24938e-08
-9.52232e-08
3.60496e-08
-1.17983e-07
3.97495e-08
-1.42795e-07
4.35645e-08
-1.69679e-07
4.74561e-08
-1.98627e-07
5.13766e-08
-2.29596e-07
5.52701e-08
-2.62509e-07
5.90736e-08
-2.97251e-07
6.27176e-08
-3.33666e-07
6.61275e-08
-3.71552e-07
6.9225e-08
-4.1067e-07
7.1929e-08
-4.50736e-07
7.41581e-08
-4.91427e-07
7.58317e-08
-5.32381e-07
7.68727e-08
-5.73207e-07
7.72089e-08
-6.13482e-07
7.67752e-08
-6.52764e-07
7.55157e-08
-6.90593e-07
7.33849e-08
-7.26502e-07
7.03497e-08
-7.60022e-07
6.63902e-08
-7.90693e-07
6.1501e-08
-8.18066e-07
5.56915e-08
-8.41716e-07
4.89869e-08
-8.61247e-07
4.14282e-08
-8.76298e-07
3.30721e-08
-8.86554e-07
2.39913e-08
-8.91747e-07
1.42766e-08
-8.91683e-07
4.05186e-09
-8.86152e-07
-6.63195e-09
-8.75111e-07
-1.76065e-08
-8.58521e-07
-2.87185e-08
-8.3643e-07
-3.98271e-08
-8.0896e-07
-5.0775e-08
-7.76305e-07
-6.13973e-08
-7.38733e-07
-7.15253e-08
-6.96588e-07
-8.09899e-08
-6.50283e-07
-8.9625e-08
-6.00302e-07
-9.72713e-08
-5.47192e-07
-1.03781e-07
-4.91555e-07
-1.09021e-07
-4.34043e-07
-1.12879e-07
-3.75348e-07
-1.15267e-07
-3.16186e-07
-1.16126e-07
-2.5729e-07
-1.15428e-07
-1.9939e-07
-1.13181e-07
-1.432e-07
-1.09429e-07
-8.94052e-08
-1.04255e-07
-3.86397e-08
-9.77756e-08
8.52297e-09
-9.01421e-08
5.15906e-08
-8.15362e-08
9.01499e-08
-7.21538e-08
1.23896e-07
-6.22278e-08
1.52625e-07
-5.19815e-08
1.76237e-07
-4.16453e-08
1.94744e-07
-3.1443e-08
2.08256e-07
-2.1581e-08
2.16979e-07
-1.22425e-08
2.21199e-07
-3.58263e-09
2.21272e-07
4.27706e-09
2.17605e-07
1.12527e-08
2.10642e-07
1.72923e-08
2.00846e-07
2.23809e-08
1.88682e-07
2.65338e-08
1.74607e-07
2.97916e-08
1.59057e-07
3.22129e-08
1.42445e-07
3.38655e-08
1.25154e-07
3.48153e-08
1.07546e-07
3.51148e-08
8.99731e-08
3.47899e-08
7.27892e-08
3.38276e-08
5.63718e-08
3.21662e-08
4.11389e-08
2.96928e-08
2.75604e-08
2.6255e-08
1.61536e-08
2.17015e-08
7.4529e-09
1.59635e-08
1.94226e-09
9.21247e-09
2.3108e-09
1.95248e-09
-4.43742e-09
6.37126e-09
-1.14419e-08
1.22739e-08
-1.62005e-08
1.88712e-08
-1.87548e-08
2.5492e-08
-1.93589e-08
3.15762e-08
-1.83456e-08
3.6673e-08
-1.60622e-08
4.04348e-08
-1.28351e-08
4.26065e-08
-8.94986e-09
4.30113e-08
-4.64167e-09
4.15349e-08
-9.2522e-11
3.81082e-08
4.56811e-09
3.2691e-08
9.25958e-09
2.52584e-08
1.39445e-08
1.57877e-08
1.8621e-08
4.24955e-09
2.33143e-08
-9.39807e-09
2.80671e-08
-2.52123e-08
3.2931e-08
-4.3265e-08
3.79572e-08
-6.36397e-08
4.31903e-08
-8.64257e-08
4.86618e-08
-1.11712e-07
5.43867e-08
-1.3958e-07
6.03617e-08
-1.70094e-07
6.65638e-08
-2.03296e-07
7.29513e-08
-2.39196e-07
7.94647e-08
-2.77768e-07
8.60281e-08
-3.18943e-07
9.25511e-08
-3.62603e-07
9.89305e-08
-4.08582e-07
1.05052e-07
-4.56659e-07
1.10795e-07
-5.0656e-07
1.16029e-07
-5.57959e-07
1.20624e-07
-6.10477e-07
1.24447e-07
-6.6369e-07
1.27371e-07
-7.1713e-07
1.29272e-07
-7.70295e-07
1.30038e-07
-8.22654e-07
1.29568e-07
-8.73658e-07
1.27779e-07
-9.22747e-07
1.24604e-07
-9.69356e-07
1.19995e-07
-1.01293e-06
1.13927e-07
-1.05294e-06
1.06396e-07
-1.08886e-06
9.74227e-08
-1.12022e-06
8.70481e-08
-1.14657e-06
7.53369e-08
-1.16752e-06
6.23758e-08
-1.18272e-06
4.82729e-08
-1.19188e-06
3.3156e-08
-1.19477e-06
1.71669e-08
-1.19128e-06
5.63822e-10
-1.1812e-06
-1.67159e-08
-1.16457e-06
-3.42371e-08
-1.14141e-06
-5.18732e-08
-1.11184e-06
-6.9399e-08
-1.07603e-06
-8.65827e-08
-1.03425e-06
-1.03186e-07
-9.86804e-07
-1.18967e-07
-9.34108e-07
-1.33686e-07
-8.76629e-07
-1.47104e-07
-8.14903e-07
-1.58996e-07
-7.49534e-07
-1.69151e-07
-6.81179e-07
-1.77376e-07
-6.1055e-07
-1.83508e-07
-5.384e-07
-1.87417e-07
-4.65515e-07
-1.8901e-07
-3.92702e-07
-1.88241e-07
-3.20774e-07
-1.85109e-07
-2.50537e-07
-1.79667e-07
-1.82772e-07
-1.7202e-07
-1.18222e-07
-1.62326e-07
-5.75722e-08
-1.50792e-07
-1.43966e-09
-1.37669e-07
4.96604e-08
-1.23254e-07
9.52885e-08
-1.07856e-07
1.35127e-07
-9.18198e-08
1.68971e-07
-7.54895e-08
1.96736e-07
-5.92078e-08
2.18452e-07
-4.32975e-08
2.34264e-07
-2.80546e-08
2.44419e-07
-1.37373e-08
2.49258e-07
-5.61968e-10
2.49193e-07
1.13174e-08
2.44702e-07
2.17831e-08
2.36302e-07
3.07811e-08
2.24534e-07
3.83024e-08
2.09945e-07
4.43799e-08
1.9308e-07
4.90781e-08
1.74465e-07
5.24803e-08
1.54608e-07
5.46724e-08
1.33998e-07
5.57256e-08
1.1311e-07
5.56775e-08
9.24232e-08
5.45143e-08
7.24314e-08
5.2158e-08
5.36613e-08
4.84629e-08
3.66847e-08
4.32316e-08
2.21244e-08
3.62618e-08
1.0652e-08
2.74358e-08
2.99069e-09
1.68738e-08
5.30149e-09
2.1284e-09
-6.56583e-09
6.84189e-09
-1.61554e-08
1.29718e-08
-2.23304e-08
1.96115e-08
-2.53945e-08
2.60206e-08
-2.57681e-08
3.15954e-08
-2.39204e-08
3.58522e-08
-2.0319e-08
3.84141e-08
-1.53971e-08
3.89973e-08
-9.53304e-09
3.73958e-08
-3.04019e-09
3.34655e-08
3.83781e-09
2.71073e-08
1.09263e-08
1.82513e-08
1.81155e-08
6.84281e-09
2.5353e-08
-7.16994e-09
3.26338e-08
-2.3844e-08
3.99883e-08
-4.32468e-08
4.74699e-08
-6.54578e-08
5.5142e-08
-9.05663e-08
6.30658e-08
-1.18667e-07
7.12908e-08
-1.49852e-07
7.98469e-08
-1.84204e-07
8.87386e-08
-2.21785e-07
9.79429e-08
-2.62629e-07
1.07408e-07
-3.06733e-07
1.17055e-07
-3.54046e-07
1.26778e-07
-4.04467e-07
1.36449e-07
-4.57837e-07
1.4592e-07
-5.13934e-07
1.55028e-07
-5.72475e-07
1.63594e-07
-6.33113e-07
1.71433e-07
-6.95442e-07
1.78358e-07
-7.58996e-07
1.84178e-07
-8.23262e-07
1.88713e-07
-8.87682e-07
1.91791e-07
-9.51665e-07
1.93255e-07
-1.0146e-06
1.92969e-07
-1.07585e-06
1.90821e-07
-1.13479e-06
1.86723e-07
-1.19081e-06
1.80618e-07
-1.24329e-06
1.72477e-07
-1.29166e-06
1.62302e-07
-1.33539e-06
1.50126e-07
-1.37398e-06
1.36008e-07
-1.40697e-06
1.2004e-07
-1.43397e-06
1.02337e-07
-1.45464e-06
8.30418e-08
-1.46868e-06
6.23185e-08
-1.47588e-06
4.03552e-08
-1.47608e-06
1.73651e-08
-1.4691e-06
-6.41171e-09
-1.45501e-06
-3.08074e-08
-1.43377e-06
-5.54838e-08
-1.40545e-06
-8.0186e-08
-1.37022e-06
-1.04632e-07
-1.32828e-06
-1.28525e-07
-1.2799e-06
-1.51562e-07
-1.22543e-06
-1.73436e-07
-1.16528e-06
-1.9384e-07
-1.09991e-06
-2.12471e-07
-1.02987e-06
-2.29037e-07
-9.55758e-07
-2.43264e-07
-8.78231e-07
-2.54902e-07
-7.98007e-07
-2.63732e-07
-7.1585e-07
-2.69574e-07
-6.32562e-07
-2.72298e-07
-5.48978e-07
-2.71825e-07
-4.65949e-07
-2.68138e-07
-3.84329e-07
-2.61287e-07
-3.04962e-07
-2.51386e-07
-2.28665e-07
-2.38623e-07
-1.5621e-07
-2.23247e-07
-8.83039e-08
-2.05574e-07
-2.55853e-08
-1.85972e-07
3.14111e-08
-1.64852e-07
8.225e-08
-1.42659e-07
1.26606e-07
-1.19845e-07
1.64285e-07
-9.68869e-08
1.95212e-07
-7.42248e-08
2.19437e-07
-5.22796e-08
2.37129e-07
-3.14286e-08
2.48562e-07
-1.19951e-08
2.54117e-07
5.7625e-09
2.54247e-07
2.16529e-08
2.49475e-07
3.55529e-08
2.4037e-07
4.74076e-08
2.27529e-07
5.72206e-08
2.11564e-07
6.50434e-08
1.93086e-07
7.09587e-08
1.72698e-07
7.50601e-08
1.50994e-07
7.74298e-08
1.28558e-07
7.81134e-08
1.05975e-07
7.70974e-08
8.38409e-08
7.42919e-08
6.27798e-08
6.95241e-08
4.34585e-08
6.25528e-08
2.66082e-08
5.31122e-08
1.30515e-08
4.09925e-08
3.75728e-09
2.6168e-08
9.05878e-09
2.1236e-09
-8.68942e-09
6.73364e-09
-2.07655e-08
1.25558e-08
-2.81525e-08
1.86079e-08
-3.14466e-08
2.41062e-08
-3.12663e-08
2.84227e-08
-2.82369e-08
3.10585e-08
-2.29548e-08
3.16223e-08
-1.59609e-08
2.98139e-08
-7.72464e-09
2.5407e-08
1.36669e-09
1.82333e-08
1.10116e-08
8.16609e-09
2.09935e-08
-4.89409e-09
3.11757e-08
-2.10329e-08
4.14918e-08
-4.03324e-08
5.19333e-08
-6.28779e-08
6.25338e-08
-8.87612e-08
7.33533e-08
-1.1808e-07
8.4461e-08
-1.50935e-07
9.59204e-08
-1.8742e-07
1.07776e-07
-2.27617e-07
1.20044e-07
-2.71582e-07
1.32704e-07
-3.19338e-07
1.45699e-07
-3.70864e-07
1.58934e-07
-4.26083e-07
1.72274e-07
-4.84858e-07
1.85553e-07
-5.46986e-07
1.98577e-07
-6.12191e-07
2.11126e-07
-6.80128e-07
2.22965e-07
-7.50382e-07
2.33847e-07
-8.2247e-07
2.43521e-07
-8.95851e-07
2.51739e-07
-9.69933e-07
2.5826e-07
-1.04408e-06
2.62864e-07
-1.11764e-06
2.65349e-07
-1.18993e-06
2.65545e-07
-1.26028e-06
2.63312e-07
-1.328e-06
2.58545e-07
-1.39246e-06
2.51179e-07
-1.45302e-06
2.41185e-07
-1.50912e-06
2.28574e-07
-1.56021e-06
2.13392e-07
-1.60581e-06
1.95722e-07
-1.64547e-06
1.75676e-07
-1.67883e-06
1.534e-07
-1.70556e-06
1.29064e-07
-1.72538e-06
1.02865e-07
-1.73809e-06
7.50228e-08
-1.74351e-06
4.57776e-08
-1.74154e-06
1.53976e-08
-1.7321e-06
-1.58564e-08
-1.71521e-06
-4.76994e-08
-1.69089e-06
-7.97966e-08
-1.65925e-06
-1.11829e-07
-1.62043e-06
-1.43458e-07
-1.57462e-06
-1.74334e-07
-1.52208e-06
-2.04098e-07
-1.46313e-06
-2.32384e-07
-1.39815e-06
-2.58823e-07
-1.32757e-06
-2.83051e-07
-1.25189e-06
-3.04713e-07
-1.17169e-06
-3.2347e-07
-1.08758e-06
-3.39009e-07
-1.00026e-06
-3.51049e-07
-9.10483e-07
-3.59356e-07
-8.19035e-07
-3.63746e-07
-7.26757e-07
-3.64102e-07
-6.34521e-07
-3.60375e-07
-5.43213e-07
-3.52595e-07
-4.53723e-07
-3.40876e-07
-3.66931e-07
-3.25415e-07
-2.83682e-07
-3.06497e-07
-2.04773e-07
-2.84483e-07
-1.30936e-07
-2.59809e-07
-6.28194e-08
-2.32969e-07
-9.72855e-10
-2.04505e-07
5.41782e-08
-1.74996e-07
1.02306e-07
-1.45014e-07
1.43223e-07
-1.15142e-07
1.76874e-07
-8.59297e-08
2.03326e-07
-5.78808e-08
2.22772e-07
-3.14413e-08
2.3552e-07
-6.98508e-09
2.41976e-07
1.51969e-08
2.4263e-07
3.48983e-08
2.38046e-07
5.19921e-08
2.28834e-07
6.64322e-08
2.15642e-07
7.82357e-08
1.99134e-07
8.74659e-08
1.79986e-07
9.42087e-08
1.5887e-07
9.85452e-08
1.36462e-07
1.00522e-07
1.13436e-07
1.00123e-07
9.0482e-08
9.72462e-08
6.83131e-08
9.16931e-08
4.76908e-08
8.31751e-08
2.94555e-08
7.13475e-08
1.45759e-08
5.5872e-08
4.23236e-09
3.65116e-08
1.32911e-08
1.97477e-09
-1.06642e-08
6.13238e-09
-2.4923e-08
1.11603e-08
-3.31805e-08
1.60462e-08
-3.63325e-08
1.99916e-08
-3.52117e-08
2.23649e-08
-3.06102e-08
2.26667e-08
-2.32566e-08
2.05039e-08
-1.37982e-08
1.55691e-08
-2.78983e-09
7.62275e-09
9.31308e-09
-3.52306e-09
2.21574e-08
-1.80193e-08
3.54898e-08
-3.59937e-08
4.91501e-08
-5.75613e-08
6.30594e-08
-8.28327e-08
7.72047e-08
-1.11919e-07
9.16198e-08
-1.44931e-07
1.06365e-07
-1.81977e-07
1.21507e-07
-2.23157e-07
1.37101e-07
-2.68552e-07
1.53171e-07
-3.18213e-07
1.69705e-07
-3.72152e-07
1.86642e-07
-4.30327e-07
2.03874e-07
-4.92635e-07
2.21242e-07
-5.58904e-07
2.38543e-07
-6.28886e-07
2.55535e-07
-7.02254e-07
2.71945e-07
-7.78604e-07
2.87475e-07
-8.57453e-07
3.01815e-07
-9.38254e-07
3.14648e-07
-1.0204e-06
3.25664e-07
-1.10323e-06
3.34566e-07
-1.18604e-06
3.4108e-07
-1.26814e-06
3.44963e-07
-1.3488e-06
3.46009e-07
-1.42731e-06
3.44055e-07
-1.50298e-06
3.38982e-07
-1.57516e-06
3.30719e-07
-1.64322e-06
3.19242e-07
-1.70661e-06
3.04571e-07
-1.7648e-06
2.86767e-07
-1.81734e-06
2.65933e-07
-1.86383e-06
2.42206e-07
-1.9039e-06
2.15754e-07
-1.93728e-06
1.86772e-07
-1.96369e-06
1.55483e-07
-1.98296e-06
1.22127e-07
-1.9949e-06
8.69684e-08
-1.99941e-06
5.02887e-08
-1.99641e-06
1.23974e-08
-1.98585e-06
-2.64222e-08
-1.96773e-06
-6.58201e-08
-1.94208e-06
-1.05442e-07
-1.90898e-06
-1.44927e-07
-1.86855e-06
-1.83895e-07
-1.82093e-06
-2.2195e-07
-1.76634e-06
-2.58684e-07
-1.70505e-06
-2.9368e-07
-1.63736e-06
-3.26511e-07
-1.56366e-06
-3.56754e-07
-1.48438e-06
-3.83987e-07
-1.40005e-06
-4.07805e-07
-1.31123e-06
-4.27825e-07
-1.21858e-06
-4.43699e-07
-1.12281e-06
-4.55124e-07
-1.0247e-06
-4.61856e-07
-9.25089e-07
-4.63718e-07
-8.24846e-07
-4.60617e-07
-7.24892e-07
-4.52549e-07
-6.26159e-07
-4.39608e-07
-5.29585e-07
-4.21989e-07
-4.36089e-07
-3.99993e-07
-3.46556e-07
-3.74016e-07
-2.61815e-07
-3.4455e-07
-1.8262e-07
-3.12165e-07
-1.09631e-07
-2.77494e-07
-4.34081e-08
-2.41219e-07
1.56192e-08
-2.04042e-07
6.71446e-08
-1.66668e-07
1.10996e-07
-1.29781e-07
1.47138e-07
-9.40228e-08
1.75667e-07
-5.99706e-08
1.96806e-07
-2.81234e-08
2.10899e-07
1.10336e-09
2.18381e-07
2.74169e-08
2.19786e-07
5.0587e-08
2.15716e-07
7.05025e-08
2.06826e-07
8.71252e-08
1.93813e-07
1.0048e-07
1.77395e-07
1.10626e-07
1.58309e-07
1.17632e-07
1.37298e-07
1.21532e-07
1.15118e-07
1.22303e-07
9.25388e-08
1.19826e-07
7.03589e-08
1.13873e-07
4.9431e-08
1.04103e-07
3.06986e-08
9.008e-08
1.52557e-08
7.13149e-08
4.43849e-09
4.73288e-08
1.77296e-08
1.70565e-09
-1.23698e-08
5.10107e-09
-2.83185e-08
8.89095e-09
-3.69703e-08
1.20763e-08
-3.95178e-08
1.38752e-08
-3.70107e-08
1.36738e-08
-3.04088e-08
1.09876e-08
-2.05703e-08
5.43207e-09
-8.24266e-09
-3.29942e-09
5.94166e-09
-1.54542e-08
2.14679e-08
-3.12355e-08
3.79387e-08
-5.08157e-08
5.507e-08
-7.43476e-08
7.26819e-08
-1.01972e-07
9.06842e-08
-1.33825e-07
1.09057e-07
-1.70035e-07
1.2783e-07
-2.10725e-07
1.47055e-07
-2.56002e-07
1.66784e-07
-3.0595e-07
1.87049e-07
-3.60619e-07
2.07839e-07
-4.20009e-07
2.29095e-07
-4.84064e-07
2.50697e-07
-5.52655e-07
2.72465e-07
-6.25576e-07
2.94163e-07
-7.02538e-07
3.15505e-07
-7.83166e-07
3.36163e-07
-8.66998e-07
3.55777e-07
-9.53497e-07
3.73974e-07
-1.04205e-06
3.90371e-07
-1.132e-06
4.04594e-07
-1.22262e-06
4.16288e-07
-1.31318e-06
4.25128e-07
-1.40293e-06
4.3083e-07
-1.49113e-06
4.33155e-07
-1.57704e-06
4.31919e-07
-1.65997e-06
4.26992e-07
-1.73929e-06
4.18298e-07
-1.81439e-06
4.05819e-07
-1.88473e-06
3.89587e-07
-1.94984e-06
3.69678e-07
-2.00929e-06
3.46215e-07
-2.06271e-06
3.19354e-07
-2.10979e-06
2.89284e-07
-2.15025e-06
2.5622e-07
-2.18388e-06
2.20401e-07
-2.21048e-06
1.82085e-07
-2.22991e-06
1.41549e-07
-2.24202e-06
9.90846e-08
-2.24673e-06
5.50003e-08
-2.24397e-06
9.63314e-09
-2.23367e-06
-3.67174e-08
-2.21583e-06
-8.36617e-08
-2.19045e-06
-1.3083e-07
-2.15754e-06
-1.7783e-07
-2.11719e-06
-2.2425e-07
-2.06948e-06
-2.69657e-07
-2.01456e-06
-3.13601e-07
-1.95263e-06
-3.55616e-07
-1.88392e-06
-3.95223e-07
-1.80873e-06
-4.31938e-07
-1.72744e-06
-4.65275e-07
-1.64049e-06
-4.94756e-07
-1.54839e-06
-5.19923e-07
-1.45174e-06
-5.40351e-07
-1.35121e-06
-5.55658e-07
-1.24754e-06
-5.65522e-07
-1.14156e-06
-5.69696e-07
-1.03416e-06
-5.68023e-07
-9.26262e-07
-5.60444e-07
-8.18853e-07
-5.47017e-07
-7.12925e-07
-5.27917e-07
-6.09476e-07
-5.03442e-07
-5.09482e-07
-4.7401e-07
-4.13875e-07
-4.40157e-07
-3.23523e-07
-4.02517e-07
-2.39205e-07
-3.61811e-07
-1.616e-07
-3.18824e-07
-9.1263e-08
-2.74379e-07
-2.86192e-08
-2.29312e-07
2.60459e-08
-1.84446e-07
7.25893e-08
-1.40566e-07
1.11009e-07
-9.83908e-08
1.41443e-07
-5.85573e-08
1.64151e-07
-2.16043e-08
1.79525e-07
1.20431e-08
1.88046e-07
4.20658e-08
1.90292e-07
6.82565e-08
1.86912e-07
9.0505e-08
1.78613e-07
1.08779e-07
1.66142e-07
1.23097e-07
1.50278e-07
1.33495e-07
1.31822e-07
1.39988e-07
1.11594e-07
1.42531e-07
9.04354e-08
1.40984e-07
6.92249e-08
1.35084e-07
4.88977e-08
1.2443e-07
3.04867e-08
1.08491e-07
1.51813e-08
8.66202e-08
4.41235e-09
5.80978e-08
2.2142e-08
1.32925e-09
-1.36991e-08
3.68019e-09
-3.06694e-08
5.82233e-09
-3.91125e-08
6.81169e-09
-4.05072e-08
5.9143e-09
-3.61133e-08
2.55646e-09
-2.7051e-08
-3.71629e-09
-1.42976e-08
-1.32697e-08
1.31076e-09
-2.64033e-08
1.90752e-08
-4.33673e-08
3.84319e-08
-6.43768e-08
5.89482e-08
-8.9622e-08
8.03152e-08
-1.19277e-07
1.02337e-07
-1.53503e-07
1.24911e-07
-1.92453e-07
1.48007e-07
-2.36267e-07
1.71643e-07
-2.85064e-07
1.95852e-07
-3.38936e-07
2.20656e-07
-3.97933e-07
2.46047e-07
-4.62053e-07
2.7196e-07
-5.31226e-07
2.98268e-07
-6.05303e-07
3.24774e-07
-6.8405e-07
3.51212e-07
-7.6714e-07
3.77254e-07
-8.54155e-07
4.0252e-07
-9.44585e-07
4.26593e-07
-1.03784e-06
4.49032e-07
-1.13326e-06
4.69392e-07
-1.23012e-06
4.87235e-07
-1.32768e-06
5.02149e-07
-1.42515e-06
5.13757e-07
-1.52176e-06
5.21736e-07
-1.61674e-06
5.25816e-07
-1.70938e-06
5.25792e-07
-1.79898e-06
5.21523e-07
-1.88492e-06
5.12935e-07
-1.96664e-06
5.00013e-07
-2.04362e-06
4.828e-07
-2.11542e-06
4.61389e-07
-2.18166e-06
4.3592e-07
-2.24201e-06
4.06566e-07
-2.29619e-06
3.73533e-07
-2.34396e-06
3.37051e-07
-2.38511e-06
2.97374e-07
-2.41948e-06
2.54768e-07
-2.44691e-06
2.09517e-07
-2.46728e-06
1.61917e-07
-2.48047e-06
1.12278e-07
-2.48639e-06
6.09211e-08
-2.48496e-06
8.19662e-09
-2.4761e-06
-4.55792e-08
-2.45975e-06
-1.00003e-07
-2.43589e-06
-1.54691e-07
-2.40449e-06
-2.0923e-07
-2.36556e-06
-2.63185e-07
-2.31912e-06
-3.16093e-07
-2.26525e-06
-3.6747e-07
-2.20406e-06
-4.16807e-07
-2.13571e-06
-4.63577e-07
-2.06041e-06
-5.07235e-07
-1.97845e-06
-5.47232e-07
-1.89019e-06
-5.83016e-07
-1.79607e-06
-6.14048e-07
-1.6966e-06
-6.39817e-07
-1.59241e-06
-6.59852e-07
-1.48419e-06
-6.73739e-07
-1.37275e-06
-6.81142e-07
-1.25895e-06
-6.8182e-07
-1.14375e-06
-6.75641e-07
-1.02817e-06
-6.62602e-07
-9.13252e-07
-6.42834e-07
-8.00078e-07
-6.16615e-07
-6.89722e-07
-5.84367e-07
-5.83227e-07
-5.46652e-07
-4.81586e-07
-5.04158e-07
-3.85711e-07
-4.57687e-07
-2.96411e-07
-4.08124e-07
-2.14376e-07
-3.56414e-07
-1.40156e-07
-3.03531e-07
-7.41593e-08
-2.50443e-07
-1.66382e-08
-1.98087e-07
3.23059e-08
-1.47335e-07
7.27211e-08
-9.89725e-08
1.04796e-07
-5.36795e-08
1.28856e-07
-1.20162e-08
1.45339e-07
2.55822e-08
1.5479e-07
5.88058e-08
1.57842e-07
8.7453e-08
1.55202e-07
1.11419e-07
1.47634e-07
1.30665e-07
1.35947e-07
1.45182e-07
1.20986e-07
1.54949e-07
1.03624e-07
1.59893e-07
8.47684e-08
1.5984e-07
6.53647e-08
1.54487e-07
4.64209e-08
1.43374e-07
2.90411e-08
1.25871e-07
1.44771e-08
1.01184e-07
4.1974e-09
6.83775e-08
2.63394e-08
8.5149e-10
-1.45506e-08
1.8934e-09
-3.17113e-08
2.00482e-09
-3.92239e-08
3.37091e-10
-3.88395e-08
-3.76377e-09
-3.20124e-08
-1.08101e-08
-2.00047e-08
-2.12115e-08
-3.89613e-09
-3.53056e-08
1.54048e-08
-5.33786e-08
3.71482e-08
-7.568e-08
6.07333e-08
-1.02433e-07
8.57012e-08
-1.33842e-07
1.11724e-07
-1.70096e-07
1.38591e-07
-2.11371e-07
1.66186e-07
-2.57827e-07
1.94463e-07
-3.09599e-07
2.23416e-07
-3.66793e-07
2.53045e-07
-4.29464e-07
2.83328e-07
-4.97611e-07
3.14193e-07
-5.71157e-07
3.45506e-07
-6.49941e-07
3.77051e-07
-7.33705e-07
4.08538e-07
-8.22094e-07
4.39601e-07
-9.14652e-07
4.69812e-07
-1.01083e-06
4.98696e-07
-1.10999e-06
5.25752e-07
-1.21143e-06
5.50469e-07
-1.31438e-06
5.72348e-07
-1.41806e-06
5.90918e-07
-1.52167e-06
6.05755e-07
-1.6244e-06
6.16492e-07
-1.7255e-06
6.22831e-07
-1.82423e-06
6.24547e-07
-1.91993e-06
6.2149e-07
-2.01199e-06
6.13582e-07
-2.09987e-06
6.00817e-07
-2.1831e-06
5.83246e-07
-2.26128e-06
5.60977e-07
-2.33406e-06
5.34165e-07
-2.40114e-06
5.02998e-07
-2.46227e-06
4.67699e-07
-2.51725e-06
4.28509e-07
-2.56589e-06
3.85691e-07
-2.60803e-06
3.39521e-07
-2.64355e-06
2.90284e-07
-2.67231e-06
2.38277e-07
-2.6942e-06
1.83806e-07
-2.70911e-06
1.27188e-07
-2.71694e-06
6.87508e-08
-2.71758e-06
8.8414e-09
-2.71096e-06
-5.22022e-08
-2.69698e-06
-1.13985e-07
-2.67556e-06
-1.76111e-07
-2.64663e-06
-2.38159e-07
-2.61014e-06
-2.99674e-07
-2.56605e-06
-3.60177e-07
-2.51437e-06
-4.19154e-07
-2.45511e-06
-4.76063e-07
-2.38836e-06
-5.30334e-07
-2.31422e-06
-5.8137e-07
-2.2329e-06
-6.28559e-07
-2.14464e-06
-6.71276e-07
-2.04978e-06
-7.08901e-07
-1.94877e-06
-7.4083e-07
-1.84213e-06
-7.66491e-07
-1.7305e-06
-7.85367e-07
-1.61463e-06
-7.97014e-07
-1.49537e-06
-8.01085e-07
-1.37366e-06
-7.97352e-07
-1.25053e-06
-7.85722e-07
-1.12711e-06
-7.66259e-07
-1.00453e-06
-7.39191e-07
-8.83981e-07
-7.04919e-07
-7.66622e-07
-6.64011e-07
-6.53584e-07
-6.17196e-07
-5.45929e-07
-5.65342e-07
-4.4462e-07
-5.09433e-07
-3.50497e-07
-4.50538e-07
-2.64256e-07
-3.89772e-07
-1.86438e-07
-3.28261e-07
-1.17418e-07
-2.67108e-07
-5.74019e-08
-2.07351e-07
-6.43294e-09
-1.49941e-07
3.56035e-08
-9.5716e-08
6.8968e-08
-4.53807e-08
9.406e-08
4.90233e-10
1.11385e-07
4.14807e-08
1.21563e-07
7.72747e-08
1.25297e-07
1.07686e-07
1.2336e-07
1.32602e-07
1.16586e-07
1.51956e-07
1.05854e-07
1.65681e-07
9.20854e-08
1.73661e-07
7.6239e-08
1.75686e-07
5.93206e-08
1.71406e-07
4.23972e-08
1.60297e-07
2.66244e-08
1.41643e-07
1.32854e-08
1.14523e-07
3.84037e-09
7.78225e-08
3.01798e-08
2.74631e-10
-1.48252e-08
-2.45833e-10
-3.11909e-08
-2.52483e-09
-3.69449e-08
-7.27715e-09
-3.40872e-08
-1.50474e-08
-2.42422e-08
-2.62633e-08
-8.78877e-09
-4.12762e-08
1.11167e-08
-6.03872e-08
3.45159e-08
-8.38644e-08
6.06255e-08
-1.11953e-07
8.88218e-08
-1.4488e-07
1.18628e-07
-1.8286e-07
1.49703e-07
-2.26089e-07
1.8182e-07
-2.7475e-07
2.14846e-07
-3.28996e-07
2.48709e-07
-3.88946e-07
2.83366e-07
-4.54669e-07
3.18768e-07
-5.2617e-07
3.54828e-07
-6.03372e-07
3.91396e-07
-6.86108e-07
4.28242e-07
-7.74107e-07
4.65051e-07
-8.66992e-07
5.01423e-07
-9.64278e-07
5.36887e-07
-1.06538e-06
5.70915e-07
-1.16963e-06
6.02946e-07
-1.27628e-06
6.32405e-07
-1.38455e-06
6.58732e-07
-1.4936e-06
6.81398e-07
-1.60261e-06
6.9993e-07
-1.71077e-06
7.13919e-07
-1.81732e-06
7.23037e-07
-1.92152e-06
7.27037e-07
-2.02274e-06
7.25759e-07
-2.12037e-06
7.19122e-07
-2.21391e-06
7.07123e-07
-2.30292e-06
6.89824e-07
-2.38702e-06
6.67345e-07
-2.46589e-06
6.39853e-07
-2.53928e-06
6.07553e-07
-2.60696e-06
5.70678e-07
-2.66874e-06
5.29484e-07
-2.72448e-06
4.84242e-07
-2.77402e-06
4.35234e-07
-2.81725e-06
3.82751e-07
-2.85405e-06
3.27088e-07
-2.88433e-06
2.6855e-07
-2.90797e-06
2.07445e-07
-2.92487e-06
1.4409e-07
-2.93493e-06
7.88118e-08
-2.93804e-06
1.19508e-08
-2.9341e-06
-5.61429e-08
-2.92299e-06
-1.2509e-07
-2.90461e-06
-1.94492e-07
-2.87885e-06
-2.63923e-07
-2.8456e-06
-3.32928e-07
-2.80476e-06
-4.01014e-07
-2.75626e-06
-4.67653e-07
-2.70004e-06
-5.3228e-07
-2.63608e-06
-5.94292e-07
-2.56441e-06
-6.53049e-07
-2.48508e-06
-7.07884e-07
-2.39825e-06
-7.58105e-07
-2.30414e-06
-8.03011e-07
-2.20307e-06
-8.41904e-07
-2.09545e-06
-8.74106e-07
-1.98183e-06
-8.98983e-07
-1.86288e-06
-9.15968e-07
-1.73938e-06
-9.24586e-07
-1.61225e-06
-9.24482e-07
-1.48253e-06
-9.15447e-07
-1.35134e-06
-8.97442e-07
-1.21992e-06
-8.70612e-07
-1.08954e-06
-8.35303e-07
-9.61488e-07
-7.92062e-07
-8.37052e-07
-7.41632e-07
-7.17461e-07
-6.84933e-07
-6.03857e-07
-6.23038e-07
-4.97258e-07
-5.57136e-07
-3.98536e-07
-4.88494e-07
-3.0839e-07
-4.18407e-07
-2.27337e-07
-3.48161e-07
-1.55707e-07
-2.78982e-07
-9.36412e-08
-2.12007e-07
-4.11064e-08
-1.48251e-07
2.09901e-09
-8.8586e-08
3.63214e-08
-3.37322e-08
6.20532e-08
1.5749e-08
7.98916e-08
5.94363e-08
9.05387e-08
9.70386e-08
9.47798e-08
1.28361e-07
9.34693e-08
1.53267e-07
8.75192e-08
1.71631e-07
7.78904e-08
1.8329e-07
6.55897e-08
1.87987e-07
5.16722e-08
1.85323e-07
3.7251e-08
1.74719e-07
2.35154e-08
1.55379e-07
1.17552e-08
1.26284e-07
3.38868e-09
8.6189e-08
3.35684e-08
-4.02103e-10
-1.44231e-08
-2.72716e-09
-2.88658e-08
-7.73638e-09
-3.19357e-08
-1.59684e-08
-2.58551e-08
-2.7828e-08
-1.23826e-08
-4.36395e-08
7.02264e-09
-6.36829e-08
3.11601e-08
-8.8216e-08
5.90491e-08
-1.17485e-07
8.98939e-08
-1.51725e-07
1.23062e-07
-1.91166e-07
1.58069e-07
-2.36024e-07
1.94561e-07
-2.86497e-07
2.32294e-07
-3.42759e-07
2.71108e-07
-4.04945e-07
3.10896e-07
-4.7314e-07
3.51562e-07
-5.47361e-07
3.92989e-07
-6.27538e-07
4.35005e-07
-7.13506e-07
4.77364e-07
-8.04989e-07
5.19725e-07
-9.01598e-07
5.61659e-07
-1.00283e-06
6.02654e-07
-1.10807e-06
6.42132e-07
-1.21663e-06
6.79473e-07
-1.32773e-06
7.14044e-07
-1.44055e-06
7.45222e-07
-1.55423e-06
7.7242e-07
-1.66795e-06
7.95112e-07
-1.78087e-06
8.12848e-07
-1.89221e-06
8.25265e-07
-2.00127e-06
8.32093e-07
-2.10739e-06
8.33159e-07
-2.21001e-06
8.28376e-07
-2.30863e-06
8.17742e-07
-2.40283e-06
8.01327e-07
-2.49227e-06
7.79261e-07
-2.57665e-06
7.51724e-07
-2.65573e-06
7.18932e-07
-2.72931e-06
6.81135e-07
-2.79723e-06
6.38599e-07
-2.85935e-06
5.91607e-07
-2.91556e-06
5.4045e-07
-2.96575e-06
4.85426e-07
-3.00984e-06
4.26834e-07
-3.04773e-06
3.64979e-07
-3.07934e-06
3.00165e-07
-3.1046e-06
2.327e-07
-3.1234e-06
1.62899e-07
-3.13567e-06
9.10811e-08
-3.1413e-06
1.75786e-08
-3.14018e-06
-5.72617e-08
-3.1322e-06
-1.33075e-07
-3.11721e-06
-2.09474e-07
-3.0951e-06
-2.86041e-07
-3.0657e-06
-3.62326e-07
-3.02887e-06
-4.37841e-07
-2.98447e-06
-5.12057e-07
-2.93235e-06
-5.84397e-07
-2.8724e-06
-6.54242e-07
-2.80453e-06
-7.20922e-07
-2.72868e-06
-7.83728e-07
-2.64488e-06
-8.41911e-07
-2.55319e-06
-8.94696e-07
-2.4538e-06
-9.41294e-07
-2.34699e-06
-9.80921e-07
-2.23316e-06
-1.01282e-06
-2.11285e-06
-1.03628e-06
-1.98675e-06
-1.05068e-06
-1.85572e-06
-1.05552e-06
-1.72074e-06
-1.05043e-06
-1.58295e-06
-1.03523e-06
-1.44361e-06
-1.00995e-06
-1.30408e-06
-9.74829e-07
-1.16579e-06
-9.30357e-07
-1.03017e-06
-8.77254e-07
-8.98635e-07
-8.16465e-07
-7.72541e-07
-7.49131e-07
-6.5312e-07
-6.76557e-07
-5.41453e-07
-6.00161e-07
-4.38438e-07
-5.21422e-07
-3.44769e-07
-4.41829e-07
-2.60928e-07
-3.62823e-07
-1.87181e-07
-2.85754e-07
-1.23587e-07