/*--------------------------------*- C++ -*----------------------------------*\
  =========                 |
  \\      /  F ield         | OpenFOAM: The Open Source CFD Toolbox
   \\    /   O peration     | Website:  https://openfoam.org
    \\  /    A nd           | Version:  9
     \\/     M anipulation  |
\*---------------------------------------------------------------------------*/
FoamFile
{
    format      ascii;
    class       volVectorField;
    location    "3.25";
    object      U;
}
// * * * * * * * * * * * * * * * * * * * * * * * * * * * * * * * * * * * * * //

dimensions      [0 1 -1 0 0 0 0];

internalField   nonuniform List<vector> 
10000
(
(-8.44689e-06 8.18038e-06 0)
(3.1725e-05 -2.25096e-05 0)
(0.000160723 -5.02433e-05 0)
(0.000339628 -6.56723e-05 0)
(0.000543292 -7.12743e-05 0)
(0.000750944 -7.008e-05 0)
(0.000946858 -6.44677e-05 0)
(0.00112032 -5.62192e-05 0)
(0.00126464 -4.66246e-05 0)
(0.00137617 -3.65913e-05 0)
(0.00145348 -2.67351e-05 0)
(0.00149669 -1.74398e-05 0)
(0.00150688 -8.90447e-06 0)
(0.00148556 -1.14696e-06 0)
(0.00143426 5.91686e-06 0)
(0.00135423 1.24629e-05 0)
(0.00124619 1.87237e-05 0)
(0.00111019 2.49563e-05 0)
(0.000945621 3.14164e-05 0)
(0.00075117 3.83386e-05 0)
(0.000524966 4.59185e-05 0)
(0.000264675 5.4313e-05 0)
(-3.23448e-05 6.36263e-05 0)
(-0.000368885 7.39188e-05 0)
(-0.000747741 8.521e-05 0)
(-0.00117157 9.7482e-05 0)
(-0.00164277 0.000110684 0)
(-0.00216336 0.000124735 0)
(-0.00273483 0.000139524 0)
(-0.00335813 0.000154911 0)
(-0.00403347 0.000170722 0)
(-0.00476026 0.000186753 0)
(-0.00553704 0.000202762 0)
(-0.00636135 0.000218474 0)
(-0.00722967 0.000233579 0)
(-0.00813736 0.000247735 0)
(-0.00907863 0.000260574 0)
(-0.0100465 0.000271702 0)
(-0.0110327 0.00028071 0)
(-0.0120279 0.000287184 0)
(-0.0130218 0.000290708 0)
(-0.0140028 0.00029088 0)
(-0.0149585 0.000287323 0)
(-0.0158759 0.000279692 0)
(-0.0167413 0.000267696 0)
(-0.0175406 0.000251101 0)
(-0.0182598 0.000229751 0)
(-0.0188848 0.000203579 0)
(-0.019402 0.000172633 0)
(-0.0197986 0.000137124 0)
(-0.020063 9.73933e-05 0)
(-0.0201851 5.37668e-05 0)
(-0.0201551 6.78375e-06 0)
(-0.0199661 -4.33452e-05 0)
(-0.0196144 -9.54389e-05 0)
(-0.0190978 -0.000148507 0)
(-0.0184172 -0.00020154 0)
(-0.0175764 -0.000253433 0)
(-0.0165826 -0.000303013 0)
(-0.0154459 -0.00034908 0)
(-0.0141796 -0.000390444 0)
(-0.0128001 -0.000425975 0)
(-0.0113266 -0.000454645 0)
(-0.00978056 -0.000475584 0)
(-0.00818561 -0.000488119 0)
(-0.00656667 -0.000491814 0)
(-0.00494945 -0.000486508 0)
(-0.00335976 -0.000472328 0)
(-0.0018227 -0.0004497 0)
(-0.000361913 -0.00041936 0)
(0.00100092 -0.000382333 0)
(0.00224696 -0.00033966 0)
(0.00336085 -0.000292819 0)
(0.00433079 -0.000243254 0)
(0.00514899 -0.000192473 0)
(0.00581175 -0.000141915 0)
(0.00631935 -9.29277e-05 0)
(0.00667574 -4.6703e-05 0)
(0.00688827 -4.21933e-06 0)
(0.00696706 3.37796e-05 0)
(0.00692446 6.67944e-05 0)
(0.0067744 9.45788e-05 0)
(0.00653173 0.000117114 0)
(0.0062116 0.000134577 0)
(0.00582891 0.000147322 0)
(0.0053978 0.000155832 0)
(0.00493129 0.000160681 0)
(0.00444098 0.000162488 0)
(0.00393696 0.000161866 0)
(0.00342783 0.000159367 0)
(0.0029209 0.000155411 0)
(0.00242268 0.0001502 0)
(0.00193952 0.000143603 0)
(0.00147862 0.000135017 0)
(0.0010493 0.000123198 0)
(0.000664541 0.00010614 0)
(0.000342105 8.12368e-05 0)
(0.000103702 4.62135e-05 0)
(-2.60807e-05 2.62523e-06 0)
(-3.02828e-05 -3.05345e-05 0)
(2.22916e-05 -3.17933e-05 0)
(0.00017405 -0.00017418 0)
(0.000494179 -0.000290607 0)
(0.000908496 -0.000358719 0)
(0.00136719 -0.000384017 0)
(0.00182966 -0.000375951 0)
(0.00226208 -0.000343629 0)
(0.00263905 -0.000294905 0)
(0.00294304 -0.000236108 0)
(0.00316304 -0.0001721 0)
(0.00329307 -0.000106427 0)
(0.00333086 -4.14631e-05 0)
(0.00327658 2.1459e-05 0)
(0.0031317 8.18272e-05 0)
(0.00289794 0.00013985 0)
(0.00257669 0.000196253 0)
(0.00216833 0.000252101 0)
(0.00167196 0.000308625 0)
(0.00108528 0.000367074 0)
(0.000404638 0.000428596 0)
(-0.000374772 0.000494136 0)
(-0.00125861 0.000564386 0)
(-0.00225302 0.00063975 0)
(-0.00336424 0.000720345 0)
(-0.0045982 0.000806008 0)
(-0.00596014 0.000896315 0)
(-0.00745428 0.000990603 0)
(-0.00908347 0.00108799 0)
(-0.0108489 0.00118738 0)
(-0.0127497 0.00128747 0)
(-0.0147831 0.00138679 0)
(-0.0169435 0.00148365 0)
(-0.019223 0.00157622 0)
(-0.0216107 0.0016625 0)
(-0.0240932 0.00174038 0)
(-0.0266537 0.00180765 0)
(-0.0292729 0.00186205 0)
(-0.0319284 0.00190133 0)
(-0.0345955 0.00192328 0)
(-0.0372467 0.00192578 0)
(-0.0398527 0.00190692 0)
(-0.0423822 0.00186496 0)
(-0.0448029 0.00179846 0)
(-0.0470816 0.00170632 0)
(-0.0491845 0.00158781 0)
(-0.0510784 0.00144265 0)
(-0.052731 0.00127104 0)
(-0.0541111 0.00107365 0)
(-0.05519 0.00085176 0)
(-0.0559415 0.000607269 0)
(-0.0563432 0.000342422 0)
(-0.0563764 5.95014e-05 0)
(-0.056026 -0.000235833 0)
(-0.0552813 -0.000541164 0)
(-0.054139 -0.000851722 0)
(-0.0526007 -0.00116236 0)
(-0.0506742 -0.00146767 0)
(-0.0483734 -0.00176201 0)
(-0.0457185 -0.00203962 0)
(-0.0427363 -0.00229472 0)
(-0.0394595 -0.00252172 0)
(-0.0359267 -0.00271539 0)
(-0.0321819 -0.00287105 0)
(-0.0282735 -0.00298471 0)
(-0.0242538 -0.00305334 0)
(-0.0201778 -0.00307494 0)
(-0.016102 -0.00304873 0)
(-0.0120832 -0.00297522 0)
(-0.00817701 -0.00285625 0)
(-0.0044367 -0.00269502 0)
(-0.000911561 -0.00249599 0)
(0.00235414 -0.0022645 0)
(0.0053226 -0.00200693 0)
(0.00796333 -0.00173031 0)
(0.0102537 -0.00144217 0)
(0.0121798 -0.00114982 0)
(0.0137359 -0.000860403 0)
(0.0149248 -0.000580571 0)
(0.0157571 -0.000316148 0)
(0.0162503 -7.19784e-05 0)
(0.0164281 0.000148204 0)
(0.0163186 0.000341846 0)
(0.0159535 0.000507616 0)
(0.0153667 0.000645232 0)
(0.0145925 0.000755439 0)
(0.0136652 0.000839821 0)
(0.0126174 0.000900589 0)
(0.0114794 0.000940342 0)
(0.0102793 0.000961788 0)
(0.00904193 0.000967416 0)
(0.00779016 0.000959122 0)
(0.00654511 0.000937782 0)
(0.00532768 0.000902785 0)
(0.00416022 0.000851574 0)
(0.0030686 0.000779296 0)
(0.00208421 0.000678926 0)
(0.00124439 0.000542658 0)
(0.000589257 0.000365767 0)
(0.000160645 0.000156847 0)
(4.19689e-06 -2.58376e-05 0)
(5.02936e-05 -0.000160395 0)
(0.000291881 -0.000494508 0)
(0.000748398 -0.000745685 0)
(0.00131409 -0.000892123 0)
(0.00192329 -0.000942895 0)
(0.00252481 -0.00091513 0)
(0.0030746 -0.000827294 0)
(0.00353813 -0.000696526 0)
(0.00389035 -0.000537437 0)
(0.00411431 -0.000361758 0)
(0.0041996 -0.000178347 0)
(0.00414071 6.66088e-06 0)
(0.00393546 0.000189595 0)
(0.00358351 0.000368859 0)
(0.0030852 0.000544626 0)
(0.00244046 0.000718377 0)
(0.00164814 0.000892461 0)
(0.000705568 0.00106967 0)
(-0.000391575 0.00125287 0)
(-0.00164918 0.00144462 0)
(-0.00307437 0.00164702 0)
(-0.00467509 0.00186146 0)
(-0.00645951 0.00208855 0)
(-0.00843543 0.00232813 0)
(-0.0106097 0.00257926 0)
(-0.0129877 0.00284024 0)
(-0.0155725 0.00310872 0)
(-0.0183649 0.00338167 0)
(-0.0213624 0.00365553 0)
(-0.0245591 0.00392617 0)
(-0.0279455 0.00418898 0)
(-0.031508 0.00443893 0)
(-0.0352288 0.00467062 0)
(-0.0390858 0.00487839 0)
(-0.0430528 0.00505642 0)
(-0.0470993 0.00519884 0)
(-0.0511911 0.00529988 0)
(-0.0552904 0.00535398 0)
(-0.0593563 0.00535599 0)
(-0.0633454 0.00530125 0)
(-0.0672124 0.00518579 0)
(-0.0709108 0.00500641 0)
(-0.0743936 0.00476083 0)
(-0.0776141 0.00444778 0)
(-0.0805268 0.00406708 0)
(-0.0830876 0.00361969 0)
(-0.0852555 0.0031078 0)
(-0.0869924 0.00253483 0)
(-0.0882643 0.00190546 0)
(-0.089042 0.00122568 0)
(-0.0893023 0.000502497 0)
(-0.089025 -0.000257035 0)
(-0.0881971 -0.00104058 0)
(-0.0868146 -0.00183911 0)
(-0.084878 -0.00264168 0)
(-0.0823957 -0.00343618 0)
(-0.0793834 -0.00420994 0)
(-0.0758644 -0.00494997 0)
(-0.0718693 -0.00564316 0)
(-0.0674359 -0.00627665 0)
(-0.0626094 -0.00683804 0)
(-0.0574413 -0.00731584 0)
(-0.0519891 -0.00769974 0)
(-0.046316 -0.00798107 0)
(-0.0404893 -0.00815307 0)
(-0.0345796 -0.00821128 0)
(-0.0286596 -0.00815379 0)
(-0.0228029 -0.00798145 0)
(-0.017082 -0.00769798 0)
(-0.0115671 -0.00731001 0)
(-0.00632462 -0.00682696 0)
(-0.00141519 -0.00626076 0)
(0.00310746 -0.00562538 0)
(0.00719772 -0.00493637 0)
(0.0108197 -0.0042112 0)
(0.0139477 -0.00346698 0)
(0.0165664 -0.00272091 0)
(0.0186716 -0.00198947 0)
(0.0202694 -0.00128765 0)
(0.0213757 -0.000628498 0)
(0.0220155 -2.27172e-05 0)
(0.0222213 0.000521582 0)
(0.0220316 0.000999121 0)
(0.0214893 0.00140721 0)
(0.0206401 0.00174573 0)
(0.0195308 0.0020168 0)
(0.0182078 0.00222429 0)
(0.0167161 0.0023733 0)
(0.0150981 0.00246943 0)
(0.0133936 0.00251799 0)
(0.0116397 0.00252313 0)
(0.00987187 0.00248681 0)
(0.00812488 0.00240786 0)
(0.0064349 0.00228118 0)
(0.00484135 0.00209742 0)
(0.00338878 0.00184389 0)
(0.00212657 0.00150795 0)
(0.00110468 0.00108423 0)
(0.00038101 0.000589794 0)
(5.10515e-05 0.0001095 0)
(6.67228e-05 -0.000340646 0)
(0.000364022 -0.000911907 0)
(0.000902756 -0.00131306 0)
(0.0015492 -0.00153676 0)
(0.00222518 -0.00160117 0)
(0.00287258 -0.00153331 0)
(0.00344143 -0.00136214 0)
(0.00389179 -0.00111497 0)
(0.0041938 -0.000815641 0)
(0.00432626 -0.000483705 0)
(0.004275 -0.000134186 0)
(0.00403127 0.00022229 0)
(0.00358996 0.000579151 0)
(0.00294815 0.000933431 0)
(0.0021037 0.0012851 0)
(0.00105422 0.00163635 0)
(-0.000203783 0.00199088 0)
(-0.00167523 0.00235312 0)
(-0.00336662 0.00272756 0)
(-0.00528582 0.00311817 0)
(-0.00744164 0.00352796 0)
(-0.00984318 0.00395868 0)
(-0.0124991 0.00441062 0)
(-0.015417 0.00488257 0)
(-0.0186022 0.00537188 0)
(-0.0220576 0.00587447 0)
(-0.0257826 0.00638498 0)
(-0.0297724 0.00689689 0)
(-0.0340179 0.0074026 0)
(-0.0385049 0.00789362 0)
(-0.0432141 0.00836067 0)
(-0.0481208 0.00879384 0)
(-0.0531949 0.00918282 0)
(-0.058401 0.00951705 0)
(-0.0636989 0.00978603 0)
(-0.0690439 0.00997951 0)
(-0.0743872 0.0100878 0)
(-0.0796771 0.010102 0)
(-0.0848593 0.0100144 0)
(-0.0898779 0.00981825 0)
(-0.0946767 0.0095086 0)
(-0.0991995 0.00908202 0)
(-0.103392 0.00853687 0)
(-0.1072 0.00787337 0)
(-0.110575 0.00709366 0)
(-0.11347 0.00620186 0)
(-0.115844 0.00520399 0)
(-0.117658 0.004108 0)
(-0.118882 0.00292363 0)
(-0.119489 0.00166213 0)
(-0.119462 0.000336983 0)
(-0.118784 -0.00103397 0)
(-0.117448 -0.00243797 0)
(-0.115456 -0.00385671 0)
(-0.112815 -0.00527128 0)
(-0.109541 -0.00666202 0)
(-0.105653 -0.00800861 0)
(-0.101183 -0.00929042 0)
(-0.096165 -0.0104868 0)
(-0.0906441 -0.0115776 0)
(-0.0846702 -0.0125434 0)
(-0.0783005 -0.0133662 0)
(-0.0715981 -0.0140298 0)
(-0.0646317 -0.0145206 0)
(-0.0574747 -0.0148276 0)
(-0.0502044 -0.0149435 0)
(-0.0429005 -0.0148646 0)
(-0.0356444 -0.0145917 0)
(-0.0285174 -0.0141297 0)
(-0.0215991 -0.0134882 0)
(-0.0149662 -0.0126813 0)
(-0.00869033 -0.011727 0)
(-0.00283656 -0.0106472 0)
(0.00253711 -0.00946654 0)
(0.00738262 -0.0082123 0)
(0.011663 -0.00691285 0)
(0.0153515 -0.00559679 0)
(0.0184334 -0.00429234 0)
(0.0209061 -0.00302567 0)
(0.0227784 -0.00182037 0)
(0.0240702 -0.000696684 0)
(0.0248111 0.000329172 0)
(0.0250393 0.00124519 0)
(0.0247996 0.0020441 0)
(0.0241421 0.00272281 0)
(0.0231203 0.00328215 0)
(0.021789 0.00372627 0)
(0.020203 0.00406173 0)
(0.018416 0.00429641 0)
(0.0164799 0.00443815 0)
(0.0144444 0.00449326 0)
(0.0123575 0.00446496 0)
(0.0102665 0.00435186 0)
(0.00821975 0.00414686 0)
(0.00626783 0.00383688 0)
(0.00446585 0.00340439 0)
(0.00287289 0.00283202 0)
(0.00154841 0.00211158 0)
(0.000570478 0.00126034 0)
(9.01688e-05 0.000361934 0)
(7.4076e-05 -0.000548753 0)
(0.000395424 -0.00137843 0)
(0.000963954 -0.00192837 0)
(0.0016265 -0.00221495 0)
(0.00229542 -0.00227098 0)
(0.00290773 -0.00213598 0)
(0.00340992 -0.00185042 0)
(0.00375905 -0.00145218 0)
(0.00392239 -0.00097448 0)
(0.00387586 -0.000444783 0)
(0.00360236 0.000115576 0)
(0.00309012 0.000691348 0)
(0.00233105 0.00127298 0)
(0.00131925 0.00185598 0)
(4.96203e-05 0.00244001 0)
(-0.00148309 0.00302789 0)
(-0.00328504 0.00362452 0)
(-0.00536357 0.00423574 0)
(-0.00772722 0.00486736 0)
(-0.0103853 0.00552428 0)
(-0.0133474 0.00620982 0)
(-0.0166225 0.00692527 0)
(-0.020218 0.00766964 0)
(-0.0241389 0.00843957 0)
(-0.0283871 0.0092294 0)
(-0.0329599 0.0100313 0)
(-0.03785 0.0108354 0)
(-0.0430445 0.0116301 0)
(-0.0485243 0.0124024 0)
(-0.0542644 0.013138 0)
(-0.0602331 0.0138217 0)
(-0.0663926 0.0144376 0)
(-0.0726993 0.0149698 0)
(-0.0791041 0.0154023 0)
(-0.085553 0.0157199 0)
(-0.0919885 0.0159083 0)
(-0.09835 0.0159547 0)
(-0.104575 0.0158479 0)
(-0.110601 0.0155787 0)
(-0.116364 0.0151406 0)
(-0.121803 0.014529 0)
(-0.12686 0.0137425 0)
(-0.131478 0.0127819 0)
(-0.135605 0.011651 0)
(-0.139194 0.010356 0)
(-0.142202 0.00890593 0)
(-0.144593 0.00731194 0)
(-0.146334 0.00558768 0)
(-0.1474 0.00374886 0)
(-0.147773 0.00181301 0)
(-0.147435 -0.00019984 0)
(-0.146381 -0.00226546 0)
(-0.144612 -0.00436454 0)
(-0.142131 -0.00647177 0)
(-0.138948 -0.00856126 0)
(-0.135083 -0.0106064 0)
(-0.130559 -0.0125798 0)
(-0.125408 -0.0144539 0)
(-0.119666 -0.0162011 0)
(-0.113377 -0.0177944 0)
(-0.106593 -0.0192078 0)
(-0.0993706 -0.020417 0)
(-0.0917724 -0.0213999 0)
(-0.0838675 -0.0221377 0)
(-0.0757301 -0.022615 0)
(-0.0674387 -0.0228207 0)
(-0.0590754 -0.0227489 0)
(-0.0507246 -0.0223991 0)
(-0.042472 -0.0217765 0)
(-0.0344029 -0.0208926 0)
(-0.0266006 -0.0197647 0)
(-0.0191449 -0.0184161 0)
(-0.0121101 -0.0168754 0)
(-0.00556415 -0.015176 0)
(0.000434117 -0.0133542 0)
(0.00583592 -0.0114493 0)
(0.0106029 -0.00950153 0)
(0.0147088 -0.00755156 0)
(0.0181404 -0.00563759 0)
(0.0208962 -0.0037952 0)
(0.0229872 -0.00205589 0)
(0.024436 -0.000446083 0)
(0.0252757 0.00101342 0)
(0.0255482 0.00230815 0)
(0.0253028 0.00342976 0)
(0.0245946 0.0043755 0)
(0.0234823 0.00514774 0)
(0.0220267 0.00575277 0)
(0.0202893 0.0061993 0)
(0.0183309 0.00649667 0)
(0.0162115 0.00665278 0)
(0.0139897 0.00667192 0)
(0.0117238 0.00655278 0)
(0.00947251 0.0062869 0)
(0.00729642 0.0058583 0)
(0.00526013 0.00524512 0)
(0.00343219 0.00442436 0)
(0.00188279 0.00338073 0)
(0.000711024 0.002121 0)
(0.000117756 0.000705024 0)
(7.50583e-05 -0.000764863 0)
(0.000393545 -0.00185341 0)
(0.000943768 -0.00253832 0)
(0.001563 -0.00286431 0)
(0.00215781 -0.00288283 0)
(0.00266215 -0.00264823 0)
(0.00302076 -0.00221352 0)
(0.00318934 -0.00162741 0)
(0.00313369 -0.000932352 0)
(0.0028279 -0.00016349 0)
(0.00225264 0.000651796 0)
(0.00139351 0.00149385 0)
(0.000239566 0.00235028 0)
(-0.00121818 0.00321511 0)
(-0.00298791 0.00408767 0)
(-0.00507785 0.00497124 0)
(-0.00749684 0.00587161 0)
(-0.0102544 0.0067956 0)
(-0.0133606 0.00774967 0)
(-0.0168254 0.00873884 0)
(-0.0206577 0.00976573 0)
(-0.0248648 0.01083 0)
(-0.0294509 0.011928 0)
(-0.0344163 0.0130528 0)
(-0.0397563 0.0141942 0)
(-0.0454604 0.0153389 0)
(-0.0515117 0.0164711 0)
(-0.0578863 0.0175728 0)
(-0.0645532 0.0186241 0)
(-0.0714743 0.019604 0)
(-0.0786046 0.0204904 0)
(-0.0858925 0.0212614 0)
(-0.0932814 0.0218953 0)
(-0.10071 0.0223715 0)
(-0.108112 0.0226709 0)
(-0.115422 0.0227766 0)
(-0.122571 0.0226742 0)
(-0.129491 0.0223522 0)
(-0.136116 0.0218024 0)
(-0.142382 0.0210202 0)
(-0.148229 0.020004 0)
(-0.153601 0.018756 0)
(-0.158446 0.0172817 0)
(-0.162719 0.0155896 0)
(-0.166379 0.0136915 0)
(-0.16939 0.0116017 0)
(-0.171723 0.00933727 0)
(-0.173353 0.00691763 0)
(-0.174262 0.00436444 0)
(-0.174436 0.00170147 0)
(-0.173866 -0.0010457 0)
(-0.172548 -0.00385124 0)
(-0.170485 -0.00668497 0)
(-0.167684 -0.00951678 0)
(-0.164155 -0.0123153 0)
(-0.159917 -0.015048 0)
(-0.154993 -0.0176816 0)
(-0.14941 -0.0201821 0)
(-0.143203 -0.0225158 0)
(-0.136414 -0.0246493 0)
(-0.129088 -0.0265501 0)
(-0.12128 -0.0281878 0)
(-0.113049 -0.0295343 0)
(-0.104461 -0.0305647 0)
(-0.0955878 -0.0312587 0)
(-0.0865073 -0.0316008 0)
(-0.077301 -0.0315814 0)
(-0.0680546 -0.0311977 0)
(-0.0588563 -0.0304539 0)
(-0.0497953 -0.0293619 0)
(-0.0409605 -0.0279412 0)
(-0.0324383 -0.0262187 0)
(-0.0243115 -0.0242287 0)
(-0.0166569 -0.0220116 0)
(-0.00954394 -0.0196127 0)
(-0.00303222 -0.0170816 0)
(0.00282785 -0.01447 0)
(0.00799838 -0.0118302 0)
(0.0124547 -0.00921341 0)
(0.0161839 -0.00666797 0)
(0.0191867 -0.0042378 0)
(0.0214762 -0.00196105 0)
(0.0230776 0.00013102 0)
(0.0240271 0.00201447 0)
(0.0243699 0.00367348 0)
(0.0241589 0.00509945 0)
(0.0234535 0.00629071 0)
(0.0223169 0.00725121 0)
(0.020815 0.00798868 0)
(0.0190152 0.00851251 0)
(0.016985 0.00883118 0)
(0.0147916 0.00894952 0)
(0.0125026 0.00886619 0)
(0.0101858 0.00857164 0)
(0.00791093 0.00804735 0)
(0.00575166 0.00726698 0)
(0.00378624 0.00620036 0)
(0.00209614 0.00482084 0)
(0.000799319 0.0031164 0)
(0.000134175 0.0011102 0)
(7.14518e-05 -0.000972795 0)
(0.000364397 -0.00229969 0)
(0.000853081 -0.00309222 0)
(0.00137455 -0.003425 0)
(0.00183361 -0.0033704 0)
(0.0021632 -0.00299916 0)
(0.00230799 -0.00237749 0)
(0.00222367 -0.00156492 0)
(0.00187566 -0.000612774 0)
(0.00123702 0.000436622 0)
(0.000286755 0.00155037 0)
(-0.000991736 0.00270486 0)
(-0.0026121 0.00388514 0)
(-0.00458623 0.00508392 0)
(-0.00692529 0.00630015 0)
(-0.00964027 0.00753733 0)
(-0.0127423 0.00880164 0)
(-0.0162425 0.0101001 0)
(-0.0201515 0.011439 0)
(-0.0244786 0.0128222 0)
(-0.0292306 0.0142503 0)
(-0.0344109 0.0157196 0)
(-0.0400184 0.0172224 0)
(-0.0460461 0.0187464 0)
(-0.0524804 0.020275 0)
(-0.0593003 0.0217883 0)
(-0.0664772 0.0232629 0)
(-0.0739744 0.0246732 0)
(-0.0817476 0.0259918 0)
(-0.089745 0.0271905 0)
(-0.0979085 0.0282408 0)
(-0.106174 0.029115 0)
(-0.114475 0.0297869 0)
(-0.122739 0.0302328 0)
(-0.130895 0.0304315 0)
(-0.138872 0.0303659 0)
(-0.146598 0.0300223 0)
(-0.154006 0.0293914 0)
(-0.161033 0.0284684 0)
(-0.167619 0.0272524 0)
(-0.17371 0.0257468 0)
(-0.179257 0.0239589 0)
(-0.184217 0.0218998 0)
(-0.188553 0.0195835 0)
(-0.192232 0.0170272 0)
(-0.195226 0.0142508 0)
(-0.197514 0.0112766 0)
(-0.199077 0.00812886 0)
(-0.199901 0.00483408 0)
(-0.199978 0.00142065 0)
(-0.199299 -0.00208148 0)
(-0.197863 -0.00564162 0)
(-0.195673 -0.00922562 0)
(-0.192733 -0.0127988 0)
(-0.189052 -0.0163249 0)
(-0.184644 -0.0197666 0)
(-0.179528 -0.0230853 0)
(-0.173727 -0.0262417 0)
(-0.167269 -0.029196 0)
(-0.160189 -0.0319087 0)
(-0.152529 -0.0343412 0)
(-0.144336 -0.0364563 0)
(-0.135664 -0.0382194 0)
(-0.126575 -0.0395993 0)
(-0.117137 -0.0405693 0)
(-0.107424 -0.0411085 0)
(-0.0975176 -0.0412025 0)
(-0.0875036 -0.0408445 0)
(-0.077472 -0.0400363 0)
(-0.0675153 -0.0387886 0)
(-0.0577276 -0.0371215 0)
(-0.0482021 -0.0350645 0)
(-0.0390295 -0.0326559 0)
(-0.030296 -0.0299422 0)
(-0.0220811 -0.0269768 0)
(-0.014456 -0.0238187 0)
(-0.0074823 -0.0205309 0)
(-0.00120961 -0.0171771 0)
(0.00432502 -0.0138216 0)
(0.00909749 -0.0105261 0)
(0.0130974 -0.00734766 0)
(0.0163279 -0.00433719 0)
(0.018805 -0.00153801 0)
(0.0205574 0.00101512 0)
(0.0216244 0.00329642 0)
(0.0220549 0.00528976 0)
(0.021906 0.00698731 0)
(0.0212411 0.00838845 0)
(0.0201281 0.00949802 0)
(0.0186382 0.0103238 0)
(0.0168442 0.0108734 0)
(0.0148203 0.0111513 0)
(0.0126414 0.0111558 0)
(0.0103834 0.0108758 0)
(0.00812444 0.0102903 0)
(0.0059469 0.00936785 0)
(0.00393847 0.00806965 0)
(0.00219138 0.00635466 0)
(0.000838371 0.00418734 0)
(0.000140874 0.00154902 0)
(6.42865e-05 -0.00115946 0)
(0.000312075 -0.00268446 0)
(0.000700203 -0.00354355 0)
(0.00107385 -0.00384127 0)
(0.00134011 -0.00367181 0)
(0.00143326 -0.00312285 0)
(0.00129962 -0.00227388 0)
(0.000896166 -0.00119484 0)
(0.000188799 5.46544e-05 0)
(-0.000849771 0.00142588 0)
(-0.00224173 0.00288112 0)
(-0.00400557 0.00439336 0)
(-0.00615732 0.0059455 0)
(-0.00871152 0.00752907 0)
(-0.0116819 0.00914253 0)
(-0.0150818 0.0107892 0)
(-0.0189237 0.0124749 0)
(-0.0232196 0.0142059 0)
(-0.0279791 0.0159869 0)
(-0.0332092 0.0178192 0)
(-0.0389129 0.0196996 0)
(-0.0450874 0.0216195 0)
(-0.0517239 0.023565 0)
(-0.0588058 0.0255166 0)
(-0.0663085 0.0274503 0)
(-0.0741987 0.0293376 0)
(-0.0824345 0.031147 0)
(-0.0909658 0.0328448 0)
(-0.099735 0.0343961 0)
(-0.108678 0.0357659 0)
(-0.117725 0.0369204 0)
(-0.126803 0.037828 0)
(-0.135838 0.0384599 0)
(-0.144754 0.0387915 0)
(-0.153477 0.0388026 0)
(-0.161937 0.038478 0)
(-0.170065 0.0378075 0)
(-0.1778 0.0367861 0)
(-0.185085 0.0354141 0)
(-0.191869 0.0336962 0)
(-0.198106 0.0316415 0)
(-0.203758 0.0292632 0)
(-0.20879 0.0265777 0)
(-0.213173 0.0236045 0)
(-0.216882 0.0203654 0)
(-0.219897 0.016885 0)
(-0.222201 0.0131893 0)
(-0.22378 0.00930653 0)
(-0.224623 0.00526639 0)
(-0.224721 0.00110044 0)
(-0.224068 -0.00315818 0)
(-0.22266 -0.00747533 0)
(-0.220498 -0.0118142 0)
(-0.217581 -0.0161368 0)
(-0.213916 -0.0204031 0)
(-0.209509 -0.0245715 0)
(-0.204373 -0.0285991 0)
(-0.198525 -0.0324415 0)
(-0.191986 -0.0360535 0)
(-0.184783 -0.0393896 0)
(-0.17695 -0.0424044 0)
(-0.168527 -0.045054 0)
(-0.159561 -0.0472964 0)
(-0.150109 -0.0490933 0)
(-0.140233 -0.0504107 0)
(-0.130005 -0.0512206 0)
(-0.119503 -0.0515023 0)
(-0.108812 -0.0512437 0)
(-0.0980247 -0.0504422 0)
(-0.087236 -0.0491057 0)
(-0.0765452 -0.0472533 0)
(-0.0660524 -0.0449152 0)
(-0.0558568 -0.0421327 0)
(-0.0460542 -0.0389573 0)
(-0.0367354 -0.0354493 0)
(-0.027983 -0.0316768 0)
(-0.0198707 -0.0277131 0)
(-0.0124604 -0.0236341 0)
(-0.00580136 -0.0195172 0)
(7.05583e-05 -0.0154373 0)
(0.00513386 -0.0114656 0)
(0.00938134 -0.00766665 0)
(0.0128199 -0.00409703 0)
(0.0154695 -0.000803687 0)
(0.0173632 0.00217644 0)
(0.018545 0.00481752 0)
(0.0190682 0.00710369 0)
(0.0189945 0.00902788 0)
(0.0183922 0.0105901 0)
(0.0173344 0.0117947 0)
(0.0158976 0.0126471 0)
(0.014161 0.0131503 0)
(0.0122056 0.013301 0)
(0.0101143 0.0130864 0)
(0.00797281 0.0124822 0)
(0.00587155 0.0114514 0)
(0.00390684 0.00994552 0)
(0.00218025 0.00790787 0)
(0.000834312 0.005278 0)
(0.000139571 0.00199609 0)
(5.40399e-05 -0.00131362 0)
(0.000238976 -0.00297835 0)
(0.000490728 -0.00384981 0)
(0.000670167 -0.00406175 0)
(0.000690712 -0.00372993 0)
(0.000490406 -0.00295866 0)
(1.90195e-05 -0.00184004 0)
(-0.000763972 -0.000453594 0)
(-0.00189136 0.00113379 0)
(-0.00339027 0.00286791 0)
(-0.00528369 0.00470703 0)
(-0.00759165 0.00662139 0)
(-0.0103322 0.00859209 0)
(-0.0135221 0.0106096 0)
(-0.0171771 0.0126715 0)
(-0.0213118 0.0147803 0)
(-0.0259395 0.0169407 0)
(-0.0310711 0.0191568 0)
(-0.0367138 0.0214301 0)
(-0.0428706 0.0237575 0)
(-0.0495379 0.02613 0)
(-0.0567052 0.0285323 0)
(-0.0643535 0.0309425 0)
(-0.0724549 0.0333326 0)
(-0.080972 0.0356694 0)
(-0.0898583 0.0379155 0)
(-0.0990586 0.040031 0)
(-0.10851 0.0419744 0)
(-0.118143 0.0437041 0)
(-0.127884 0.0451802 0)
(-0.137655 0.0463656 0)
(-0.147379 0.0472271 0)
(-0.156978 0.0477362 0)
(-0.166377 0.0478701 0)
(-0.175506 0.0476121 0)
(-0.184298 0.0469515 0)
(-0.192695 0.0458836 0)
(-0.200641 0.0444094 0)
(-0.208091 0.0425352 0)
(-0.215002 0.0402719 0)
(-0.221339 0.0376344 0)
(-0.227071 0.0346411 0)
(-0.232174 0.0313133 0)
(-0.236624 0.0276747 0)
(-0.240403 0.0237508 0)
(-0.243496 0.0195692 0)
(-0.245888 0.0151587 0)
(-0.247568 0.0105497 0)
(-0.248525 0.00577387 0)
(-0.24875 0.000864614 0)
(-0.248236 -0.00414299 0)
(-0.246976 -0.00921282 0)
(-0.244966 -0.0143061 0)
(-0.242203 -0.0193824 0)
(-0.238685 -0.0243989 0)
(-0.234414 -0.0293108 0)
(-0.229396 -0.0340711 0)
(-0.22364 -0.038631 0)
(-0.217158 -0.0429401 0)
(-0.209969 -0.0469468 0)
(-0.202099 -0.0505993 0)
(-0.193579 -0.0538464 0)
(-0.184448 -0.0566382 0)
(-0.174756 -0.0589281 0)
(-0.164558 -0.0606738 0)
(-0.15392 -0.0618389 0)
(-0.142917 -0.0623947 0)
(-0.131634 -0.0623216 0)
(-0.120161 -0.061611 0)
(-0.108597 -0.0602658 0)
(-0.0970466 -0.0583022 0)
(-0.085616 -0.0557494 0)
(-0.0744134 -0.0526499 0)
(-0.0635456 -0.0490589 0)
(-0.0531148 -0.0450429 0)
(-0.043217 -0.0406781 0)
(-0.0339387 -0.036048 0)
(-0.0253554 -0.031241 0)
(-0.0175296 -0.0263473 0)
(-0.0105094 -0.0214565 0)
(-0.00432793 -0.0166541 0)
(0.000997055 -0.0120194 0)
(0.00546298 -0.00762331 0)
(0.00908186 -0.00352633 0)
(0.0118796 0.000222524 0)
(0.0138949 0.00358583 0)
(0.0151771 0.00653812 0)
(0.0157855 0.00906418 0)
(0.0157876 0.0111575 0)
(0.0152572 0.0128173 0)
(0.0142735 0.0140454 0)
(0.0129192 0.0148418 0)
(0.0112803 0.0152006 0)
(0.00944584 0.0151066 0)
(0.00750797 0.0145315 0)
(0.00556433 0.0134323 0)
(0.0037186 0.0117508 0)
(0.00207961 0.0094145 0)
(0.000794861 0.00633973 0)
(0.00013202 0.0024302 0)
(4.0852e-05 -0.00142496 0)
(0.000146301 -0.00315417 0)
(0.000228153 -0.0039715 0)
(0.000170127 -0.00403869 0)
(-0.00010412 -0.00349194 0)
(-0.000650333 -0.00245089 0)
(-0.00151348 -0.00101891 0)
(-0.00273042 0.000716294 0)
(-0.00433195 0.00268187 0)
(-0.00634457 0.00481926 0)
(-0.0087917 0.00708367 0)
(-0.0116946 0.00944314 0)
(-0.0150729 0.0118773 0)
(-0.0189449 0.0143753 0)
(-0.0233274 0.0169336 0)
(-0.0282356 0.019553 0)
(-0.0336817 0.0222355 0)
(-0.0396741 0.0249817 0)
(-0.0462159 0.0277879 0)
(-0.0533034 0.0306448 0)
(-0.0609252 0.0335358 0)
(-0.0690603 0.0364366 0)
(-0.0776783 0.039316 0)
(-0.0867385 0.0421362 0)
(-0.0961904 0.0448545 0)
(-0.105974 0.0474247 0)
(-0.116023 0.0497988 0)
(-0.126263 0.0519289 0)
(-0.136615 0.0537689 0)
(-0.147 0.0552763 0)
(-0.157338 0.0564133 0)
(-0.167548 0.0571481 0)
(-0.177558 0.0574552 0)
(-0.187296 0.0573165 0)
(-0.196698 0.0567209 0)
(-0.205708 0.0556638 0)
(-0.214275 0.0541474 0)
(-0.222355 0.052179 0)
(-0.22991 0.0497714 0)
(-0.23691 0.0469411 0)
(-0.243326 0.0437081 0)
(-0.249136 0.0400952 0)
(-0.25432 0.0361273 0)
(-0.258863 0.0318309 0)
(-0.262748 0.0272342 0)
(-0.265965 0.0223664 0)
(-0.268499 0.0172576 0)
(-0.270341 0.0119395 0)
(-0.27148 0.00644468 0)
(-0.271905 0.000807316 0)
(-0.271607 -0.00493679 0)
(-0.270578 -0.0107503 0)
(-0.268809 -0.0165933 0)
(-0.266292 -0.0224237 0)
(-0.263022 -0.0281968 0)
(-0.258993 -0.0338653 0)
(-0.254204 -0.0393791 0)
(-0.248656 -0.0446853 0)
(-0.242352 -0.049729 0)
(-0.235304 -0.0544529 0)
(-0.227526 -0.0587988 0)
(-0.219039 -0.0627079 0)
(-0.209875 -0.0661223 0)
(-0.200071 -0.0689864 0)
(-0.189675 -0.0712483 0)
(-0.178745 -0.0728617 0)
(-0.167352 -0.0737883 0)
(-0.155574 -0.0739991 0)
(-0.143502 -0.0734767 0)
(-0.131235 -0.0722172 0)
(-0.118881 -0.0702309 0)
(-0.106552 -0.0675439 0)
(-0.0943674 -0.064198 0)
(-0.0824433 -0.0602502 0)
(-0.070896 -0.0557717 0)
(-0.0598357 -0.0508464 0)
(-0.0493643 -0.0455678 0)
(-0.0395725 -0.0400365 0)
(-0.0305378 -0.0343566 0)
(-0.0223222 -0.0286328 0)
(-0.0149719 -0.0229663 0)
(-0.00851579 -0.0174524 0)
(-0.00296643 -0.0121776 0)
(0.00167997 -0.00721703 0)
(0.00544248 -0.00263374 0)
(0.00835442 0.00152244 0)
(0.0104614 0.00521457 0)
(0.0118202 0.00841812 0)
(0.0124972 0.0111185 0)
(0.0125668 0.0133085 0)
(0.0121095 0.0149844 0)
(0.0112113 0.0161423 0)
(0.00996227 0.0167729 0)
(0.00845639 0.0168571 0)
(0.00679172 0.0163624 0)
(0.00507187 0.0152395 0)
(0.00340637 0.0134207 0)
(0.00190918 0.0108198 0)
(0.000728527 0.007333 0)
(0.000119975 0.00283476 0)
(2.46915e-05 -0.0014835 0)
(3.45661e-05 -0.00318613 0)
(-8.52949e-05 -0.00387155 0)
(-0.000421291 -0.00372767 0)
(-0.00103562 -0.00290916 0)
(-0.00197545 -0.00154881 0)
(-0.00327881 0.00024085 0)
(-0.00497782 0.00236588 0)
(-0.00710065 0.00474911 0)
(-0.00967277 0.00732898 0)
(-0.0127177 0.0100585 0)
(-0.0162576 0.0129041 0)
(-0.020313 0.0158439 0)
(-0.024903 0.0188657 0)
(-0.0300446 0.0219638 0)
(-0.0357518 0.0251362 0)
(-0.0420343 0.0283807 0)
(-0.0488962 0.0316925 0)
(-0.0563343 0.035061 0)
(-0.0643367 0.0384682 0)
(-0.0728816 0.0418883 0)
(-0.0819367 0.0452866 0)
(-0.0914589 0.0486216 0)
(-0.101394 0.0518452 0)
(-0.11168 0.0549053 0)
(-0.122245 0.0577478 0)
(-0.133012 0.0603184 0)
(-0.143899 0.0625649 0)
(-0.154823 0.0644396 0)
(-0.165702 0.0658999 0)
(-0.176457 0.0669105 0)
(-0.187012 0.0674436 0)
(-0.197299 0.0674795 0)
(-0.207256 0.0670065 0)
(-0.216827 0.0660205 0)
(-0.225964 0.064524 0)
(-0.234628 0.0625261 0)
(-0.242784 0.0600405 0)
(-0.250403 0.0570855 0)
(-0.257462 0.0536824 0)
(-0.263939 0.0498554 0)
(-0.269818 0.0456304 0)
(-0.275085 0.0410347 0)
(-0.279726 0.0360969 0)
(-0.283729 0.0308462 0)
(-0.287085 0.0253128 0)
(-0.289783 0.0195276 0)
(-0.291812 0.0135223 0)
(-0.293161 0.00732981 0)
(-0.293822 0.000984375 0)
(-0.293782 -0.00547835 0)
(-0.293032 -0.0120204 0)
(-0.291559 -0.0186018 0)
(-0.289354 -0.0251796 0)
(-0.286405 -0.0317082 0)
(-0.282702 -0.0381386 0)
(-0.278236 -0.0444185 0)
(-0.273001 -0.0504921 0)
(-0.266992 -0.0563006 0)
(-0.260209 -0.0617819 0)
(-0.252657 -0.0668717 0)
(-0.244345 -0.0715042 0)
(-0.235292 -0.0756132 0)
(-0.225524 -0.0791335 0)
(-0.215079 -0.082003 0)
(-0.204003 -0.0841644 0)
(-0.192358 -0.0855676 0)
(-0.180216 -0.0861721 0)
(-0.167661 -0.0859494 0)
(-0.154793 -0.0848853 0)
(-0.141719 -0.0829818 0)
(-0.128559 -0.0802587 0)
(-0.115438 -0.076754 0)
(-0.102484 -0.0725244 0)
(-0.0898284 -0.067644 0)
(-0.0775972 -0.0622028 0)
(-0.0659098 -0.0563039 0)
(-0.0548752 -0.0500601 0)
(-0.0445884 -0.0435903 0)
(-0.0351287 -0.0370153 0)
(-0.0265569 -0.0304539 0)
(-0.0189157 -0.0240188 0)
(-0.0122285 -0.0178137 0)
(-0.00650047 -0.0119307 0)
(-0.00171964 -0.00644803 0)
(0.00214184 -0.00142971 0)
(0.00512634 0.00307478 0)
(0.0072887 0.00702995 0)
(0.00869438 0.0104119 0)
(0.00941811 0.0132055 0)
(0.00954225 0.0154008 0)
(0.0091554 0.0169884 0)
(0.00835137 0.0179546 0)
(0.00722856 0.0182759 0)
(0.00588997 0.0179151 0)
(0.00444415 0.0168168 0)
(0.00300501 0.014905 0)
(0.00168974 0.0120819 0)
(0.000644032 0.00822828 0)
(0.00010514 0.00319791 0)
(5.47306e-06 -0.00147931 0)
(-9.60137e-05 -0.00304947 0)
(-0.000447918 -0.00351499 0)
(-0.0010996 -0.00308752 0)
(-0.00209538 -0.00193722 0)
(-0.00347153 -0.000206985 0)
(-0.0052576 0.00198444 0)
(-0.00748004 0.00453934 0)
(-0.0101639 0.00737822 0)
(-0.0133332 0.0104379 0)
(-0.0170114 0.0136702 0)
(-0.0212207 0.0170401 0)
(-0.0259822 0.0205245 0)
(-0.0313147 0.0241087 0)
(-0.037234 0.0277842 0)
(-0.0437515 0.0315444 0)
(-0.0508727 0.0353816 0)
(-0.0585953 0.0392832 0)
(-0.0669081 0.0432299 0)
(-0.075789 0.0471934 0)
(-0.0852049 0.0511368 0)
(-0.0951111 0.0550145 0)
(-0.105452 0.0587739 0)
(-0.116161 0.0623573 0)
(-0.127164 0.0657044 0)
(-0.138381 0.0687547 0)
(-0.149729 0.0714502 0)
(-0.16112 0.0737373 0)
(-0.172473 0.0755692 0)
(-0.183705 0.0769067 0)
(-0.194743 0.0777193 0)
(-0.205518 0.0779858 0)
(-0.215969 0.0776937 0)
(-0.226042 0.0768387 0)
(-0.235693 0.0754243 0)
(-0.244883 0.0734602 0)
(-0.253581 0.0709617 0)
(-0.261759 0.0679481 0)
(-0.269396 0.0644424 0)