/*--------------------------------*- C++ -*----------------------------------*\
  =========                 |
  \\      /  F ield         | OpenFOAM: The Open Source CFD Toolbox
   \\    /   O peration     | Website:  https://openfoam.org
    \\  /    A nd           | Version:  9
     \\/     M anipulation  |
\*---------------------------------------------------------------------------*/
FoamFile
{
    format      ascii;
    class       volScalarField;
    location    "3.5";
    object      p;
}
// * * * * * * * * * * * * * * * * * * * * * * * * * * * * * * * * * * * * * //

dimensions      [0 2 -2 0 0 0 0];

internalField   nonuniform List<scalar> 
1250
(
-0.0159051
-0.0160648
-0.0172819
-0.0174135
-0.0175927
-0.0178714
-0.0182902
-0.0188749
-0.019645
-0.0206163
-0.0218008
-0.0232082
-0.0248441
-0.0267101
-0.0288021
-0.0311103
-0.033619
-0.0363068
-0.0391479
-0.0421128
-0.04517
-0.0482868
-0.0514317
-0.0545745
-0.0576881
-0.0607491
-0.0637379
-0.0666392
-0.0694413
-0.0721362
-0.0747191
-0.0771874
-0.0795406
-0.0817794
-0.0839054
-0.0859207
-0.0186333
-0.0187363
-0.0189021
-0.0191766
-0.019597
-0.0201884
-0.0209695
-0.0219546
-0.0231552
-0.0245797
-0.0262332
-0.0281163
-0.0302243
-0.0325464
-0.0350662
-0.037762
-0.0406072
-0.0435721
-0.046625
-0.0497335
-0.0528661
-0.0559933
-0.0590887
-0.0621293
-0.0650965
-0.0679755
-0.0707554
-0.073429
-0.0759915
-0.0784411
-0.0807773
-0.0830009
-0.0851138
-0.0871178
-0.0890153
-0.0908082
-0.0924984
-0.0940875
-0.0955765
-0.0969665
-0.0982579
-0.099451
-0.100546
-0.019949
-0.0200233
-0.0201744
-0.0204432
-0.0208633
-0.021459
-0.0222482
-0.0232441
-0.024457
-0.0258947
-0.0275612
-0.0294564
-0.031575
-0.0339056
-0.0364311
-0.0391294
-0.0419735
-0.0449337
-0.0479781
-0.0510747
-0.0541921
-0.0573016
-0.0603771
-0.0633965
-0.0663418
-0.0691988
-0.0719572
-0.0746102
-0.0771536
-0.0795856
-0.081906
-0.0841158
-0.0862167
-0.0882107
-0.0900998
-0.091886
-0.093571
-0.0951561
-0.0966423
-0.0980304
-0.0993208
-0.100514
-0.101609
-0.102607
-0.103506
-0.104308
-0.105011
-0.105616
-0.106121
-0.0212205
-0.0212645
-0.0214006
-0.0216621
-0.0220798
-0.0226775
-0.023472
-0.0244755
-0.0256974
-0.0271441
-0.0288193
-0.0307221
-0.0328464
-0.0351804
-0.0377067
-0.0404026
-0.0432412
-0.0461925
-0.0492249
-0.0523064
-0.0554065
-0.0584965
-0.0615512
-0.064549
-0.0674724
-0.0703079
-0.0730457
-0.0756792
-0.0782046
-0.0806204
-0.0829264
-0.0851237
-0.0872139
-0.0891989
-0.0910806
-0.0928609
-0.0945414
-0.0961231
-0.097607
-0.0989937
-0.100283
-0.101476
-0.102572
-0.10357
-0.104471
-0.105274
-0.105979
-0.106585
-0.107093
-0.0224375
-0.0224522
-0.0225727
-0.022825
-0.0232382
-0.0238356
-0.0246327
-0.0256408
-0.026868
-0.0283202
-0.0300001
-0.031906
-0.0340315
-0.0363644
-0.0388868
-0.041576
-0.044405
-0.0473439
-0.0503613
-0.0534255
-0.0565063
-0.0595757
-0.062609
-0.0655851
-0.068487
-0.0713018
-0.0740199
-0.0766352
-0.0791441
-0.081545
-0.083838
-0.086024
-0.0881046
-0.0900817
-0.091957
-0.0937323
-0.095409
-0.096988
-0.09847
-0.0998556
-0.101145
-0.102338
-0.103434
-0.104433
-0.105335
-0.10614
-0.106846
-0.107454
-0.107963
-0.0235927
-0.0235785
-0.0236826
-0.0239251
-0.024331
-0.0249258
-0.0257229
-0.0267325
-0.0279619
-0.029416
-0.0310967
-0.0330017
-0.0351243
-0.0374518
-0.0399663
-0.042645
-0.0454609
-0.0483843
-0.051384
-0.0544289
-0.0574891
-0.0605371
-0.0635487
-0.0665034
-0.0693845
-0.0721795
-0.0748792
-0.0774775
-0.0799712
-0.0823586
-0.0846399
-0.0868159
-0.0888882
-0.0908584
-0.0927284
-0.0944994
-0.096173
-0.0977498
-0.0992305
-0.100615
-0.101905
-0.103098
-0.104195
-0.105195
-0.106099
-0.106904
-0.107612
-0.108222
-0.108733
-0.0246796
-0.0246372
-0.0247239
-0.0249544
-0.0253529
-0.0259421
-0.0267363
-0.0277445
-0.0289729
-0.0304255
-0.0321033
-0.0340038
-0.0361195
-0.0384378
-0.0409407
-0.0436054
-0.0464051
-0.0493103
-0.0522903
-0.0553143
-0.0583529
-0.061379
-0.0643689
-0.0673025
-0.0701637
-0.0729399
-0.0756224
-0.0782052
-0.0806851
-0.0830605
-0.0853314
-0.0874987
-0.0895638
-0.0915283
-0.0933937
-0.0951614
-0.0968325
-0.0984078
-0.0998877
-0.101272
-0.102562
-0.103756
-0.104854
-0.105855
-0.10676
-0.107567
-0.108277
-0.108888
-0.1094
-0.0256925
-0.0256227
-0.0256916
-0.0259089
-0.0262973
-0.0268789
-0.0276676
-0.0286715
-0.0298959
-0.0313437
-0.0330154
-0.0349077
-0.037013
-0.0393186
-0.0418065
-0.044454
-0.0472347
-0.0501194
-0.0530778
-0.0560795
-0.0590957
-0.0620997
-0.0650681
-0.0679813
-0.0708233
-0.073582
-0.0762486
-0.0788173
-0.0812848
-0.0836496
-0.0859116
-0.0880715
-0.0901307
-0.0920904
-0.0939523
-0.0957175
-0.0973869
-0.0989613
-0.100441
-0.101826
-0.103116
-0.104311
-0.10541
-0.106413
-0.10732
-0.108128
-0.10884
-0.109452
-0.109966
-0.0266268
-0.0265306
-0.0265813
-0.0267843
-0.0271605
-0.0277322
-0.0285127
-0.0295095
-0.0307268
-0.0321667
-0.0338289
-0.0357097
-0.0378013
-0.0400908
-0.0425606
-0.0451881
-0.0479473
-0.0508094
-0.0537446
-0.056723
-0.0597161
-0.0626978
-0.0656451
-0.0685386
-0.0713625
-0.0741048
-0.0767569
-0.0793129
-0.0817695
-0.0841251
-0.0863796
-0.0885334
-0.0905877
-0.0925439
-0.0944032
-0.0961667
-0.0978353
-0.0994094
-0.100889
-0.102275
-0.103566
-0.104763
-0.105864
-0.106868
-0.107776
-0.108587
-0.1093
-0.109915
-0.11043
-0.0274788
-0.0273576
-0.02739
-0.0275774
-0.0279395
-0.0284989
-0.0292687
-0.0302555
-0.0314627
-0.0328916
-0.0345411
-0.0364073
-0.0384819
-0.040752
-0.0432012
-0.0458058
-0.048541
-0.0513786
-0.0542891
-0.0572432
-0.0602129
-0.0631723
-0.0660988
-0.0689732
-0.07178
-0.0745072
-0.0771461
-0.0796909
-0.0821381
-0.084486
-0.0867342
-0.0888832
-0.090934
-0.0928877
-0.0947455
-0.0965082
-0.0981767
-0.0997514
-0.101232
-0.102619
-0.103912
-0.10511
-0.106213
-0.10722
-0.108131
-0.108943
-0.109658
-0.110275
-0.110792
-0.0282462
-0.0281013
-0.0281153
-0.0282862
-0.0286325
-0.0291772
-0.0299335
-0.0309075
-0.0321016
-0.0335164
-0.0351502
-0.0369986
-0.0390532
-0.0413015
-0.0437261
-0.0463055
-0.0490147
-0.051826
-0.0547105
-0.0576393
-0.060585
-0.0635221
-0.0664282
-0.0692842
-0.0720749
-0.0747881
-0.0774152
-0.0799502
-0.0823894
-0.084731
-0.0869745
-0.0891201
-0.0911685
-0.0931209
-0.0949782
-0.0967412
-0.0984105
-0.0999865
-0.101469
-0.102858
-0.104153
-0.105354
-0.106459
-0.107469
-0.108382
-0.109197
-0.109914
-0.110533
-0.111052
-0.0289276
-0.0287605
-0.0287562
-0.0289096
-0.0292384
-0.0297663
-0.0305064
-0.0314645
-0.0326425
-0.0340401
-0.0356551
-0.0374826
-0.0395142
-0.0417374
-0.0441353
-0.0466869
-0.0493678
-0.0521509
-0.0550079
-0.0579105
-0.0608317
-0.0637464
-0.0666323
-0.0694707
-0.0722462
-0.0749466
-0.0775631
-0.0800896
-0.0825224
-0.0848592
-0.0870993
-0.0892427
-0.0912902
-0.0932425
-0.0951005
-0.0968648
-0.0985359
-0.100114
-0.101599
-0.102991
-0.104289
-0.105493
-0.106601
-0.107614
-0.0295225
-0.029335
-0.0293127
-0.0294478
-0.0297575
-0.0302661
-0.0309873
-0.0319266
-0.0330854
-0.0344627
-0.0360558
-0.0378592
-0.0398647
-0.0420599
-0.0444284
-0.0469497
-0.0496
-0.052353
-0.0551811
-0.0580565
-0.0609525
-0.0638446
-0.0667106
-0.0695319
-0.0722929
-0.0749815
-0.0775887
-0.0801082
-0.0825358
-0.0848692
-0.0871074
-0.0892502
-0.091298
-0.0932515
-0.0951113
-0.096878
-0.098552
-0.100133
-0.101622
-0.103017
-0.104319
-0.105527
-0.106639
-0.107655
-0.0300315
-0.0298255
-0.0297856
-0.0299017
-0.0301907
-0.030678
-0.0313775
-0.032295
-0.0334313
-0.0347852
-0.036353
-0.0381293
-0.0401055
-0.0422697
-0.0446059
-0.0470942
-0.0497117
-0.0524326
-0.05523
-0.058077
-0.0609472
-0.0638162
-0.0666624
-0.0694668
-0.0722141
-0.0748919
-0.077491
-0.0800046
-0.0824285
-0.0847599
-0.0869976
-0.0891411
-0.0911907
-0.0931467
-0.0950097
-0.0967801
-0.0984581
-0.100044
-0.101537
-0.102937
-0.104243
-0.105455
-0.106572
-0.107592
-0.0304562
-0.0302334
-0.0301765
-0.0302732
-0.0305402
-0.0310039
-0.031679
-0.0325715
-0.0336822
-0.0350091
-0.0365484
-0.0382942
-0.040238
-0.042368
-0.0446689
-0.0471215
-0.0497035
-0.0523901
-0.0551552
-0.0579722
-0.0608155
-0.063661
-0.0664871
-0.069275
-0.0720091
-0.0746769
-0.0772687
-0.0797778
-0.0821992
-0.08453
-0.0867687
-0.0889144
-0.0909672
-0.0929272
-0.0947947
-0.0965701
-0.0982534
-0.0998445
-0.101343
-0.102749
-0.104061
-0.105278
-0.1064
-0.107426
-0.0307986
-0.0305613
-0.030488
-0.030565
-0.0308087
-0.0312468
-0.0318948
-0.0327591
-0.0338407
-0.0351372
-0.0366444
-0.0383562
-0.0402642
-0.0423567
-0.0446191
-0.047033
-0.0495768
-0.0522267
-0.0549573
-0.0577427
-0.0605579
-0.063379
-0.0661845
-0.0689558
-0.071677
-0.0743353
-0.0769209
-0.0794264
-0.0818467
-0.0841783
-0.0864194
-0.0885689
-0.0906263
-0.0925918
-0.0944654
-0.0962471
-0.0979371
-0.099535
-0.101041
-0.102453
-0.103772
-0.104996
-0.106124
-0.107156
-0.0310619
-0.030812
-0.0307233
-0.0307804
-0.0309998
-0.0314103
-0.0320285
-0.0328614
-0.0339103
-0.0351727
-0.0366442
-0.0383184
-0.0401868
-0.0422384
-0.0444588
-0.0468307
-0.0493333
-0.0519437
-0.0546374
-0.0573892
-0.0601746
-0.0629701
-0.0657544
-0.0685087
-0.0712171
-0.0738664
-0.0764464
-0.0789494
-0.0813697
-0.0837035
-0.0859484
-0.0881031
-0.0901669
-0.0921394
-0.0940206
-0.0958103
-0.0975085
-0.0991147
-0.100628
-0.102049
-0.103376
-0.104608
-0.105744
-0.106782
-0.0312497
-0.0309894
-0.0308861
-0.0309234
-0.0311177
-0.0314988
-0.0320845
-0.0328829
-0.0338954
-0.0351199
-0.0365516
-0.0381842
-0.0400092
-0.042016
-0.0441908
-0.046517
-0.0489751
-0.0515429
-0.0541969
-0.0569128
-0.0596664
-0.0624348
-0.0651967
-0.0679334
-0.0706287
-0.0732693
-0.0758443
-0.0783455
-0.0807669
-0.0831041
-0.0853544
-0.0875159
-0.0895876
-0.0915689
-0.0934594
-0.0952587
-0.0969667
-0.0985828
-0.100106
-0.101537
-0.102873
-0.104114
-0.105258
-0.106305
-0.0313662
-0.0310975
-0.0309809
-0.0309986
-0.0311672
-0.0315173
-0.032068
-0.0328285
-0.0338009
-0.0349834
-0.0363712
-0.037958
-0.0397354
-0.0416932
-0.0438183
-0.0460951
-0.0485048
-0.0510266
-0.0536377
-0.0563148
-0.0590342
-0.0617735
-0.0645117
-0.0672298
-0.0699116
-0.0725432
-0.0751134
-0.0776136
-0.0800371
-0.082379
-0.0846361
-0.086806
-0.0888873
-0.090879
-0.0927806
-0.0945914
-0.096311
-0.0979387
-0.0994738
-0.100915
-0.102262
-0.103514
-0.104669
-0.105725
-0.0314159
-0.0311411
-0.0310123
-0.0310109
-0.0311534
-0.0314711
-0.0319845
-0.0327039
-0.0336324
-0.0347686
-0.0361081
-0.0376445
-0.0393698
-0.0412741
-0.0433452
-0.0455681
-0.0479254
-0.0503972
-0.0529619
-0.0555969
-0.0582793
-0.0609872
-0.0636997
-0.0663978
-0.0690652
-0.0716875
-0.0742531
-0.0767527
-0.0791791
-0.0815268
-0.083792
-0.0859719
-0.0880646
-0.0900687
-0.0919832
-0.0938074
-0.0955406
-0.0971818
-0.0987303
-0.100185
-0.101545
-0.102808
-0.103975
-0.105042
-0.031404
-0.0311252
-0.0309855
-0.0309657
-0.0310819
-0.0313661
-0.03184
-0.0325151
-0.0333958
-0.0344814
-0.0357679
-0.0372492
-0.0389175
-0.0407635
-0.0427756
-0.0449401
-0.0472403
-0.0496578
-0.0521719
-0.054761
-0.0574032
-0.0600768
-0.0627612
-0.0654377
-0.0680893
-0.0707016
-0.0732624
-0.0757617
-0.0781916
-0.0805462
-0.0828209
-0.0850124
-0.0871182
-0.0891366
-0.0910661
-0.0929058
-0.0946546
-0.0963114
-0.0978753
-0.099345
-0.100719
-0.101997
-0.103177
-0.104257
-0.0313355
-0.0310548
-0.0309057
-0.0308684
-0.0309585
-0.0312084
-0.0316408
-0.0322687
-0.0330978
-0.0341283
-0.0353568
-0.0367778
-0.0383839
-0.0401663
-0.0421143
-0.044215
-0.0464532
-0.0488115
-0.0512705
-0.0538096
-0.0564077
-0.0590436
-0.0616973
-0.0643498
-0.0669841
-0.0695853
-0.0721407
-0.0746397
-0.0770737
-0.0794361
-0.0817215
-0.0839261
-0.0860469
-0.0880815
-0.0900282
-0.0918856
-0.0936522
-0.0953269
-0.0969083
-0.0983953
-0.0997864
-0.10108
-0.102275
-0.10337
-0.0312161
-0.0309354
-0.0307784
-0.0307245
-0.030789
-0.0310041
-0.0313934
-0.0319713
-0.032745
-0.0337158
-0.0348813
-0.0362366
-0.0377748
-0.039488
-0.0413662
-0.0433976
-0.0455683
-0.047862
-0.0502608
-0.0527452
-0.0552948
-0.0578894
-0.0605089
-0.0631348
-0.0657497
-0.0683384
-0.0708876
-0.073386
-0.0758245
-0.0781953
-0.0804927
-0.082712
-0.0848495
-0.0869024
-0.0888685
-0.0907458
-0.0925326
-0.0942276
-0.095829
-0.0973355
-0.0987455
-0.100057
-0.10127
-0.102381
-0.031051
-0.0307724
-0.030609
-0.0305399
-0.0305794
-0.0307594
-0.0311044
-0.0316298
-0.0323444
-0.0332511
-0.0343483
-0.0356321
-0.0370966
-0.0387344
-0.0405367
-0.0424927
-0.0445899
-0.0468133
-0.0491463
-0.0515707
-0.0540671
-0.0566159
-0.0591976
-0.0617936
-0.0643867
-0.0669611
-0.0695029
-0.0720002
-0.074443
-0.076823
-0.0791334
-0.0813688
-0.0835249
-0.0855982
-0.0875858
-0.0894855
-0.0912951
-0.0930128
-0.0946369
-0.0961654
-0.0975969
-0.0989294
-0.100161
-0.101291
-0.0308459
-0.0305712
-0.030403
-0.03032
-0.0303355
-0.0304807
-0.0307803
-0.0312511
-0.0319033
-0.0327412
-0.0337648
-0.0349713
-0.0363557
-0.0379116
-0.0396314
-0.0415055
-0.0435227
-0.0456695
-0.0479308
-0.0502894
-0.0527272
-0.0552254
-0.057765
-0.0603277
-0.0628959
-0.0654537
-0.0679866
-0.070482
-0.072929
-0.0753185
-0.0776428
-0.0798957
-0.0820721
-0.0841678
-0.0861794
-0.088104
-0.0899391
-0.0916823
-0.0933315
-0.0948849
-0.0963404
-0.0976961
-0.0989501
-0.100101
-0.0306061
-0.030337
-0.0301656
-0.0300702
-0.0300629
-0.0301739
-0.0304277
-0.030842
-0.0314286
-0.0321934
-0.0331381
-0.0342611
-0.0355588
-0.037026
-0.0386563
-0.0404415
-0.0423717
-0.0444352
-0.0466181
-0.0489048
-0.0512782
-0.0537206
-0.0562134
-0.0587386
-0.0612786
-0.0638172
-0.0663393
-0.0688315
-0.0712823
-0.0736814
-0.0760203
-0.078292
-0.0804905
-0.0826107
-0.0846487
-0.0866007
-0.0884639
-0.0902354
-0.0919128
-0.0934938
-0.0949762
-0.0963578
-0.0976366
-0.0988106
-0.0303369
-0.030075
-0.0299019
-0.0297958
-0.0297672
-0.0298448
-0.0300527
-0.0304092
-0.0309273
-0.0316149
-0.0324752
-0.0335085
-0.0347126
-0.0360839
-0.0376173
-0.0393061
-0.0411421
-0.043115
-0.0452125
-0.0474207
-0.0497236
-0.0521043
-0.0545452
-0.0570284
-0.0595365
-0.0620528
-0.0645618
-0.0670494
-0.0695031
-0.0719118
-0.074266
-0.0765576
-0.0787797
-0.0809265
-0.0829931
-0.0849752
-0.0868693
-0.0886721
-0.0903807
-0.0919923
-0.0935046
-0.0949151
-0.0962214
-0.0974216
-0.0300433
-0.0297901
-0.0296169
-0.0295017
-0.0294535
-0.0294989
-0.0296611
-0.0299589
-0.0304062
-0.0310126
-0.0317833
-0.0327206
-0.0338241
-0.0350919
-0.0365206
-0.0381051
-0.039839
-0.0417137
-0.0437187
-0.0458412
-0.0480669
-0.0503799
-0.0527633
-0.0551997
-0.0576717
-0.0601623
)
;

boundaryField
{
    movingWall
    {
        type            zeroGradient;
    }
    fixedWalls
    {
        type            zeroGradient;
    }
    frontAndBack
    {
        type            empty;
    }
    procBoundary3to0
    {
        type            processor;
        value           nonuniform List<scalar> 
29
(
-0.0145139
-0.0147009
-0.0162563
-0.0162563
-0.0165377
-0.0169529
-0.0175284
-0.0182849
-0.019239
-0.0204038
-0.0217896
-0.0234032
-0.0252468
-0.0273173
-0.0296056
-0.032097
-0.034771
-0.0376022
-0.0405617
-0.0436182
-0.0467392
-0.0498926
-0.0530481
-0.056178
-0.0592579
-0.0622677
-0.0651909
-0.0680155
-0.0707326
)
;
    }
    procBoundary3to1
    {
        type            processor;
        value           nonuniform List<scalar> 
23
(
-0.0733367
-0.075825
-0.0781964
-0.0804516
-0.082592
-0.0846197
-0.0878275
-0.0878275
-0.0896281
-0.0913244
-0.092918
-0.0944104
-0.0958026
-0.0970954
-0.0982891
-0.099384
-0.101543
-0.101543
-0.102442
-0.103242
-0.103943
-0.104546
-0.10505
)
;
    }
    procBoundary3to2
    {
        type            processor;
        value           nonuniform List<scalar> 
45
(
-0.0626557
-0.0651368
-0.0675924
-0.0700103
-0.0723801
-0.0746925
-0.0769398
-0.0791151
-0.0812127
-0.0832276
-0.0851555
-0.0869926
-0.0887354
-0.0903809
-0.0919262
-0.0933686
-0.0947055
-0.0959348
-0.0297299
-0.0294868
-0.029315
-0.0291926
-0.0291265
-0.0291412
-0.0292585
-0.0294969
-0.0298714
-0.030393
-0.0310692
-0.0319042
-0.0328999
-0.0340564
-0.0353722
-0.0368443
-0.038468
-0.0402366
-0.0421411
-0.0441707
-0.0463123
-0.0485512
-0.0508713
-0.0532557
-0.0556871
-0.0626557
-0.0581483
)
;
    }
    procBoundary3to5
    {
        type            processor;
        value           nonuniform List<scalar> 
21
(
-0.10853
-0.109348
-0.110068
-0.110689
-0.11121
-0.10853
-0.108574
-0.108516
-0.108354
-0.10809
-0.107723
-0.107254
-0.106683
-0.10601
-0.105237
-0.104363
-0.103389
-0.102317
-0.101146
-0.0998778
-0.0985134
)
;
    }
    procBoundary3to6
    {
        type            processor;
        value           nonuniform List<scalar> 9(-0.106528 -0.107501 -0.108374 -0.109145 -0.109814 -0.110381 -0.110847 -0.11121 -0.111472);
    }
}


// ************************************************************************* //
