/*--------------------------------*- C++ -*----------------------------------*\
  =========                 |
  \\      /  F ield         | OpenFOAM: The Open Source CFD Toolbox
   \\    /   O peration     | Website:  https://openfoam.org
    \\  /    A nd           | Version:  9
     \\/     M anipulation  |
\*---------------------------------------------------------------------------*/
FoamFile
{
    format      ascii;
    class       volScalarField;
    location    "1";
    object      p;
}
// * * * * * * * * * * * * * * * * * * * * * * * * * * * * * * * * * * * * * //

dimensions      [0 2 -2 0 0 0 0];

internalField   nonuniform List<scalar> 
1260
(
-0.0729453
-0.07535
-0.0776314
-0.0797861
-0.0818104
-0.0836981
-0.0854419
-0.0870337
-0.0884648
-0.0897259
-0.0908077
-0.0917016
-0.0923999
-0.0928962
-0.0931856
-0.0932653
-0.0931342
-0.0927936
-0.0922467
-0.0914985
-0.0905566
-0.08943
-0.0881299
-0.0866691
-0.0850627
-0.0833267
-0.0736342
-0.0760622
-0.078368
-0.0805479
-0.0825974
-0.0845101
-0.0862785
-0.087894
-0.0893474
-0.090629
-0.0917293
-0.0926392
-0.0933509
-0.0938577
-0.0941547
-0.0942388
-0.094109
-0.0937663
-0.0932138
-0.0924569
-0.0915026
-0.0903604
-0.0890412
-0.087558
-0.085926
-0.0841615
-0.0741541
-0.076603
-0.0789307
-0.0811329
-0.0832045
-0.085139
-0.0869284
-0.088564
-0.0900361
-0.0913349
-0.0924505
-0.0933737
-0.0940964
-0.0946118
-0.094915
-0.0950026
-0.0948737
-0.0945291
-0.093972
-0.0932075
-0.0922428
-0.0910871
-0.0897515
-0.0882492
-0.086595
-0.0848057
-0.0745012
-0.0769686
-0.0793151
-0.0815363
-0.0836266
-0.0855792
-0.087386
-0.0890379
-0.0905252
-0.0918376
-0.0929653
-0.0938989
-0.0946302
-0.0951523
-0.0954602
-0.0955504
-0.095422
-0.0950756
-0.0945144
-0.0937435
-0.09277
-0.091603
-0.0902536
-0.088735
-0.0870621
-0.0852516
-0.0746718
-0.0771548
-0.0795171
-0.0817539
-0.0838595
-0.0858267
-0.0876471
-0.0893117
-0.0908104
-0.092133
-0.0932697
-0.0942109
-0.0949484
-0.0954752
-0.0957862
-0.0958781
-0.0957496
-0.0954015
-0.0948368
-0.0940604
-0.0930795
-0.0919032
-0.0905424
-0.0890102
-0.0873216
-0.0854935
-0.0746637
-0.0771593
-0.0795343
-0.0817836
-0.0839009
-0.0858791
-0.0877095
-0.0893831
-0.0908898
-0.0922194
-0.0933618
-0.0943079
-0.0950492
-0.0955788
-0.0958915
-0.095984
-0.0958549
-0.095505
-0.094937
-0.0941561
-0.093169
-0.0919849
-0.0906148
-0.0890716
-0.0873702
-0.0855277
-0.0744757
-0.0769809
-0.0793655
-0.081624
-0.0837499
-0.0857356
-0.0875727
-0.0892518
-0.0907631
-0.0920965
-0.0932419
-0.0941902
-0.094933
-0.0954635
-0.0957764
-0.0958684
-0.0957381
-0.0953861
-0.0948152
-0.0940303
-0.0930382
-0.0918478
-0.0904701
-0.0889181
-0.0872066
-0.0853525
-0.0741075
-0.0766194
-0.0790107
-0.0812754
-0.0834066
-0.0853968
-0.0872373
-0.0889189
-0.0904318
-0.091766
-0.0929117
-0.0938598
-0.094602
-0.0951316
-0.0954433
-0.0955338
-0.0954015
-0.0950472
-0.0944735
-0.093685
-0.0926887
-0.0914933
-0.0901097
-0.0885507
-0.0868313
-0.0849682
-0.0735598
-0.0760755
-0.0784707
-0.0807388
-0.0828726
-0.0848644
-0.0867055
-0.0883869
-0.0898987
-0.0912312
-0.0923747
-0.0933204
-0.0940601
-0.0945871
-0.0948962
-0.0949842
-0.0948494
-0.0944924
-0.0939158
-0.0931242
-0.0921243
-0.0909249
-0.0895366
-0.0879724
-0.0862471
-0.0843774
-0.0728345
-0.0753512
-0.0777476
-0.0800164
-0.0821503
-0.0841413
-0.0859806
-0.0876593
-0.0891677
-0.0904963
-0.0916357
-0.0925771
-0.0933126
-0.0938356
-0.094141
-0.0942255
-0.0940875
-0.0937274
-0.0931479
-0.0923534
-0.0913505
-0.0901479
-0.0887562
-0.0871881
-0.0854586
-0.0835845
-0.0719346
-0.0744493
-0.0768443
-0.0791116
-0.0812434
-0.0832314
-0.085067
-0.086741
-0.0882442
-0.0895672
-0.0907007
-0.0916363
-0.0923662
-0.092884
-0.0931846
-0.0932649
-0.0931231
-0.0927597
-0.0921772
-0.09138
-0.0903745
-0.0891693
-0.0877751
-0.0862046
-0.0844724
-0.0825957
-0.0708641
-0.0733741
-0.0757652
-0.0780288
-0.0801565
-0.0821399
-0.08397
-0.085638
-0.0871345
-0.0884504
-0.0895768
-0.0905054
-0.0912287
-0.0917403
-0.0920355
-0.0921108
-0.0919648
-0.0915979
-0.0910123
-0.0902125
-0.0892049
-0.0879978
-0.086602
-0.08503
-0.0832967
-0.081419
-0.0696286
-0.0721309
-0.0745158
-0.0767736
-0.0788955
-0.0808727
-0.0826961
-0.0843568
-0.0858456
-0.0871536
-0.0882721
-0.0891929
-0.0899088
-0.0904137
-0.0907028
-0.0907728
-0.0906224
-0.0902517
-0.0896632
-0.088861
-0.0878516
-0.0866433
-0.0852467
-0.0836745
-0.0819413
-0.0800642
-0.0682351
-0.0707267
-0.0731027
-0.0753526
-0.0774672
-0.0794369
-0.0812526
-0.0829053
-0.0843858
-0.0856853
-0.0867953
-0.0877079
-0.0884161
-0.088914
-0.0891968
-0.0892615
-0.0891065
-0.0887322
-0.0881408
-0.0873367
-0.0863261
-0.0851173
-0.0837208
-0.0821494
-0.0804177
-0.0785429
-0.0666924
-0.0691697
-0.0715341
-0.0737741
-0.0758797
-0.0778408
-0.079648
-0.0812921
-0.0827639
-0.0840547
-0.0851561
-0.0860606
-0.0867611
-0.087252
-0.0875286
-0.087588
-0.0874287
-0.0870511
-0.0864574
-0.0856519
-0.0846407
-0.0834323
-0.0820371
-0.0804677
-0.0787391
-0.0768682
-0.0650109
-0.0674703
-0.06982
-0.0720478
-0.0741426
-0.076094
-0.077892
-0.079527
-0.08099
-0.0822722
-0.0833653
-0.0842618
-0.084955
-0.0854393
-0.0857102
-0.0857649
-0.0856018
-0.0852215
-0.0846262
-0.0838201
-0.0828093
-0.0816024
-0.0802097
-0.078644
-0.0769201
-0.075055
-0.0730678
-0.0709795
-0.0688128
-0.0632025
-0.0656402
-0.0679722
-0.0701851
-0.0722673
-0.0742077
-0.0759956
-0.0776213
-0.0790755
-0.0803492
-0.0814344
-0.0823236
-0.0830102
-0.0834886
-0.0837546
-0.0838053
-0.0836394
-0.0832574
-0.0826615
-0.0818559
-0.080847
-0.079643
-0.0782544
-0.0766941
-0.0749768
-0.0731196
-0.0711417
-0.0690641
-0.0669093
-0.0612818
-0.0636935
-0.0660042
-0.0681995
-0.070267
-0.0721947
-0.0739717
-0.0755877
-0.077033
-0.0782987
-0.0793766
-0.0802592
-0.08094
-0.0814136
-0.0816758
-0.0817237
-0.0815563
-0.0811739
-0.0805789
-0.0797755
-0.07877
-0.0775708
-0.0761884
-0.0746355
-0.0729271
-0.0710803
-0.0691141
-0.0670495
-0.0649092
-0.0592659
-0.0616468
-0.0639321
-0.0661066
-0.0681568
-0.0700702
-0.0718351
-0.0734408
-0.0748772
-0.0761352
-0.0772064
-0.0780834
-0.0787595
-0.0792296
-0.0794893
-0.0795361
-0.0793689
-0.0789877
-0.0783954
-0.0775962
-0.0765963
-0.075404
-0.0740301
-0.0724872
-0.0707903
-0.0689565
-0.0670047
-0.064956
-0.0628328
-0.0571735
-0.0595185
-0.0617742
-0.0639241
-0.0659543
-0.0678513
-0.0696027
-0.0711972
-0.0726245
-0.0738751
-0.0749403
-0.0758126
-0.0764854
-0.0769534
-0.0772124
-0.0772597
-0.0770942
-0.0767169
-0.0761297
-0.0753369
-0.0743451
-0.0731626
-0.0717999
-0.0702699
-0.0685874
-0.0667695
-0.0648351
-0.0628051
-0.0607018
-0.0550246
-0.0573289
-0.0595504
-0.0616721
-0.0636791
-0.0655572
-0.0672935
-0.0688759
-0.0702937
-0.0715369
-0.0725967
-0.0734653
-0.0741361
-0.0746036
-0.0748638
-0.0749139
-0.0747528
-0.0743813
-0.0738017
-0.0730183
-0.0720375
-0.0708677
-0.0695194
-0.0680055
-0.0663407
-0.0645419
-0.0626281
-0.0606198
-0.0585392
-0.052841
-0.0550998
-0.0572828
-0.0593724
-0.0613529
-0.0632097
-0.0649288
-0.0664979
-0.0679055
-0.0691413
-0.0701961
-0.071062
-0.0717321
-0.0722009
-0.0724642
-0.0725194
-0.0723652
-0.0720024
-0.0714333
-0.0706623
-0.0696957
-0.068542
-0.0672117
-0.0657173
-0.0640737
-0.0622976
-0.0604077
-0.0584243
-0.0563692
-0.0506454
-0.0528543
-0.0549948
-0.0570484
-0.0589992
-0.0608318
-0.0625318
-0.0640861
-0.0654827
-0.0667109
-0.0677612
-0.0686252
-0.069296
-0.0697677
-0.0700363
-0.0700988
-0.0699542
-0.0696031
-0.0690476
-0.0682924
-0.0673436
-0.0662096
-0.0649008
-0.0634298
-0.0618111
-0.0600612
-0.0581985
-0.0562431
-0.0542162
-0.0484609
-0.0506161
-0.0527103
-0.0547246
-0.0566426
-0.0584485
-0.0601272
-0.0616651
-0.0630498
-0.0642701
-0.065316
-0.0661789
-0.0668516
-0.067328
-0.0676039
-0.0676763
-0.067544
-0.0672075
-0.0666691
-0.0659331
-0.0650057
-0.0638952
-0.0626118
-0.0611679
-0.0595778
-0.0578577
-0.0560257
-0.0541012
-0.0521053
-0.0463102
-0.0484088
-0.0504537
-0.0524257
-0.0543082
-0.0560849
-0.0577404
-0.0592606
-0.0606324
-0.0618444
-0.0628861
-0.0637485
-0.0644242
-0.064907
-0.0651922
-0.0652768
-0.0651595
-0.0648407
-0.0643227
-0.0636095
-0.0627072
-0.0616239
-0.0603698
-0.0589568
-0.0573989
-0.0557122
-0.053914
-0.0520234
-0.0500606
-0.0442146
-0.0462549
-0.0482484
-0.0501759
-0.0520207
-0.0537664
-0.0553971
-0.0568982
-0.0582563
-0.0594596
-0.0604972
-0.0613598
-0.0620396
-0.0625301
-0.0628266
-0.0629259
-0.0628263
-0.0625283
-0.0620338
-0.0613467
-0.060473
-0.0594206
-0.0581994
-0.0568209
-0.0552989
-0.0536487
-0.0518873
-0.0500331
-0.0481056
-0.0421938
-0.0441751
-0.0461162
-0.047998
-0.0498038
-0.0515171
-0.0531218
-0.0546029
-0.0559468
-0.0571411
-0.0581747
-0.0590381
-0.059723
-0.0602228
-0.0605324
-0.0606484
-0.0605691
-0.0602946
-0.059827
-0.0591689
-0.0583272
-0.0573092
-0.0561242
-0.0547837
-0.0533006
-0.05169
-0.049968
-0.0481524
-0.0462617
-0.0402652
-0.0421881
-0.0440769
-0.0459127
-0.0476791
-0.0493594
-0.0509375
-0.0523982
-0.0537275
-0.0549129
-0.0559429
-0.0568077
-0.0574987
-0.0580091
-0.0583335
-0.0584682
-0.0584114
-0.0581627
-0.0577236
-0.0570987
-0.0562922
-0.0553115
-0.0541659
-0.0528662
-0.051425
-0.0498563
-0.0481759
-0.0464005
-0.0445477
-0.0384429
-0.0403094
-0.0421472
-0.0439379
-0.0456653
-0.047313
-0.0488646
-0.050305
-0.05162
-0.0527967
-0.0538236
-0.0546905
-0.0553887
-0.0559109
-0.0562516
-0.0564069
-0.0563745
-0.0561542
-0.0557471
-0.0551567
-0.0543878
-0.0534471
-0.0523434
-0.0510869
-0.0496897
-0.048165
-0.0465277
-0.0447935
-0.0429792
-0.0367382
-0.0385512
-0.0403405
-0.042088
-0.043778
-0.0453941
-0.0469201
-0.0483409
-0.0496422
-0.0508111
-0.0518356
-0.0527055
-0.0534118
-0.0539471
-0.0543055
-0.0544829
-0.0544769
-0.0542866
-0.0539133
-0.0533597
-0.0526305
-0.0517319
-0.050672
-0.0494606
-0.0481089
-0.0466295
-0.0450361
-0.0433436
-0.0415675
-0.0351589
-0.0369224
-0.0386666
-0.0403738
-0.0420287
-0.0436153
-0.0451174
-0.04652
-0.0478088
-0.0489708
-0.049994
-0.050868
-0.0515835
-0.052133
-0.0525103
-0.0527112
-0.0527328
-0.0525742
-0.0522361
-0.0517209
-0.0510328
-0.0501776
-0.0491629
-0.0479976
-0.0466922
-0.0452585
-0.0437092
-0.042058
-0.0403192
-0.0337097
-0.0354286
-0.037132
-0.0388026
-0.0404256
-0.0419853
-0.0434658
-0.0448521
-0.0461301
-0.0472867
-0.0483099
-0.0491891
-0.0499149
-0.0504796
-0.050877
-0.0511023
-0.0511527
-0.0510266
-0.0507246
-0.0502487
-0.0496025
-0.0487914
-0.0478222
-0.0467032
-0.0454441
-0.0440557
-0.0425497
-0.0409385
-0.0392352
-0.0323925
-0.0340723
-0.0357396
-0.037378
-0.038973
-0.040509
-0.0419707
-0.0433432
-0.0446124
-0.0457653
-0.0467899
-0.0476755
-0.0484127
-0.0489936
-0.0494118
-0.0496622
-0.0497418
-0.0496487
-0.0493831
-0.0489466
-0.0483423
-0.0475749
-0.0466507
-0.0455773
-0.0443634
-0.043019
-0.0415545
-0.0399812
-0.0383107
-0.0312065
-0.0328528
-0.0344895
-0.0361004
-0.0376714
-0.0391876
-0.0406337
-0.0419949
-0.0432576
-0.0444086
-0.0454361
-0.0463294
-0.0470789
-0.0476766
-0.0481159
-0.0483916
-0.0485003
-0.04844
-0.0482103
-0.0478123
-0.0472489
-0.0465241
-0.0456434
-0.0446134
-0.0434424
-0.0421399
-0.0407142
-0.0391757
-0.0375347
-0.0301487
-0.0317675
-0.0333788
-0.034967
-0.0365185
-0.0380186
-0.0394522
-0.040805
-0.0420633
-0.0432143
-0.0442461
-0.0451479
-0.0459103
-0.0465249
-0.0469852
-0.0472857
-0.0474228
-0.047394
-0.0471988
-0.0468378
-0.0463132
-0.0456287
-0.0447889
-0.0437997
-0.0426668
-0.0414039
-0.0400136
-0.0385061
-0.0368904
-0.029214
-0.0308108
-0.0324019
-0.0339722
-0.0355083
-0.0369958
-0.0384201
-0.039767
-0.041023
-0.0421754
-0.0432123
-0.0441232
-0.0448983
-0.0455295
-0.0460099
-0.046334
-0.0464977
-0.0464985
-0.0463354
-0.0460086
-0.0455199
-0.0448723
-0.0440702
-0.043119
-0.0420261
-0.0407926
-0.039432
-0.0379508
-0.0363558
-0.0283952
-0.0299751
-0.0315505
-0.033107
-0.0346313
-0.0361094
-0.0375269
-0.0388699
-0.0401249
-0.0412796
-0.0423221
-0.0432417
-0.044029
-0.0446755
-0.0451743
-0.0455198
-0.0457077
-0.0457352
-0.0456008
-0.0453047
-0.0448479
-0.0442332
-0.043464
-0.0425451
-0.0414818
-0.0402792
-0.0389447
-0.0374846
-0.0359057
-0.0276829
-0.0292498
-0.0308135
-0.0323594
-0.0338747
-0.0353456
-0.036758
-0.0380982
-0.039353
-0.04051
-0.0415575
-0.042485
-0.0432828
-0.0439427
-0.0444575
-0.0448215
-0.0450303
-0.0450808
-0.0449714
-0.0447016
-0.0442724
-0.0436857
-0.0429448
-0.0420534
-0.0410162
-0.0398382
-0.038525
-0.0370822
-0.0355137
-0.027065
-0.0286219
-0.0301763
-0.0317138
-0.0332219
-0.0346869
-0.036095
-0.0374326
-0.0386868
-0.0398454
-0.0408967
-0.0418303
-0.0426365
-0.0433072
-0.043835
-0.0442142
-0.0444402
-0.0445097
-0.044421
-0.0441732
-0.0437669
-0.0432037
-0.0424862
-0.0416178
-0.0406022
-0.039444
-0.0381475
-0.036717
-0.0351557
-0.0265267
-0.0280754
-0.0296219
-0.0311521
-0.0326536
-0.0341129
-0.0355165
-0.036851
-0.0381037
-0.0392624
-0.0403157
-0.0412532
-0.0420653
-0.0427439
-0.0432815
-0.0436725
-0.0439121
-0.0439969
-0.0439249
-0.043695
-0.0433075
-0.0427637
-0.0420655
-0.0412159
-0.0402181
-0.0390757
-0.037792
-0.0363704
-0.0348126
-0.0260503
-0.0275915
-0.0291308
-0.030654
-0.0321488
-0.0336021
-0.0350006
-0.036331
-0.0375809
-0.0387383
-0.0397918
-0.0407311
-0.0415469
-0.0422308
-0.0427756
-0.0431755
-0.0434257
-0.0435227
-0.0434642
-0.043249
-0.0428771
-0.0423494
-0.0416675
-0.0408337
-0.0398507
-0.0387213
-0.0374479
-0.0360328
-0.0344763
-0.0256181
-0.0271525
-0.028685
-0.0302015
-0.0316896
-0.0331367
-0.0345296
-0.0358555
-0.0371018
-0.0382569
-0.0393095
-0.0402494
-0.0410673
-0.041755
-0.0423054
-0.0427124
-0.0429714
-0.0430786
-0.0430317
-0.0428293
-0.042471
-0.0419574
-0.0412897
-0.0404697
-0.0394998
-0.0383819
-0.0371177
-0.0357079
-0.0341518
-0.0252167
-0.0267457
-0.0282728
-0.0297838
-0.0312665
-0.0327085
-0.0340969
-0.0354191
-0.0366627
-0.0378161
-0.0388683
-0.0398093
-0.0406297
-0.0413214
-0.0418772
-0.0422913
-0.0425586
-0.0426756
-0.0426397
-0.0424493
-0.0421038
-0.0416036
-0.0409492
-0.0401421
-0.0391839
-0.0380767
-0.0368213
-0.0354174
-0.0338608
-0.0248025
-0.0263307
-0.027857
-0.0293675
-0.0308499
-0.0322919
-0.0336809
-0.0350045
-0.0362504
-0.0374071
-0.0384637
-0.0394102
-0.0402374
-0.040937
-0.0415021
-0.0419264
-0.0422052
-0.0423346
-0.0423119
-0.0421354
-0.0418042
-0.0413186
-0.040679
-0.0398861
-0.0389401
-0.0378431
-0.0365961
-0.0351982
-0.033649
-0.0242733
-0.0258108
-0.0273466
-0.0288673
-0.0303603
-0.0318135
-0.0332144
-0.0345507
-0.0358102
-0.0369814
-0.0380534
-0.0390161
-0.0398602
-0.0405777
-0.0411611
-0.0416044
-0.0419025
-0.0420515
-0.0420486
-0.0418917
-0.04158
-0.0411132
-0.0404921
-0.0397181
-0.0387929
-0.037714
-0.0364809
-0.0350955
-0.0335561
)
;

boundaryField
{
    movingWall
    {
        type            zeroGradient;
    }
    fixedWalls
    {
        type            zeroGradient;
    }
    frontAndBack
    {
        type            empty;
    }
    procBoundary5to2
    {
        type            processor;
        value           nonuniform List<scalar> 
29
(
-0.0606745
-0.0587856
-0.0568068
-0.0547573
-0.0526567
-0.0505264
-0.0483885
-0.0462653
-0.0441784
-0.0421481
-0.0401928
-0.0383284
-0.0365678
-0.034921
-0.033395
-0.0319936
-0.0307181
-0.0295676
-0.0285391
-0.0276277
-0.0268269
-0.026128
-0.0255204
-0.0249904
-0.0245212
-0.0240954
-0.0236989
-0.0232849
-0.0227462
)
;
    }
    procBoundary5to3
    {
        type            processor;
        value           nonuniform List<scalar> 
21
(
-0.0720905
-0.0744701
-0.0767249
-0.0788523
-0.0808487
-0.0704201
-0.0710873
-0.0715875
-0.0719171
-0.0720729
-0.0720529
-0.0718559
-0.0714817
-0.0709311
-0.0702059
-0.0693092
-0.0682452
-0.0670197
-0.06564
-0.0641151
-0.0624558
)
;
    }
    procBoundary5to4
    {
        type            processor;
        value           nonuniform List<scalar> 
48
(
-0.0814782
-0.0822818
-0.0828989
-0.0833215
-0.0835439
-0.0835621
-0.0833741
-0.0829801
-0.0823822
-0.0815845
-0.080593
-0.0794156
-0.0780621
-0.0765438
-0.074874
-0.074874
-0.0727775
-0.0706012
-0.0665915
-0.0647013
-0.0627171
-0.0606589
-0.0585488
-0.0564095
-0.0542652
-0.0521404
-0.0500596
-0.0480469
-0.0461252
-0.0443155
-0.0426362
-0.0411021
-0.039724
-0.0385076
-0.0374532
-0.0365552
-0.0358018
-0.0351757
-0.0346546
-0.0342131
-0.0338249
-0.0334663
-0.0331196
-0.0327776
-0.0324474
-0.0321502
-0.0319409
-0.0318561
)
;
    }
    procBoundary5to6
    {
        type            processor;
        value           nonuniform List<scalar> 
21
(
-0.0827083
-0.0844243
-0.0859892
-0.0873948
-0.0886324
-0.089693
-0.0905685
-0.0912512
-0.0917353
-0.0920159
-0.0920904
-0.0919581
-0.0916199
-0.0910793
-0.0903415
-0.0894137
-0.0883052
-0.087027
-0.085592
-0.0840146
-0.0823109
)
;
    }
}


// ************************************************************************* //
