/*--------------------------------*- C++ -*----------------------------------*\
  =========                 |
  \\      /  F ield         | OpenFOAM: The Open Source CFD Toolbox
   \\    /   O peration     | Website:  https://openfoam.org
    \\  /    A nd           | Version:  9
     \\/     M anipulation  |
\*---------------------------------------------------------------------------*/
FoamFile
{
    format      ascii;
    class       surfaceScalarField;
    location    "1";
    object      phi;
}
// * * * * * * * * * * * * * * * * * * * * * * * * * * * * * * * * * * * * * //

dimensions      [0 3 -1 0 0 0 0];

internalField   nonuniform List<scalar> 
2446
(
-6.02275e-07
1.83331e-06
-6.17176e-07
1.71751e-06
-6.32627e-07
1.60053e-06
-6.48512e-07
1.48205e-06
-6.64718e-07
1.36161e-06
-6.81131e-07
1.23869e-06
-6.97632e-07
1.11289e-06
-7.14103e-07
9.83878e-07
-7.30444e-07
8.51416e-07
-7.46563e-07
7.15445e-07
-7.62379e-07
5.76066e-07
-7.77822e-07
4.33525e-07
-7.92829e-07
2.88193e-07
-8.07339e-07
1.40536e-07
-8.21296e-07
-8.91201e-09
-8.34646e-07
-1.59553e-07
-8.47326e-07
-3.10782e-07
-8.59269e-07
-4.61962e-07
-8.70399e-07
-6.12456e-07
-8.80632e-07
-7.61618e-07
-8.89871e-07
-9.08802e-07
-8.98015e-07
-1.05335e-06
-9.04957e-07
-1.19461e-06
-9.10593e-07
-1.33189e-06
-9.14827e-07
-1.46453e-06
-1.59188e-06
-4.75736e-07
1.84633e-06
-4.89347e-07
1.73112e-06
-5.03445e-07
1.61463e-06
-5.1793e-07
1.49654e-06
-5.32709e-07
1.37639e-06
-5.47708e-07
1.25369e-06
-5.62839e-07
1.12802e-06
-5.78023e-07
9.99062e-07
-5.93197e-07
8.6659e-07
-6.08308e-07
7.30556e-07
-6.23309e-07
5.91067e-07
-6.38158e-07
4.48374e-07
-6.52813e-07
3.02848e-07
-6.67236e-07
1.54958e-07
-6.81386e-07
5.23787e-09
-6.95211e-07
-1.45727e-07
-7.0866e-07
-2.97333e-07
-7.21668e-07
-4.48955e-07
-7.3416e-07
-5.99964e-07
-7.46047e-07
-7.49731e-07
-7.57233e-07
-8.97617e-07
-7.67606e-07
-1.04298e-06
-7.77052e-07
-1.18516e-06
-7.8545e-07
-1.32349e-06
-7.92688e-07
-1.4573e-06
-1.5859e-06
-3.47464e-07
1.85794e-06
-3.59615e-07
1.74327e-06
-3.72203e-07
1.62721e-06
-3.85144e-07
1.50948e-06
-3.98371e-07
1.38961e-06
-4.11832e-07
1.26715e-06
-4.25481e-07
1.14167e-06
-4.39279e-07
1.01286e-06
-4.53202e-07
8.80512e-07
-4.6723e-07
7.44584e-07
-4.81349e-07
6.05186e-07
-4.95544e-07
4.62568e-07
-5.09796e-07
3.17101e-07
-5.24082e-07
1.69245e-07
-5.38374e-07
1.95292e-08
-5.52629e-07
-1.31472e-07
-5.66799e-07
-2.83162e-07
-5.80823e-07
-4.34931e-07
-5.94625e-07
-5.86162e-07
-6.08118e-07
-7.36238e-07
-6.212e-07
-8.84535e-07
-6.33759e-07
-1.03042e-06
-6.45672e-07
-1.17325e-06
-6.56813e-07
-1.31235e-06
-6.67054e-07
-1.44705e-06
-1.57667e-06
-2.17736e-07
1.868e-06
-2.28296e-07
1.75383e-06
-2.39259e-07
1.63818e-06
-2.50554e-07
1.52077e-06
-2.62136e-07
1.40119e-06
-2.73982e-07
1.27899e-06
-2.8608e-07
1.15377e-06
-2.98431e-07
1.02521e-06
-3.11047e-07
8.93128e-07
-3.23943e-07
7.5748e-07
-3.37134e-07
6.18377e-07
-3.5063e-07
4.76064e-07
-3.64433e-07
3.30904e-07
-3.78536e-07
1.83347e-07
-3.92919e-07
3.39126e-08
-4.07551e-07
-1.1684e-07
-4.22387e-07
-2.68327e-07
-4.37367e-07
-4.19951e-07
-4.52418e-07
-5.71111e-07
-4.67453e-07
-7.21203e-07
-4.82369e-07
-8.69618e-07
-4.97054e-07
-1.01574e-06
-5.11381e-07
-1.15892e-06
-5.25219e-07
-1.29851e-06
-5.38434e-07
-1.43384e-06
-1.56421e-06
-8.68221e-08
1.87637e-06
-9.56927e-08
1.7627e-06
-1.04952e-07
1.64744e-06
-1.14537e-07
1.53036e-06
-1.24422e-07
1.41108e-06
-1.3461e-07
1.28918e-06
-1.45125e-07
1.16429e-06
-1.56001e-07
1.03609e-06
-1.67284e-07
9.04411e-07
-1.79021e-07
7.69217e-07
-1.91255e-07
6.30611e-07
-2.04021e-07
4.88829e-07
-2.17338e-07
3.44221e-07
-2.31216e-07
1.97225e-07
-2.45645e-07
4.83416e-08
-2.60601e-07
-1.01884e-07
-2.76044e-07
-2.52884e-07
-2.91918e-07
-4.04077e-07
-3.08152e-07
-5.54878e-07
-3.24659e-07
-7.04696e-07
-3.41339e-07
-8.52938e-07
-3.58078e-07
-9.98996e-07
-3.74751e-07
-1.14225e-06
-3.91226e-07
-1.28204e-06
-4.07364e-07
-1.4177e-06
-1.54854e-06
4.49824e-08
1.88297e-06
3.78759e-08
1.7698e-06
3.03732e-08
1.65494e-06
2.25308e-08
1.5382e-06
1.43588e-08
1.41925e-06
5.83106e-09
1.29771e-06
-3.09574e-09
1.17321e-06
-1.24947e-08
1.04549e-06
-2.24425e-08
9.14359e-07
-3.30147e-08
7.79789e-07
-4.42803e-08
6.41877e-07
-5.62957e-08
5.00845e-07
-6.91008e-08
3.57027e-07
-8.27175e-08
2.10842e-07
-9.71484e-08
6.27725e-08
-1.12377e-07
-8.66553e-08
-1.28369e-07
-2.36892e-07
-1.45073e-07
-3.87373e-07
-1.62418e-07
-5.37532e-07
-1.80323e-07
-6.86791e-07
-1.9869e-07
-8.34572e-07
-2.17405e-07
-9.80281e-07
-2.36347e-07
-1.1233e-06
-2.55384e-07
-1.263e-06
-2.74377e-07
-1.39871e-06
-1.52973e-06
1.77371e-07
1.8877e-06
1.72086e-07
1.77509e-06
1.6637e-07
1.66066e-06
1.60279e-07
1.54429e-06
1.53816e-07
1.42571e-06
1.46938e-07
1.30459e-06
1.3957e-07
1.18058e-06
1.3162e-07
1.05344e-06
1.22986e-07
9.22993e-07
1.13565e-07
7.89211e-07
1.03264e-07
6.52178e-07
9.20047e-08
5.12104e-07
7.97298e-08
3.69301e-07
6.64029e-08
2.24168e-07
5.20097e-08
7.71657e-08
3.65579e-08
-7.12035e-08
2.00759e-08
-2.2041e-07
2.61121e-09
-3.69908e-07
-1.5776e-08
-5.19145e-07
-3.50018e-08
-6.67566e-07
-5.49721e-08
-8.14602e-07
-7.55799e-08
-9.59673e-07
-9.67061e-08
-1.10218e-06
-1.18223e-07
-1.24149e-06
-1.39994e-07
-1.37694e-06
-1.50784e-06
3.10023e-07
1.89048e-06
3.06609e-07
1.7785e-06
3.02697e-07
1.66457e-06
2.98351e-07
1.54864e-06
2.9357e-07
1.4305e-06
2.88299e-07
1.30986e-06
2.8245e-07
1.18643e-06
2.75909e-07
1.05998e-06
2.68552e-07
9.3035e-07
2.60253e-07
7.97509e-07
2.50898e-07
6.61533e-07
2.40391e-07
5.22612e-07
2.28655e-07
3.81037e-07
2.1564e-07
2.37184e-07
2.01319e-07
9.14866e-08
1.8569e-07
-5.55747e-08
1.68773e-07
-2.03493e-07
1.50609e-07
-3.51744e-07
1.31258e-07
-4.99793e-07
1.10792e-07
-6.471e-07
8.93016e-08
-7.93111e-07
6.68888e-08
-9.3726e-07
4.3667e-08
-1.07896e-06
1.97593e-08
-1.21758e-06
-4.70452e-09
-1.35247e-06
-1.48295e-06
4.42608e-07
1.89122e-06
4.41114e-07
1.78e-06
4.39024e-07
1.66666e-06
4.36411e-07
1.55125e-06
4.33276e-07
1.43363e-06
4.29566e-07
1.31357e-06
4.2518e-07
1.19082e-06
4.19992e-07
1.06517e-06
4.1386e-07
9.36482e-07
4.06642e-07
8.04728e-07
3.98204e-07
6.6997e-07
3.88432e-07
5.32383e-07
3.77234e-07
3.92235e-07
3.64545e-07
2.49873e-07
3.50324e-07
1.05707e-07
3.3456e-07
-3.98105e-08
3.17263e-07
-1.86196e-07
2.98466e-07
-3.32947e-07
2.78219e-07
-4.79547e-07
2.56592e-07
-6.25472e-07
2.33664e-07
-7.70184e-07
2.09532e-07
-9.13128e-07
1.84301e-07
-1.05372e-06
1.58084e-07
-1.19136e-06
1.31005e-07
-1.32539e-06
-1.45514e-06
5.74772e-07
1.88983e-06
5.75263e-07
1.77951e-06
5.75021e-07
1.6669e-06
5.74133e-07
1.55214e-06
5.72615e-07
1.43515e-06
5.70416e-07
1.31577e-06
5.67434e-07
1.1938e-06
5.63536e-07
1.06906e-06
5.5857e-07
9.41448e-07
5.52381e-07
8.10917e-07
5.44821e-07
6.7753e-07
5.3576e-07
5.41445e-07
5.25091e-07
4.02905e-07
5.12733e-07
2.62231e-07
4.98635e-07
1.19805e-07
4.8277e-07
-2.39456e-08
4.6514e-07
-1.68567e-07
4.45768e-07
-3.13574e-07
4.24694e-07
-4.58473e-07
4.01979e-07
-6.02756e-07
3.77694e-07
-7.45899e-07
3.51924e-07
-8.87359e-07
3.24766e-07
-1.02657e-06
2.96325e-07
-1.16292e-06
2.66714e-07
-1.29578e-06
-1.42448e-06
7.06138e-07
1.88616e-06
7.08699e-07
1.77695e-06
7.1035e-07
1.66525e-06
7.11199e-07
1.55129e-06
7.11279e-07
1.43507e-06
7.1055e-07
1.3165e-06
7.08918e-07
1.19543e-06
7.0625e-07
1.07173e-06
7.02391e-07
9.45307e-07
6.97176e-07
8.16131e-07
6.90449e-07
6.84258e-07
6.82066e-07
5.49828e-07
6.71907e-07
4.13063e-07
6.59879e-07
2.74259e-07
6.45916e-07
1.33768e-07
6.29977e-07
-8.00662e-09
6.12055e-07
-1.50645e-07
5.92158e-07
-2.93677e-07
5.70317e-07
-4.36632e-07
5.4658e-07
-5.79019e-07
5.21008e-07
-7.20328e-07
4.93676e-07
-8.60027e-07
4.64667e-07
-9.97558e-07
4.34076e-07
-1.13233e-06
4.02005e-07
-1.26371e-06
-1.39104e-06
8.36283e-07
1.88006e-06
8.41032e-07
1.7722e-06
8.44652e-07
1.66163e-06
8.47277e-07
1.54866e-06
8.48961e-07
1.43339e-06
8.49683e-07
1.31577e-06
8.49362e-07
1.19575e-06
8.47874e-07
1.07322e-06
8.45066e-07
9.48115e-07
8.40773e-07
8.20424e-07
8.34832e-07
6.90199e-07
8.27091e-07
5.57569e-07
8.17419e-07
4.22735e-07
8.0571e-07
2.85968e-07
7.91884e-07
1.47594e-07
7.75893e-07
7.98442e-09
7.57707e-07
-1.32458e-07
7.37325e-07
-2.73295e-07
7.14766e-07
-4.14073e-07
6.90063e-07
-5.54316e-07
6.63264e-07
-6.93529e-07
6.34432e-07
-8.31194e-07
6.03635e-07
-9.66762e-07
5.70957e-07
-1.09965e-06
5.36487e-07
-1.22924e-06
-1.35488e-06
9.64729e-07
1.87134e-06
9.71821e-07
1.7651e-06
9.77525e-07
1.65592e-06
9.82002e-07
1.54419e-06
9.8533e-07
1.43006e-06
9.87513e-07
1.31359e-06
9.8849e-07
1.19477e-06
9.88152e-07
1.07356e-06
9.86356e-07
9.49912e-07
9.82942e-07
8.23838e-07
9.77745e-07
6.95395e-07
9.7061e-07
5.64703e-07
9.61399e-07
4.31947e-07
9.49993e-07
2.97374e-07
9.36302e-07
1.61285e-07
9.20262e-07
2.40244e-08
9.01831e-07
-1.14027e-07
8.80993e-07
-2.52457e-07
8.5775e-07
-3.9083e-07
8.32122e-07
-5.28688e-07
8.04142e-07
-6.6555e-07
7.73857e-07
-8.00908e-07
7.41322e-07
-9.34227e-07
7.06605e-07
-1.06493e-06
6.69786e-07
-1.19242e-06
-1.31605e-06
1.09093e-06
1.85976e-06
1.10056e-06
1.75547e-06
1.10851e-06
1.64798e-06
1.11495e-06
1.53774e-06
1.12001e-06
1.425e-06
1.1237e-06
1.3099e-06
1.126e-06
1.19248e-06
1.12681e-06
1.07275e-06
1.12601e-06
9.50712e-07
1.12345e-06
8.264e-07
1.11897e-06
6.99878e-07
1.11241e-06
5.71261e-07
1.10363e-06
4.40724e-07
1.09251e-06
3.08495e-07
1.07894e-06
1.74852e-07
1.06285e-06
4.01156e-08
1.04418e-06
-9.53569e-08
1.0229e-06
-2.31175e-07
9.98994e-07
-3.66924e-07
9.72466e-07
-5.0216e-07
9.43334e-07
-6.36418e-07
9.11627e-07
-7.69202e-07
8.77387e-07
-8.99986e-07
8.40665e-07
-1.02821e-06
8.01528e-07
-1.15329e-06
-1.27458e-06
1.21424e-06
1.84507e-06
1.22665e-06
1.74306e-06
1.23705e-06
1.63758e-06
1.24563e-06
1.52915e-06
1.25255e-06
1.41809e-06
1.25785e-06
1.3046e-06
1.26153e-06
1.1888e-06
1.26353e-06
1.07075e-06
1.26374e-06
9.50502e-07
1.26203e-06
8.28111e-07
1.25825e-06
7.03657e-07
1.25225e-06
5.7726e-07
1.24389e-06
4.49086e-07
1.23303e-06
3.1935e-07
1.21957e-06
1.88311e-07
1.20342e-06
5.62677e-08
1.18451e-06
-7.64423e-08
1.16278e-06
-2.09451e-07
1.13822e-06
-3.42359e-07
1.1108e-06
-4.74741e-07
1.08052e-06
-6.06145e-07
1.04741e-06
-7.36088e-07
1.01148e-06
-8.64056e-07
9.72773e-07
-9.89504e-07
9.31339e-07
-1.11185e-06
-1.23049e-06
1.33394e-06
1.82696e-06
1.3494e-06
1.7276e-06
1.36249e-06
1.62449e-06
1.37344e-06
1.51821e-06
1.38239e-06
1.40913e-06
1.38945e-06
1.29754e-06
1.39462e-06
1.18362e-06
1.39789e-06
1.06748e-06
1.39916e-06
9.49226e-07
1.39833e-06
8.28938e-07
1.39527e-06
7.06718e-07
1.38984e-06
5.82697e-07
1.38188e-06
4.5704e-07
1.37128e-06
3.29951e-07
1.35792e-06
2.01674e-07
1.34169e-06
7.24947e-08
1.32252e-06
-5.72705e-08
1.30034e-06
-1.87272e-07
1.27511e-06
-3.17126e-07
1.24679e-06
-4.46424e-07
1.21537e-06
-5.74727e-07
1.18085e-06
-7.01564e-07
1.14323e-06
-8.26438e-07
1.10254e-06
-9.48814e-07
1.05882e-06
-1.06813e-06
1.01213e-06
-1.1838e-06
9.62544e-07
-1.29521e-06
9.10183e-07
-1.40175e-06
-1.50282e-06
1.4492e-06
1.80511e-06
1.46802e-06
1.70878e-06
1.48409e-06
1.60842e-06
1.49765e-06
1.50465e-06
1.50887e-06
1.39791e-06
1.51787e-06
1.28854e-06
1.5247e-06
1.17679e-06
1.52936e-06
1.06282e-06
1.5318e-06
9.46789e-07
1.53193e-06
8.28811e-07
1.52963e-06
7.09016e-07
1.52478e-06
5.87547e-07
1.51725e-06
4.64573e-07
1.5069e-06
3.40295e-07
1.49363e-06
2.14951e-07
1.47731e-06
8.88092e-08
1.45787e-06
-3.7825e-08
1.43522e-06
-1.64621e-07
1.4093e-06
-2.91208e-07
1.38006e-06
-4.17192e-07
1.34748e-06
-5.42147e-07
1.31154e-06
-6.65618e-07
1.27222e-06
-7.8712e-07
1.22954e-06
-9.06135e-07
1.18353e-06
-1.02212e-06
1.13424e-06
-1.13451e-06
1.08175e-06
-1.24272e-06
1.02616e-06
-1.34616e-06
-1.44428e-06
1.55913e-06
1.77922e-06
1.58162e-06
1.68629e-06
1.60097e-06
1.58906e-06
1.61743e-06
1.48819e-06
1.63118e-06
1.38416e-06
1.64237e-06
1.27736e-06
1.65106e-06
1.16809e-06
1.65729e-06
1.05659e-06
1.66103e-06
9.43049e-07
1.66222e-06
8.27621e-07
1.66077e-06
7.10467e-07
1.65657e-06
5.9175e-07
1.64949e-06
4.71648e-07
1.63942e-06
3.50365e-07
1.62624e-06
2.28133e-07
1.60983e-06
1.05216e-07
1.5901e-06
-1.8092e-08
1.56696e-06
-1.41481e-07
1.54033e-06
-2.64583e-07
1.51016e-06
-3.87021e-07
1.4764e-06
-5.08384e-07
1.43901e-06
-6.28229e-07
1.39798e-06
-7.46087e-07
1.3533e-06
-8.61459e-07
1.305e-06
-9.73821e-07
1.25312e-06
-1.08263e-06
1.19774e-06
-1.18734e-06
1.13896e-06
-1.28738e-06
-1.38225e-06
1.66277e-06
1.749e-06
1.68922e-06
1.65984e-06
1.71216e-06
1.56612e-06
1.73183e-06
1.46853e-06
1.7484e-06
1.36759e-06
1.76204e-06
1.26372e-06
1.77283e-06
1.1573e-06
1.78085e-06
1.04858e-06
1.78607e-06
9.37823e-07
1.78848e-06
8.25217e-07
1.78799e-06
7.10952e-07
1.78453e-06
5.95215e-07
1.77797e-06
4.78199e-07
1.76822e-06
3.60115e-07
1.75516e-06
2.41198e-07
1.73867e-06
1.21704e-07
1.71865e-06
1.93004e-09
1.69501e-06
-1.1784e-07
1.66766e-06
-2.37234e-07
1.63653e-06
-3.55893e-07
1.60157e-06
-4.73418e-07
1.56272e-06
-5.89381e-07
1.51996e-06
-7.03328e-07
1.47328e-06
-8.14781e-07
1.4227e-06
-9.23238e-07
1.36825e-06
-1.02818e-06
1.31002e-06
-1.1291e-06
1.2481e-06
-1.22547e-06
-1.3168e-06
1.75908e-06
1.71421e-06
1.78978e-06
1.62914e-06
1.81661e-06
1.53929e-06
1.83977e-06
1.44536e-06
1.85947e-06
1.34789e-06
1.87584e-06
1.24735e-06
1.88902e-06
1.14412e-06
1.89906e-06
1.03855e-06
1.90598e-06
9.30895e-07
1.90979e-06
8.21411e-07
1.91043e-06
7.10314e-07
1.90783e-06
5.97815e-07
1.9019e-06
4.84127e-07
1.89254e-06
3.69474e-07
1.87965e-06
2.54093e-07
1.86311e-06
1.38244e-07
1.84282e-06
2.22139e-08
1.81868e-06
-9.37022e-08
1.79061e-06
-2.0916e-07
1.75852e-06
-3.23803e-07
1.72235e-06
-4.37244e-07
1.68204e-06
-5.49071e-07
1.63755e-06
-6.58848e-07
1.58889e-06
-7.66116e-07
1.53605e-06
-8.70399e-07
1.47908e-06
-9.71212e-07
1.41805e-06
-1.06807e-06
1.35307e-06
-1.16049e-06
-1.24804e-06
1.84706e-06
1.67466e-06
1.88224e-06
1.59396e-06
1.91321e-06
1.50832e-06
1.94016e-06
1.41841e-06
1.96326e-06
1.32479e-06
1.98267e-06
1.22794e-06
1.99849e-06
1.1283e-06
2.01082e-06
1.02622e-06
2.01969e-06
9.22024e-07
2.02511e-06
8.15988e-07
2.02706e-06
7.08364e-07
2.02549e-06
5.99391e-07
2.02031e-06
4.89302e-07
2.01145e-06
3.78334e-07
1.99881e-06
2.66736e-07
1.98228e-06
1.54772e-07
1.96177e-06
4.27257e-08
1.93717e-06
-6.91032e-08
1.90839e-06
-1.80386e-07
1.87536e-06
-2.90769e-07
1.838e-06
-3.9988e-07
1.79625e-06
-5.07322e-07
1.75008e-06
-6.12675e-07
1.69946e-06
-7.15504e-07
1.64443e-06
-8.1536e-07
1.585e-06
-9.11787e-07
1.52127e-06
-1.00434e-06
1.45335e-06
-1.09258e-06
-1.17611e-06
1.92578e-06
1.63025e-06
1.96558e-06
1.55416e-06
2.00089e-06
1.47301e-06
2.03185e-06
1.38745e-06
2.05862e-06
1.29802e-06
2.08132e-06
1.20524e-06
2.10006e-06
1.10955e-06
2.11494e-06
1.01134e-06
2.12601e-06
9.1096e-07
2.13328e-06
8.08717e-07
2.13675e-06
7.04895e-07
2.13638e-06
5.99758e-07
2.13212e-06
4.93561e-07
2.12389e-06
3.86559e-07
2.11162e-06
2.79013e-07
2.0952e-06
1.71192e-07
2.07454e-06
6.33848e-08
2.04954e-06
-4.41084e-08
2.02013e-06
-1.50969e-07
1.9862e-06
-2.56848e-07
1.94771e-06
-3.61383e-07
1.90458e-06
-4.64194e-07
1.85678e-06
-5.6488e-07
1.80431e-06
-6.63028e-07
1.74717e-06
-7.58218e-07
1.68541e-06
-8.50029e-07
1.61912e-06
-9.38048e-07
1.54843e-06
-1.02189e-06
-1.10121e-06
1.99441e-06
1.58099e-06
2.03889e-06
1.50968e-06
2.07866e-06
1.43325e-06
2.11379e-06
1.35231e-06
2.14441e-06
1.2674e-06
2.17062e-06
1.17903e-06
2.19253e-06
1.08765e-06
2.2102e-06
9.93667e-07
2.2237e-06
8.97461e-07
2.23305e-06
7.99364e-07
2.23826e-06
6.99685e-07
2.23931e-06
5.98711e-07
2.23615e-06
4.96721e-07
2.22872e-06
3.93985e-07
2.21696e-06
2.90776e-07
2.20078e-06
1.87375e-07
2.18009e-06
8.40728e-08
2.15481e-06
-1.88234e-08
2.12485e-06
-1.21011e-07
2.09014e-06
-2.22136e-07
2.05061e-06
-3.21853e-07
2.00621e-06
-4.19795e-07
1.95691e-06
-5.15581e-07
1.9027e-06
-6.08822e-07
1.84361e-06
-6.99128e-07
1.77969e-06
-7.8611e-07
1.71104e-06
-8.69399e-07
1.63781e-06
-9.48653e-07
-1.02357e-06
2.05229e-06
1.52697e-06
2.10141e-06
1.46056e-06
2.14564e-06
1.38902e-06
2.18503e-06
1.31293e-06
2.21962e-06
1.23281e-06
2.2495e-06
1.14915e-06
2.27475e-06
1.0624e-06
2.29542e-06
9.72995e-07
2.31157e-06
8.81313e-07
2.32322e-06
7.87711e-07
2.33039e-06
6.92518e-07
2.33306e-06
5.96043e-07
2.3312e-06
4.98581e-07
2.32476e-06
4.00422e-07
2.31369e-06
3.0185e-07
2.29791e-06
2.03156e-07
2.27735e-06
1.04634e-07
2.25192e-06
6.599e-09
2.22157e-06
-9.06579e-08
2.18622e-06
-1.86783e-07
2.14581e-06
-2.81444e-07
2.1003e-06
-3.74288e-07
2.04968e-06
-4.64955e-07
1.99394e-06
-5.5308e-07
1.93311e-06
-6.38303e-07
1.86727e-06
-7.20272e-07
1.79653e-06
-7.98657e-07
1.72104e-06
-8.73164e-07
-9.43548e-07
2.09898e-06
1.46844e-06
2.15259e-06
1.40695e-06
2.2012e-06
1.34041e-06
2.2448e-06
1.26933e-06
2.2834e-06
1.19421e-06
2.31703e-06
1.11552e-06
2.34573e-06
1.0337e-06
2.36955e-06
9.49175e-07
2.38852e-06
8.62344e-07
2.40267e-06
7.73569e-07
2.41199e-06
6.83196e-07
2.41648e-06
5.91549e-07
2.41612e-06
4.98939e-07
2.41088e-06
4.05669e-07
2.40069e-06
3.12036e-07
2.38551e-06
2.18338e-07
2.36527e-06
1.24877e-07
2.3399e-06
3.19605e-08
2.30935e-06
-6.01047e-08
2.27356e-06
-1.50992e-07
2.23248e-06
-2.40368e-07
2.18609e-06
-3.27899e-07
2.13438e-06
-4.13244e-07
2.07737e-06
-4.96065e-07
2.0151e-06
-5.76031e-07
1.94765e-06
-6.52827e-07
1.87516e-06
-7.26165e-07
1.79779e-06
-7.95798e-07
-8.61535e-07
2.13433e-06
1.40571e-06
2.19216e-06
1.34912e-06
2.24495e-06
1.28761e-06
2.29263e-06
1.22165e-06
2.33516e-06
1.15168e-06
2.37252e-06
1.07816e-06
2.40472e-06
1.0015e-06
2.43176e-06
9.22132e-07
2.45366e-06
8.4044e-07
2.47043e-06
7.56796e-07
2.48208e-06
6.71554e-07
2.48858e-06
5.85047e-07
2.48992e-06
4.97599e-07
2.48607e-06
4.09521e-07
2.47698e-06
3.21122e-07
2.46261e-06
2.32704e-07
2.44292e-06
1.44572e-07
2.41785e-06
5.70349e-08
2.38734e-06
-2.95951e-08
2.35136e-06
-1.15017e-07
2.30989e-06
-1.98896e-07
2.2629e-06
-2.80915e-07
2.21042e-06
-3.60757e-07
2.15246e-06
-4.3811e-07
2.0891e-06
-5.12673e-07
2.02045e-06
-5.84168e-07
1.94663e-06
-6.52349e-07
1.86785e-06
-7.17017e-07
-7.78034e-07
2.15845e-06
1.33922e-06
2.22013e-06
1.28744e-06
2.27681e-06
1.23094e-06
2.32833e-06
1.17012e-06
2.37462e-06
1.1054e-06
2.41559e-06
1.03718e-06
2.45123e-06
9.6587e-07
2.48149e-06
8.91868e-07
2.50637e-06
8.15558e-07
2.52586e-06
7.37309e-07
2.53994e-06
6.57472e-07
2.5486e-06
5.76389e-07
2.55181e-06
4.94386e-07
2.54955e-06
4.11783e-07
2.54178e-06
3.28892e-07
2.52846e-06
2.46019e-07
2.50957e-06
1.63471e-07
2.48505e-06
8.15516e-08
2.45486e-06
5.90846e-10
2.41901e-06
-7.91665e-08
2.37747e-06
-1.57352e-07
2.33024e-06
-2.33687e-07
2.27736e-06
-3.07873e-07
2.21887e-06
-3.79623e-07
2.15487e-06
-4.48669e-07
2.08547e-06
-5.14771e-07
2.01084e-06
-5.77724e-07
1.9312e-06
-6.37377e-07
-6.93644e-07
2.17179e-06
1.26947e-06
2.23687e-06
1.22236e-06
2.29703e-06
1.17078e-06
2.35207e-06
1.11509e-06
2.40184e-06
1.05563e-06
2.44623e-06
9.9279e-07
2.48515e-06
9.26945e-07
2.51855e-06
8.58468e-07
2.54638e-06
7.87729e-07
2.5686e-06
7.15085e-07
2.58519e-06
6.40885e-07
2.59611e-06
5.65467e-07
2.60134e-06
4.89158e-07
2.60085e-06
4.12277e-07
2.5946e-06
3.35138e-07
2.58257e-06
2.58047e-07
2.56473e-06
1.81311e-07
2.54106e-06
1.05229e-07
2.51154e-06
3.01054e-08
2.47615e-06
-4.37778e-08
2.43492e-06
-1.16117e-07
2.38786e-06
-1.86628e-07
2.33502e-06
-2.55038e-07
2.27649e-06
-3.2109e-07
2.21237e-06
-3.84547e-07
2.1428e-06
-4.45205e-07
2.06798e-06
-5.02905e-07
1.98814e-06
-5.57538e-07
-6.09072e-07
2.17508e-06
1.19702e-06
2.24305e-06
1.1544e-06
2.30622e-06
1.10761e-06
2.36436e-06
1.05694e-06
2.41727e-06
1.00272e-06
2.46478e-06
9.45277e-07
2.50677e-06
8.84952e-07
2.54315e-06
8.22095e-07
2.57382e-06
7.57054e-07
2.59873e-06
6.90172e-07
2.61783e-06
6.21784e-07
2.63108e-06
5.52221e-07
2.63843e-06
4.81805e-07
2.63986e-06
4.1085e-07
2.63533e-06
3.39665e-07
2.62483e-06
2.68553e-07
2.60832e-06
1.97815e-07
2.58581e-06
1.27742e-07
2.55729e-06
5.86245e-08
2.52277e-06
-9.25386e-09
2.48228e-06
-7.56244e-08
2.43586e-06
-1.40213e-07
2.3836e-06
-2.02775e-07
2.32559e-06
-2.63078e-07
2.26196e-06
-3.20923e-07
2.1929e-06
-3.7614e-07
2.1186e-06
-4.28611e-07
2.03934e-06
-4.78275e-07
-5.25144e-07
2.16933e-06
1.12245e-06
2.23963e-06
1.0841e-06
2.30531e-06
1.04193e-06
2.36609e-06
9.96164e-07
2.42173e-06
9.47088e-07
2.47201e-06
8.94991e-07
2.51678e-06
8.40182e-07
2.5559e-06
7.82978e-07
2.58925e-06
7.23701e-07
2.61675e-06
6.62673e-07
2.63832e-06
6.00213e-07
2.65391e-06
5.36637e-07
2.66346e-06
4.72255e-07
2.66693e-06
4.07373e-07
2.66431e-06
3.42291e-07
2.65556e-06
2.77303e-07
2.64067e-06
2.12698e-07
2.61966e-06
1.48757e-07
2.59253e-06
8.57572e-08
2.55931e-06
2.39644e-08
2.52005e-06
-3.63667e-08
2.47483e-06
-9.49915e-08
2.42374e-06
-1.51687e-07
2.36691e-06
-2.06252e-07
2.30451e-06
-2.5852e-07
2.23673e-06
-3.08358e-07
2.16381e-06
-3.55688e-07
2.08602e-06
-4.0049e-07
-4.42822e-07
2.1558e-06
1.04631e-06
2.22788e-06
1.01201e-06
2.29555e-06
9.74254e-07
2.35849e-06
9.33228e-07
2.41641e-06
8.89166e-07
2.46908e-06
8.42322e-07
2.51629e-06
7.92969e-07
2.55788e-06
7.4139e-07
2.5937e-06
6.87879e-07
2.62364e-06
6.32733e-07
2.64761e-06
5.7625e-07
2.66552e-06
5.18727e-07
2.67731e-06
4.60457e-07
2.68296e-06
4.01732e-07
2.68241e-06
3.42837e-07
2.67566e-06
2.84052e-07
2.66271e-06
2.25652e-07
2.64356e-06
1.67902e-07
2.61826e-06
1.11062e-07
2.58684e-06
5.53774e-08
2.54939e-06
1.08403e-09
2.506e-06
-5.16018e-08
2.4568e-06
-1.02483e-07
2.40194e-06
-1.51389e-07
2.3416e-06
-1.98185e-07
2.27602e-06
-2.42776e-07
2.20545e-06
-2.85118e-07
2.13019e-06
-3.25231e-07
-3.6321e-07
2.136e-06
9.69142e-07
2.20936e-06
9.38656e-07
2.27852e-06
9.05093e-07
2.34314e-06
8.68608e-07
2.40292e-06
8.29392e-07
2.45758e-06
7.8766e-07
2.5069e-06
7.43649e-07
2.55068e-06
6.97611e-07
2.58875e-06
6.49806e-07
2.62098e-06
6.00505e-07
2.64725e-06
5.4998e-07
2.66747e-06
4.98504e-07
2.68158e-06
4.46351e-07
2.68952e-06
3.93792e-07
2.69126e-06
3.41092e-07
2.6868e-06
2.88514e-07
2.67614e-06
2.36313e-07
2.65931e-06
1.84735e-07
2.63635e-06
1.34017e-07
2.60734e-06
8.43847e-08
2.57238e-06
3.60472e-08
2.53158e-06
-1.08051e-08
2.48511e-06
-5.60034e-08
2.43312e-06
-9.94084e-08
2.37586e-06
-1.40916e-07
2.31354e-06
-1.80462e-07
2.24646e-06
-2.18038e-07
2.17493e-06
-2.53696e-07
-2.87563e-07
2.11184e-06
8.91372e-07
2.18603e-06
8.64465e-07
2.25625e-06
8.34871e-07
2.32215e-06
8.02712e-07
2.3834e-06
7.68143e-07
2.43971e-06
7.31344e-07
2.49085e-06
6.92516e-07
2.53658e-06
6.51878e-07
2.57673e-06
6.09658e-07
2.61114e-06
5.66096e-07
2.63968e-06
5.21436e-07
2.66226e-06
4.75926e-07
2.6788e-06
4.29813e-07
2.68924e-06
3.83344e-07
2.69357e-06
3.36763e-07
2.69178e-06
2.90308e-07
2.68388e-06
2.4421e-07
2.66992e-06
1.98694e-07
2.64997e-06
1.53971e-07
2.62411e-06
1.10242e-07
2.59247e-06
6.769e-08
2.55519e-06
2.64775e-08
2.51244e-06
-1.32566e-08
2.46443e-06
-5.14002e-08
2.41139e-06
-8.78794e-08
2.35359e-06
-1.22654e-07
2.2913e-06
-1.55749e-07
2.22484e-06
-1.8724e-07
-2.17277e-07
2.08594e-06
8.13309e-07
2.16066e-06
7.89748e-07
2.23164e-06
7.63889e-07
2.29853e-06
7.35825e-07
2.36099e-06
7.05677e-07
2.41874e-06
6.73595e-07
2.47152e-06
6.39744e-07
2.51908e-06
6.04309e-07
2.56125e-06
5.67489e-07
2.59786e-06
5.2949e-07
2.62877e-06
4.90526e-07
2.65388e-06
4.50816e-07
2.67311e-06
4.10579e-07
2.68642e-06
3.70035e-07
2.69379e-06
3.29399e-07
2.69521e-06
2.88886e-07
2.69072e-06
2.48699e-07
2.68038e-06
2.09036e-07
2.66427e-06
1.70084e-07
2.64249e-06
1.32015e-07
2.6152e-06
9.49848e-08
2.58254e-06
5.91305e-08
2.54472e-06
2.45636e-08
2.50196e-06
-8.63694e-09
2.4545e-06
-4.04216e-08
2.4026e-06
-7.0747e-08
2.34654e-06
-9.96929e-08
2.28664e-06
-1.27342e-07
-1.53855e-07
2.06265e-06
7.35063e-07
2.13778e-06
7.14616e-07
2.20942e-06
6.9225e-07
2.27721e-06
6.6803e-07
2.34084e-06
6.42051e-07
2.4e-06
6.14428e-07
2.45445e-06
5.85299e-07
2.50394e-06
5.54815e-07
2.54829e-06
5.23142e-07
2.58732e-06
4.90455e-07
2.62091e-06
4.56937e-07
2.64895e-06
4.22775e-07
2.67137e-06
3.88158e-07
2.68813e-06
3.53277e-07
2.69921e-06
3.18319e-07
2.70463e-06
2.83468e-07
2.70443e-06
2.48901e-07
2.69868e-06
2.14789e-07
2.68747e-06
1.81289e-07
2.67094e-06
1.48547e-07
2.64923e-06
1.16694e-07
2.62252e-06
8.58412e-08
2.59101e-06
5.60775e-08
2.5549e-06
2.74691e-08
2.51452e-06
-4.36324e-11
2.47001e-06
-2.62402e-08
2.42172e-06
-5.14016e-08
2.36992e-06
-7.55395e-08
-9.8831e-08
2.04982e-06
6.56475e-07
2.12553e-06
6.38906e-07
2.19801e-06
6.19775e-07
2.26691e-06
5.99127e-07
2.33193e-06
5.77029e-07
2.39279e-06
5.5357e-07
2.44923e-06
5.28857e-07
2.50104e-06
5.03011e-07
2.54801e-06
4.76167e-07
2.59e-06
4.48468e-07
2.62687e-06
4.20065e-07
2.65853e-06
3.91115e-07
2.68491e-06
3.61777e-07
2.70598e-06
3.32209e-07
2.72173e-06
3.02571e-07
2.73218e-06
2.73016e-07
2.73739e-06
2.43695e-07
2.73743e-06
2.14749e-07
2.7324e-06
1.8631e-07
2.72245e-06
1.585e-07
2.70772e-06
1.31422e-07
2.6884e-06
1.05167e-07
2.66467e-06
7.9801e-08
2.63678e-06
5.5365e-08
2.60487e-06
3.18635e-08
2.56931e-06
9.31627e-09
2.53029e-06
-1.23745e-08
2.48805e-06
-3.33072e-08
-5.36367e-08
2.0621e-06
5.77065e-07
2.13888e-06
5.62127e-07
2.2127e-06
5.4596e-07
2.28324e-06
5.28586e-07
2.35021e-06
5.10051e-07
2.41337e-06
4.90419e-07
2.47245e-06
4.6977e-07
2.52727e-06
4.48197e-07
2.57763e-06
4.25804e-07
2.62339e-06
4.02706e-07
2.66443e-06
3.79023e-07
2.70067e-06
3.54881e-07
2.73203e-06
3.3041e-07
2.7585e-06
3.0574e-07
2.78007e-06
2.81e-07
2.79677e-06
2.56317e-07
2.80866e-06
2.31813e-07
2.8158e-06
2.07604e-07
2.81831e-06
1.83799e-07
2.81632e-06
1.60495e-07
2.80996e-06
1.37775e-07
2.79942e-06
1.1571e-07
2.78487e-06
9.43498e-08
2.76651e-06
7.37238e-08
2.74454e-06
5.38352e-08
2.71919e-06
3.46664e-08
2.69067e-06
1.61508e-08
2.65921e-06
-1.84609e-09
-1.9398e-08
2.12539e-06
4.96066e-07
2.204e-06
4.83514e-07
2.27993e-06
4.70029e-07
2.3529e-06
4.55618e-07
2.42264e-06
4.40309e-07
2.48892e-06
4.24143e-07
2.55151e-06
4.07177e-07
2.61023e-06
3.89478e-07
2.66491e-06
3.71125e-07
2.71541e-06
3.52204e-07
2.76163e-06
3.32808e-07
2.80347e-06
3.13036e-07
2.84089e-06
2.9299e-07
2.87386e-06
2.72771e-07
2.90238e-06
2.52485e-07
2.92646e-06
2.32231e-07
2.94617e-06
2.12107e-07
2.96156e-06
1.92207e-07
2.97275e-06
1.72617e-07
2.97983e-06
1.53413e-07
2.98294e-06
1.34663e-07
2.98223e-06
1.16419e-07
2.97786e-06
9.87215e-08
2.97e-06
8.15885e-08
2.95881e-06
6.50179e-08
2.9445e-06
4.89845e-08
2.92722e-06
3.34259e-08
2.90713e-06
1.82467e-08
3.30872e-09
2.28196e-06
4.12661e-07
2.3632e-06
4.0227e-07
2.44202e-06
3.91207e-07
2.51818e-06
3.79465e-07
2.59143e-06
3.67056e-07
2.66157e-06
3.54004e-07
2.7284e-06
3.40346e-07
2.79175e-06
3.26129e-07
2.85147e-06
3.11408e-07
2.90742e-06
2.96246e-07
2.95952e-06
2.80712e-07
3.00767e-06
2.64882e-07
3.05183e-06
2.48831e-07
3.09196e-06
2.32639e-07
3.12806e-06
2.16386e-07
3.16014e-06
2.00151e-07
3.18824e-06
1.84009e-07
3.21242e-06
1.68033e-07
3.23274e-06
1.52292e-07
3.24931e-06
1.36844e-07
3.26223e-06
1.21741e-07
3.27162e-06
1.07025e-07
3.27762e-06
9.2724e-08
3.28036e-06
7.88498e-08
3.27998e-06
6.53968e-08
3.27663e-06
5.23389e-08
3.27043e-06
3.96214e-08
3.26152e-06
2.71623e-08
1.48319e-08
2.59404e-06
3.26529e-07
2.67816e-06
3.18145e-07
2.76007e-06
3.09303e-07
2.83954e-06
2.99993e-07
2.91638e-06
2.90214e-07
2.99041e-06
2.79977e-07
3.06145e-06
2.69305e-07
3.12935e-06
2.58227e-07
3.19398e-06
2.46783e-07
3.25521e-06
2.35015e-07
3.31295e-06
2.22973e-07
3.36712e-06
2.10711e-07
3.41766e-06
1.98286e-07
3.46455e-06
1.85757e-07
3.50775e-06
1.73183e-07
3.54728e-06
1.60624e-07
3.58315e-06
1.48137e-07
3.6154e-06
1.35777e-07
3.6441e-06
1.23596e-07
3.6693e-06
1.11639e-07
3.6911e-06
9.99441e-08
3.70958e-06
8.85421e-08
3.72486e-06
7.74526e-08
3.73702e-06
6.66832e-08
3.74619e-06
5.62256e-08
3.75248e-06
4.60555e-08
3.75597e-06
3.61251e-08
3.75677e-06
2.63666e-08
1.6667e-08
3.14235e-06
2.38775e-07
3.22815e-06
2.32337e-07
3.31185e-06
2.25613e-07
3.39325e-06
2.18588e-07
3.47221e-06
2.11257e-07
3.54856e-06
2.03623e-07
3.62217e-06
1.957e-07
3.69289e-06
1.87505e-07
3.76061e-06
1.79064e-07
3.82521e-06
1.70406e-07
3.88662e-06
1.61566e-07
3.94475e-06
1.5258e-07
3.99955e-06
1.43489e-07
4.05097e-06
1.34335e-07
4.09899e-06
1.25161e-07
4.14361e-06
1.16009e-07
4.18482e-06
1.06921e-07
4.22267e-06
9.79369e-08
4.25717e-06
8.9093e-08
4.28839e-06
8.04218e-08
4.31638e-06
7.19507e-08
4.34122e-06
6.37001e-08
4.36299e-06
5.56821e-08
4.38177e-06
4.79004e-08
4.39765e-06
4.03455e-08
4.41071e-06
3.29961e-08
4.42103e-06
2.58121e-08
4.42865e-06
1.87382e-08
1.16852e-08
4.01541e-06
1.53107e-07
4.09911e-06
1.48636e-07
4.18072e-06
1.44001e-07
4.26012e-06
1.39193e-07
4.33717e-06
1.34204e-07
4.41176e-06
1.29037e-07
4.48376e-06
1.23696e-07
4.55307e-06
1.18196e-07
4.61958e-06
1.12551e-07
4.68321e-06
1.06781e-07
4.74387e-06
1.00907e-07
4.80149e-06
9.4956e-08
4.85603e-06
8.89531e-08
4.90743e-06
8.29267e-08
4.95569e-06
7.69051e-08
5.00078e-06
7.09167e-08
5.04271e-06
6.4989e-08
5.0815e-06
5.91478e-08
5.11718e-06
5.34172e-08
5.14978e-06
4.78179e-08
5.17937e-06
4.23669e-08
5.20599e-06
3.70763e-08
5.22972e-06
3.19511e-08
5.25063e-06
2.69895e-08
5.2688e-06
2.21818e-08
5.28428e-06
1.7514e-08
5.29713e-06
1.296e-08
5.3074e-06
8.47021e-09
3.95516e-09
5.28544e-06
7.69209e-08
5.35967e-06
7.44002e-08
5.43188e-06
7.17971e-08
5.50196e-06
6.91085e-08
5.56984e-06
6.63314e-08
5.63541e-06
6.34661e-08
5.69859e-06
6.05173e-08
5.75929e-06
5.74926e-08
5.81744e-06
5.44018e-08
5.87296e-06
5.12563e-08
5.9258e-06
4.80693e-08
5.9759e-06
4.48555e-08
6.02322e-06
4.16301e-08
6.06774e-06
3.84091e-08
6.10944e-06
3.52086e-08
6.14831e-06
3.20442e-08
6.18437e-06
2.89311e-08
6.21763e-06
2.58832e-08
6.24814e-06
2.29128e-08
6.27593e-06
2.00305e-08
6.30105e-06
1.72449e-08
6.32356e-06
1.45616e-08
6.34353e-06
1.19833e-08
6.36102e-06
9.50055e-09
6.37611e-06
7.0891e-09
6.38886e-06
4.76109e-09
6.39932e-06
2.50732e-09
6.40745e-06
3.40791e-10
-1.9568e-09
6.96839e-06
2.1495e-08
7.02214e-06
2.06488e-08
7.07417e-06
1.97712e-08
7.12441e-06
1.88657e-08
7.17281e-06
1.79331e-08
7.2193e-06
1.69735e-08
7.26383e-06
1.59895e-08
7.30634e-06
1.4985e-08
7.34677e-06
1.39645e-08
7.3851e-06
1.29329e-08
7.42127e-06
1.18958e-08
7.45527e-06
1.08587e-08
7.48707e-06
9.82758e-09
7.51667e-06
8.80821e-09
7.54407e-06
7.80631e-09
7.56929e-06
6.82729e-09
7.59235e-06
5.87611e-09
7.61327e-06
4.95705e-09
7.63211e-06
4.07384e-09
7.64891e-06
3.22888e-09
7.66373e-06
2.42448e-09
7.67663e-06
1.66066e-09
7.68767e-06
9.43527e-10
7.69689e-06
2.8507e-10
7.70439e-06
-4.11006e-10
7.71021e-06
-1.06084e-09
7.71437e-06
-1.65564e-09
7.71696e-06
-2.24888e-09
-2.89318e-09
8.96976e-06
8.99041e-06
9.01018e-06
9.02905e-06