/*--------------------------------*- C++ -*----------------------------------*\
  =========                 |
  \\      /  F ield         | OpenFOAM: The Open Source CFD Toolbox
   \\    /   O peration     | Website:  https://openfoam.org
    \\  /    A nd           | Version:  9
     \\/     M anipulation  |
\*---------------------------------------------------------------------------*/
FoamFile
{
    format      ascii;
    class       volVectorField;
    location    "1";
    object      U;
}
// * * * * * * * * * * * * * * * * * * * * * * * * * * * * * * * * * * * * * //

dimensions      [0 1 -1 0 0 0 0];

internalField   nonuniform List<vector> 
1260
(
(-0.0594991 0.182643 0)
(-0.0609594 0.171033 0)
(-0.06248 0.159309 0)
(-0.0640504 0.14744 0)
(-0.0656595 0.135381 0)
(-0.0672935 0.123078 0)
(-0.0689427 0.110493 0)
(-0.0705946 0.0975908 0)
(-0.0722377 0.084348 0)
(-0.0738626 0.0707579 0)
(-0.0754608 0.0568303 0)
(-0.0770248 0.0425893 0)
(-0.0785478 0.0280717 0)
(-0.080024 0.0133241 0)
(-0.0814475 -0.00159967 0)
(-0.082813 -0.016641 0)
(-0.0841148 -0.0317378 0)
(-0.0853464 -0.0468266 0)
(-0.0865008 -0.0618429 0)
(-0.08757 -0.0767217 0)
(-0.0885448 -0.0913977 0)
(-0.0894155 -0.105805 0)
(-0.0901713 -0.119877 0)
(-0.0908014 -0.133547 0)
(-0.0912968 -0.146746 0)
(-0.0916473 -0.159412 0)
(-0.0469086 0.184014 0)
(-0.0482427 0.172464 0)
(-0.0496312 0.160791 0)
(-0.0510635 0.148964 0)
(-0.0525299 0.136934 0)
(-0.0540216 0.124653 0)
(-0.0555307 0.112078 0)
(-0.0570486 0.099177 0)
(-0.058568 0.0859268 0)
(-0.0600834 0.0723223 0)
(-0.0615896 0.0583737 0)
(-0.0630823 0.0441063 0)
(-0.0645575 0.029557 0)
(-0.0660114 0.0147729 0)
(-0.0674399 -0.000192282 0)
(-0.0688386 -0.0152802 0)
(-0.0702025 -0.0304293 0)
(-0.0715257 -0.0455769 0)
(-0.0728014 -0.0606595 0)
(-0.0740215 -0.0756134 0)
(-0.0751765 -0.0903742 0)
(-0.0762561 -0.104877 0)
(-0.0772489 -0.119056 0)
(-0.0781427 -0.132844 0)
(-0.0789268 -0.146172 0)
(-0.0795893 -0.158976 0)
(-0.0341535 0.185248 0)
(-0.0353441 0.173755 0)
(-0.0365839 0.162128 0)
(-0.0378631 0.150338 0)
(-0.0391738 0.138337 0)
(-0.0405101 0.126078 0)
(-0.0418673 0.11352 0)
(-0.0432408 0.100628 0)
(-0.0446274 0.0873839 0)
(-0.0460252 0.0737814 0)
(-0.0474324 0.059832 0)
(-0.0488477 0.0455607 0)
(-0.0502696 0.0310048 0)
(-0.051696 0.0162108 0)
(-0.0531245 0.00123214 0)
(-0.0545517 -0.0138734 0)
(-0.055973 -0.0290455 0)
(-0.0573831 -0.0442224 0)
(-0.0587751 -0.0593419 0)
(-0.0601409 -0.0743414 0)
(-0.0614711 -0.0891579 0)
(-0.0627549 -0.103728 0)
(-0.0639805 -0.117985 0)
(-0.0651351 -0.131864 0)
(-0.0662066 -0.145297 0)
(-0.0671822 -0.158214 0)
(-0.0212596 0.186336 0)
(-0.0222928 0.174894 0)
(-0.0233717 0.163309 0)
(-0.024487 0.151553 0)
(-0.0256324 0.13958 0)
(-0.0268049 0.127346 0)
(-0.0280028 0.11481 0)
(-0.0292254 0.101938 0)
(-0.0304735 0.0887133 0)
(-0.0317484 0.0751302 0)
(-0.0330519 0.0612001 0)
(-0.0343853 0.0469478 0)
(-0.0357493 0.0324102 0)
(-0.0371438 0.017633 0)
(-0.0385675 0.00266862 0)
(-0.0400179 -0.0124262 0)
(-0.0414913 -0.0275922 0)
(-0.0429824 -0.0427692 0)
(-0.0444847 -0.0578961 0)
(-0.0459901 -0.0729119 0)
(-0.0474891 -0.0877549 0)
(-0.0489709 -0.102362 0)
(-0.0504235 -0.11667 0)
(-0.0518338 -0.130613 0)
(-0.053189 -0.144121 0)
(-0.0544755 -0.157128 0)
(-0.00825264 0.187261 0)
(-0.00911774 0.175869 0)
(-0.0100268 0.164323 0)
(-0.0109708 0.152599 0)
(-0.0119453 0.140655 0)
(-0.0129493 0.12845 0)
(-0.0139843 0.115942 0)
(-0.0150531 0.103101 0)
(-0.0161599 0.0899098 0)
(-0.0173095 0.0763635 0)
(-0.0185065 0.0624731 0)
(-0.019755 0.0482628 0)
(-0.0210578 0.0337684 0)
(-0.0224164 0.0190343 0)
(-0.0238309 0.00411173 0)
(-0.0252997 -0.0109441 0)
(-0.0268195 -0.0260755 0)
(-0.0283857 -0.0412235 0)
(-0.0299917 -0.0563288 0)
(-0.0316298 -0.0713317 0)
(-0.0332906 -0.0861719 0)
(-0.0349633 -0.100788 0)
(-0.036636 -0.115117 0)
(-0.0382954 -0.129094 0)
(-0.0399286 -0.142651 0)
(-0.0415215 -0.155719 0)
(0.00483899 0.188012 0)
(0.0041508 0.17667 0)
(0.00341792 0.165163 0)
(0.00264909 0.153471 0)
(0.001848 0.141559 0)
(0.00101381 0.129386 0)
(0.000142189 0.116914 0)
(-0.000772947 0.104116 0)
(-0.00173851 0.0909721 0)
(-0.00276242 0.0774799 0)
(-0.00385221 0.0636492 0)
(-0.00501428 0.0495033 0)
(-0.00625357 0.0350763 0)
(-0.00757323 0.0204111 0)
(-0.00897455 0.00555703 0)
(-0.0104569 -0.0094323 0)
(-0.0120177 -0.0245009 0)
(-0.0136527 -0.0395916 0)
(-0.0153557 -0.0546467 0)
(-0.0171193 -0.0696078 0)
(-0.0189342 -0.0844162 0)
(-0.02079 -0.0990119 0)
(-0.0226749 -0.113333 0)
(-0.0245758 -0.127315 0)
(-0.0264798 -0.140891 0)
(-0.0283728 -0.153992 0)
(0.0179853 0.188581 0)
(0.0174813 0.177291 0)
(0.0169288 0.165825 0)
(0.0163371 0.154169 0)
(0.0157093 0.142291 0)
(0.0150433 0.130156 0)
(0.0143327 0.117729 0)
(0.013569 0.104983 0)
(0.0127424 0.0919013 0)
(0.0118424 0.07848 0)
(0.010859 0.0647284 0)
(0.0097834 0.0506681 0)
(0.00860884 0.0363317 0)
(0.00733049 0.02176 0)
(0.00594577 0.00700034 0)
(0.00445435 -0.00789587 0)
(0.00285801 -0.0228746 0)
(0.00116037 -0.0378803 0)
(-0.00063275 -0.052857 0)
(-0.0025141 -0.067748 0)
(-0.00447516 -0.082496 0)
(-0.00650567 -0.0970423 0)
(-0.00859423 -0.111326 0)
(-0.0107283 -0.125284 0)
(-0.0128951 -0.13885 0)
(-0.0150808 -0.151954 0)
(0.0311548 0.18896 0)
(0.0308414 0.177728 0)
(0.0304726 0.166307 0)
(0.0300585 0.154691 0)
(0.0296022 0.142853 0)
(0.029101 0.130763 0)
(0.0285472 0.11839 0)
(0.0279305 0.105707 0)
(0.0272388 0.0927007 0)
(0.0264593 0.079366 0)
(0.0255798 0.0657115 0)
(0.0245896 0.0517572 0)
(0.0234799 0.0375334 0)
(0.0222444 0.0230786 0)
(0.0208791 0.00843791 0)
(0.0193827 -0.00633965 0)
(0.0177559 -0.0212021 0)
(0.016002 -0.0360961 0)
(0.0141258 -0.0509671 0)
(0.0121342 -0.0657603 0)
(0.0100352 -0.0804197 0)
(0.00783862 -0.0948879 0)
(0.00555515 -0.109105 0)
(0.00319671 -0.12301 0)
(0.000775547 -0.136534 0)
(-0.00169477 -0.149612 0)
(0.044314 0.189139 0)
(0.0441982 0.177975 0)
(0.0440163 0.166608 0)
(0.0437797 0.155039 0)
(0.0434926 0.143249 0)
(0.043152 0.131212 0)
(0.0427497 0.1189 0)
(0.0422742 0.106293 0)
(0.0417119 0.0933745 0)
(0.0410481 0.0801415 0)
(0.0402689 0.066601 0)
(0.0393618 0.0527715 0)
(0.0383162 0.0386808 0)
(0.0371241 0.0243651 0)
(0.0357805 0.00986654 0)
(0.0342825 -0.00476806 0)
(0.0326301 -0.0194892 0)
(0.0308257 -0.0342455 0)
(0.0288733 -0.0489844 0)
(0.026779 -0.0636526 0)
(0.0245503 -0.0781957 0)
(0.0221961 -0.0925575 0)
(0.0197264 -0.106679 0)
(0.0171523 -0.1205 0)
(0.0144856 -0.133954 0)
(0.0117387 -0.146973 0)
(0.057427 0.18911 0)
(0.0575171 0.178028 0)
(0.0575265 0.166727 0)
(0.0574683 0.155215 0)
(0.0573483 0.143482 0)
(0.057164 0.131507 0)
(0.0569077 0.119268 0)
(0.0565672 0.106746 0)
(0.056128 0.0939285 0)
(0.0555743 0.0808112 0)
(0.0548909 0.0674006 0)
(0.0540635 0.0537131 0)
(0.0530802 0.0397746 0)
(0.0519315 0.0256182 0)
(0.0506108 0.0112837 0)
(0.0491141 -0.00318503 0)
(0.0474404 -0.0177409 0)
(0.0455907 -0.0323347 0)
(0.0435684 -0.0469159 0)
(0.0413786 -0.0614327 0)
(0.0390279 -0.0758322 0)
(0.0365242 -0.0900594 0)
(0.0338766 -0.104057 0)
(0.0310952 -0.117764 0)
(0.0281909 -0.131117 0)
(0.0251753 -0.144047 0)
(0.0704547 0.188861 0)
(0.0707613 0.177879 0)
(0.0709686 0.166658 0)
(0.0710916 0.155218 0)
(0.071138 0.143554 0)
(0.071107 0.131653 0)
(0.0709917 0.119498 0)
(0.0707803 0.107074 0)
(0.070458 0.0943689 0)
(0.0700086 0.0813805 0)
(0.0694158 0.0681144 0)
(0.0686643 0.0545851 0)
(0.0677407 0.0408161 0)
(0.0666344 0.026838 0)
(0.0653372 0.0126876 0)
(0.0638439 -0.00159385 0)
(0.0621521 -0.0159617 0)
(0.0602618 -0.0303693 0)
(0.0581752 -0.0447679 0)
(0.0558963 -0.0591077 0)
(0.0534304 -0.0733368 0)
(0.0507846 -0.0874017 0)
(0.0479666 -0.101246 0)
(0.0449854 -0.11481 0)
(0.0418509 -0.12803 0)
(0.0385736 -0.140839 0)
(0.0833535 0.188378 0)
(0.0838904 0.177517 0)
(0.0843051 0.166398 0)
(0.0846149 0.155046 0)
(0.0848298 0.143467 0)
(0.0849513 0.131654 0)
(0.0849739 0.119596 0)
(0.084887 0.107281 0)
(0.0846763 0.0947016 0)
(0.0843257 0.0818552 0)
(0.0838184 0.0687472 0)
(0.0831385 0.0553909 0)
(0.0822717 0.0418075 0)
(0.0812059 0.0280252 0)
(0.0799319 0.0140777 0)
(0.0784431 3.54598e-06 0)
(0.0767358 -0.0141551 0)
(0.0748085 -0.0283538 0)
(0.072662 -0.0425461 0)
(0.0702991 -0.0566837 0)
(0.067724 -0.0707162 0)
(0.0649421 -0.0845911 0)
(0.0619601 -0.0982532 0)
(0.0587855 -0.111644 0)
(0.055427 -0.1247 0)
(0.0518941 -0.137357 0)
(0.0960735 0.187643 0)
(0.0968583 0.176931 0)
(0.0974939 0.165936 0)
(0.098 0.154695 0)
(0.0983892 0.143219 0)
(0.0986655 0.13151 0)
(0.0988257 0.119564 0)
(0.0988609 0.107372 0)
(0.0987582 0.0949316 0)
(0.0985021 0.0822402 0)
(0.098076 0.0693037 0)
(0.0974638 0.0561344 0)
(0.0966505 0.0427516 0)
(0.0956232 0.029181 0)
(0.0943713 0.0154538 0)
(0.0928872 0.00160598 0)
(0.0911655 -0.0123233 0)
(0.0892035 -0.0262916 0)
(0.0870004 -0.0402546 0)
(0.0845574 -0.0541655 0)
(0.0818774 -0.0679756 0)
(0.0789642 -0.0816334 0)
(0.075823 -0.0950848 0)
(0.0724599 -0.108272 0)
(0.0688823 -0.121134 0)
(0.0650985 -0.133605 0)
(0.108558 0.186636 0)
(0.109612 0.176101 0)
(0.110486 0.165259 0)
(0.111203 0.154153 0)
(0.111776 0.142803 0)
(0.112214 0.131219 0)
(0.112515 0.119402 0)
(0.112673 0.10735 0)
(0.112678 0.095062 0)
(0.112514 0.0825392 0)
(0.112166 0.0697876 0)
(0.111618 0.0568189 0)
(0.110856 0.0436509 0)
(0.109865 0.0303073 0)
(0.108633 0.0168169 0)
(0.107153 0.003213 0)
(0.105417 -0.0104676 0)
(0.103422 -0.0241849 0)
(0.101164 -0.0378962 0)
(0.0986429 -0.0515566 0)
(0.0958607 -0.0651187 0)
(0.0928192 -0.0785324 0)
(0.089522 -0.0917445 0)
(0.0859738 -0.104699 0)
(0.0821804 -0.117334 0)
(0.078149 -0.129588 0)
(0.120741 0.18533 0)
(0.12209 0.175007 0)
(0.123226 0.164349 0)
(0.124171 0.153407 0)
(0.124944 0.142209 0)
(0.125554 0.130773 0)
(0.126004 0.119106 0)
(0.12629 0.107212 0)
(0.126404 0.095093 0)
(0.126333 0.0827538 0)
(0.126063 0.0702013 0)
(0.125578 0.0574471 0)
(0.124864 0.0445081 0)
(0.123907 0.0314063 0)
(0.122695 0.0181684 0)
(0.121218 0.00482544 0)
(0.119467 -0.008588 0)
(0.117437 -0.022034 0)
(0.115124 -0.035472 0)
(0.112527 -0.0488585 0)
(0.109643 -0.0621476 0)
(0.106475 -0.0752904 0)
(0.103023 -0.0882349 0)
(0.0992915 -0.100926 0)
(0.0952843 -0.113304 0)
(0.0910074 -0.125309 0)
(0.132549 0.183698 0)
(0.134221 0.173621 0)
(0.135644 0.163182 0)
(0.136841 0.152437 0)
(0.137833 0.141422 0)
(0.138633 0.130161 0)
(0.139244 0.118667 0)
(0.139668 0.106952 0)
(0.139898 0.0950215 0)
(0.139924 0.0828827 0)
(0.139733 0.0705448 0)
(0.139313 0.0580199 0)
(0.138647 0.0453246 0)
(0.137724 0.0324796 0)
(0.136529 0.0195099 0)
(0.135053 0.00644471 0)
(0.133286 -0.0066834 0)
(0.131221 -0.0198385 0)
(0.128852 -0.0329817 0)
(0.126177 -0.0460713 0)
(0.123192 -0.0590625 0)
(0.119896 -0.0719079 0)
(0.11629 -0.0845567 0)
(0.112375 -0.096955 0)
(0.108154 -0.109046 0)
(0.103633 -0.120769 0)
(0.0988183 -0.132062 0)
(0.093719 -0.142863 0)
(0.0883475 -0.15311 0)
(0.143896 0.181712 0)
(0.145924 0.171917 0)
(0.147664 0.161733 0)
(0.14914 0.151221 0)
(0.150376 0.140421 0)
(0.151385 0.129365 0)
(0.152177 0.118073 0)
(0.152752 0.106561 0)
(0.153109 0.0948398 0)
(0.15324 0.082921 0)
(0.153135 0.0708152 0)
(0.152782 0.0585362 0)
(0.152167 0.0461003 0)
(0.151277 0.0335278 0)
(0.1501 0.0208427 0)
(0.148624 0.00807231 0)
(0.146839 -0.00475219 0)
(0.144737 -0.0175967 0)
(0.142311 -0.0304239 0)
(0.139556 -0.0431935 0)
(0.136467 -0.0558623 0)
(0.133043 -0.068384 0)
(0.129281 -0.0807093 0)
(0.125182 -0.0927858 0)
(0.120748 -0.104558 0)
(0.115982 -0.115968 0)
(0.110892 -0.126957 0)
(0.105486 -0.137464 0)
(0.0997763 -0.14743 0)
(0.154697 0.179332 0)
(0.157109 0.16986 0)
(0.159197 0.159971 0)
(0.160982 0.149729 0)
(0.162489 0.139181 0)
(0.163734 0.128363 0)
(0.164727 0.117303 0)
(0.165473 0.106022 0)
(0.165973 0.0945362 0)
(0.166222 0.0828596 0)
(0.166212 0.0710063 0)
(0.165933 0.0589917 0)
(0.165373 0.046833 0)
(0.16452 0.0345503 0)
(0.163361 0.0221669 0)
(0.161885 0.00970929 0)
(0.160082 -0.0027928 0)
(0.157941 -0.0153067 0)
(0.155456 -0.0277964 0)
(0.152619 -0.040223 0)
(0.149424 -0.0525447 0)
(0.145869 -0.0647168 0)
(0.141949 -0.0766912 0)
(0.137665 -0.0884173 0)
(0.133017 -0.0998416 0)
(0.128008 -0.110909 0)
(0.122643 -0.121562 0)
(0.116933 -0.131743 0)
(0.110889 -0.141399 0)
(0.164852 0.176534 0)
(0.16768 0.167421 0)
(0.170145 0.157865 0)
(0.172271 0.147932 0)
(0.174079 0.137673 0)
(0.175587 0.127131 0)
(0.176807 0.116337 0)
(0.177747 0.105318 0)
(0.17841 0.0940943 0)
(0.178794 0.0826854 0)
(0.178892 0.0711078 0)
(0.178698 0.059379 0)
(0.178201 0.0475175 0)
(0.177389 0.0355438 0)
(0.176252 0.0234812 0)
(0.174778 0.0113555 0)
(0.172956 -0.000804547 0)
(0.170777 -0.0129668 0)
(0.16823 -0.025097 0)
(0.16531 -0.0371575 0)
(0.162008 -0.0491077 0)
(0.158319 -0.0609042 0)
(0.154241 -0.0725009 0)
(0.14977 -0.0838486 0)
(0.144908 -0.0948963 0)
(0.139656 -0.105591 0)
(0.134021 -0.115879 0)
(0.128011 -0.125706 0)
(0.121639 -0.135023 0)
(0.174261 0.173291 0)
(0.177531 0.164571 0)
(0.180404 0.155385 0)
(0.182899 0.145799 0)
(0.185038 0.135869 0)
(0.186839 0.125639 0)
(0.188315 0.115147 0)
(0.189475 0.104423 0)
(0.190324 0.0934938 0)
(0.190862 0.0823813 0)
(0.191086 0.0711058 0)
(0.190991 0.0596871 0)
(0.190568 0.0481456 0)
(0.189807 0.0365027 0)
(0.188698 0.024782 0)
(0.18723 0.0130092 0)
(0.185392 0.00121264 0)
(0.183175 -0.0105764 0)
(0.180568 -0.0223246 0)
(0.177562 -0.0339954 0)
(0.174152 -0.0455496 0)
(0.17033 -0.0569452 0)
(0.166093 -0.0681376 0)
(0.161437 -0.07908 0)
(0.156362 -0.0897234 0)
(0.150872 -0.100018 0)
(0.14497 -0.109913 0)
(0.138667 -0.119359 0)
(0.131977 -0.128309 0)
(0.182828 0.169578 0)
(0.18656 0.161283 0)
(0.189865 0.152502 0)
(0.192757 0.143301 0)
(0.195256 0.133737 0)
(0.197379 0.123858 0)
(0.199139 0.113705 0)
(0.200546 0.103313 0)
(0.201606 0.0927114 0)
(0.202321 0.0819268 0)
(0.202692 0.0709827 0)
(0.202712 0.0599016 0)
(0.202378 0.0487056 0)
(0.201679 0.0374178 0)
(0.200608 0.0260625 0)
(0.199153 0.0146657 0)
(0.197304 0.00325566 0)
(0.195052 -0.00813734 0)
(0.192387 -0.0194802 0)
(0.1893 -0.0307374 0)
(0.185783 -0.041871 0)
(0.18183 -0.0528404 0)
(0.177436 -0.063603 0)
(0.172598 -0.0741139 0)
(0.167316 -0.0843269 0)
(0.161593 -0.0941949 0)
(0.155433 -0.103671 0)
(0.148848 -0.11271 0)
(0.141852 -0.12127 0)
(0.190462 0.165382 0)
(0.19467 0.157538 0)
(0.198424 0.149192 0)
(0.201734 0.140411 0)
(0.204618 0.13125 0)
(0.207088 0.12176 0)
(0.209159 0.111984 0)
(0.210839 0.10196 0)
(0.212136 0.091722 0)
(0.213053 0.0812992 0)
(0.213592 0.0707184 0)
(0.213749 0.0600048 0)
(0.21352 0.0491828 0)
(0.212899 0.038277 0)
(0.211877 0.0273129 0)
(0.210445 0.016317 0)
(0.208595 0.00531769 0)
(0.206316 -0.00565472 0)
(0.203598 -0.0165679 0)
(0.200435 -0.027387 0)
(0.196817 -0.0380754 0)
(0.192738 -0.0485939 0)
(0.188194 -0.0589017 0)
(0.183182 -0.0689563 0)
(0.177701 -0.0787143 0)
(0.171756 -0.0881317 0)
(0.165352 -0.0971655 0)
(0.1585 -0.105775 0)
(0.151215 -0.113922 0)
(0.197085 0.160697 0)
(0.201771 0.153324 0)
(0.205984 0.145441 0)
(0.209727 0.137109 0)
(0.213012 0.128385 0)
(0.215852 0.11932 0)
(0.218256 0.109957 0)
(0.220234 0.100339 0)
(0.221793 0.0905006 0)
(0.222935 0.0804747 0)
(0.223665 0.0702909 0)
(0.223979 0.059977 0)
(0.223876 0.0495595 0)
(0.223349 0.0390649 0)
(0.222392 0.0285198 0)
(0.220998 0.0179516 0)
(0.219158 0.00738922 0)
(0.216863 -0.00313717 0)
(0.214104 -0.0135955 0)
(0.210873 -0.0239518 0)
(0.207164 -0.0341704 0)
(0.20297 -0.0442138 0)
(0.198287 -0.054043 0)
(0.193113 -0.063618 0)
(0.187448 -0.072898 0)
(0.181297 -0.0818426 0)
(0.174667 -0.0904128 0)
(0.167569 -0.098572 0)
(0.16002 -0.106288 0)
(0.202637 0.155529 0)
(0.207794 0.148641 0)
(0.212464 0.14124 0)
(0.216644 0.133384 0)
(0.220341 0.125127 0)
(0.223564 0.116518 0)
(0.22632 0.107604 0)
(0.228615 0.0984265 0)
(0.230456 0.0890236 0)
(0.231846 0.0794301 0)
(0.232788 0.0696779 0)
(0.233281 0.059797 0)
(0.233323 0.0498162 0)
(0.232911 0.0397635 0)
(0.232038 0.0296669 0)
(0.230698 0.0195548 0)
(0.228884 0.00945651 0)
(0.226588 -0.000597635 0)
(0.223802 -0.0105754 0)
(0.22052 -0.020444 0)
(0.216734 -0.0301688 0)
(0.212441 -0.0397136 0)
(0.207636 -0.0490416 0)
(0.202318 -0.058115 0)
(0.19649 -0.0668962 0)
(0.190155 -0.0753482 0)
(0.183324 -0.083436 0)
(0.176009 -0.0911278 0)
(0.168227 -0.0983964 0)
(0.207081 0.149893 0)
(0.21269 0.143498 0)
(0.217805 0.136593 0)
(0.222415 0.129232 0)
(0.226525 0.121466 0)
(0.230136 0.113343 0)
(0.233252 0.104908 0)
(0.235878 0.0962046 0)
(0.238018 0.0872713 0)
(0.239674 0.0781445 0)
(0.240848 0.0688581 0)
(0.24154 0.0594438 0)
(0.241748 0.0499322 0)
(0.24147 0.0403529 0)
(0.240701 0.0307351 0)
(0.239435 0.0211082 0)
(0.237667 0.011502 0)
(0.235389 0.00194704 0)
(0.232596 -0.00752477 0)
(0.229282 -0.0168813 0)
(0.22544 -0.0260888 0)
(0.221069 -0.0351129 0)
(0.216165 -0.0439184 0)
(0.210729 -0.0524703 0)
(0.204764 -0.0607339 0)
(0.198277 -0.068676 0)
(0.191277 -0.0762655 0)
(0.18378 -0.0834755 0)
(0.175805 -0.0902841 0)
(0.210404 0.143819 0)
(0.216435 0.137917 0)
(0.221972 0.131515 0)
(0.226997 0.124662 0)
(0.231509 0.117406 0)
(0.235504 0.109791 0)
(0.238982 0.101862 0)
(0.241944 0.0936618 0)
(0.244392 0.085229 0)
(0.246327 0.0766011 0)
(0.247748 0.0678129 0)
(0.248657 0.0588977 0)
(0.249051 0.0498873 0)
(0.248927 0.0408125 0)
(0.248282 0.0317036 0)
(0.247112 0.0225907 0)
(0.245411 0.0135043 0)
(0.243175 0.00447503 0)
(0.240398 -0.00446581 0)
(0.237076 -0.0132867 0)
(0.233206 -0.0219547 0)
(0.228784 -0.0304371 0)
(0.223811 -0.0387009 0)
(0.218289 -0.0467136 0)
(0.212223 -0.0544435 0)
(0.20562 -0.0618611 0)
(0.198492 -0.0689397 0)
(0.190858 -0.0756568 0)
(0.182737 -0.0819961 0)
(0.212626 0.137345 0)
(0.219039 0.13193 0)
(0.224964 0.126031 0)
(0.230377 0.119693 0)
(0.235269 0.112958 0)
(0.239634 0.105868 0)
(0.243466 0.0984669 0)
(0.246762 0.090794 0)
(0.24952 0.0828887 0)
(0.25174 0.0747882 0)
(0.25342 0.066528 0)
(0.254558 0.0581419 0)
(0.255153 0.0496626 0)
(0.255203 0.0411219 0)
(0.254703 0.0325506 0)
(0.253651 0.0239796 0)
(0.252042 0.0154394 0)
(0.249873 0.00696057 0)
(0.24714 -0.00142615 0)
(0.24384 -0.00968866 0)
(0.239972 -0.0177965 0)
(0.235534 -0.0257184 0)
(0.230528 -0.0334235 0)
(0.224959 -0.0408819 0)
(0.218833 -0.048065 0)
(0.212161 -0.054947 0)
(0.204955 -0.0615053 0)
(0.197237 -0.0677224 0)
(0.189028 -0.0735872 0)
(0.213793 0.130518 0)
(0.22054 0.125577 0)
(0.226811 0.120177 0)
(0.232574 0.114354 0)
(0.237818 0.108145 0)
(0.242529 0.101592 0)
(0.246697 0.0947324 0)
(0.250316 0.0876058 0)
(0.253379 0.0802496 0)
(0.255883 0.0727005 0)
(0.257825 0.0649938 0)
(0.259202 0.0571633 0)
(0.260012 0.0492421 0)
(0.26025 0.0412622 0)
(0.259915 0.0332549 0)
(0.259003 0.0252511 0)
(0.257511 0.0172814 0)
(0.255437 0.00937622 0)
(0.252779 0.00156563 0)
(0.249535 -0.00611924 0)
(0.245705 -0.0136492 0)
(0.24129 -0.0209949 0)
(0.236295 -0.0281275 0)
(0.230725 -0.0350198 0)
(0.22459 -0.0416466 0)
(0.217903 -0.0479857 0)
(0.210679 -0.0540187 0)
(0.20294 -0.0597329 0)
(0.194712 -0.0651223 0)
(0.213982 0.123391 0)
(0.221009 0.11891 0)
(0.227576 0.113996 0)
(0.233647 0.108681 0)
(0.239204 0.103 0)
(0.244229 0.0969864 0)
(0.248708 0.0906777 0)
(0.252629 0.0841099 0)
(0.255984 0.0773188 0)
(0.258766 0.0703396 0)
(0.260968 0.0632067 0)
(0.262588 0.0559537 0)
(0.263619 0.0486131 0)
(0.26406 0.0412168 0)
(0.263907 0.0337961 0)
(0.263157 0.0263815 0)
(0.261808 0.0190034 0)
(0.259858 0.0116917 0)
(0.257308 0.00447584 0)
(0.254156 -0.00261561 0)
(0.250406 -0.00955364 0)
(0.24606 -0.0163108 0)
(0.241125 -0.022861 0)
(0.235609 -0.0291798 0)
(0.229525 -0.0352452 0)
(0.222886 -0.0410387 0)
(0.215713 -0.0465463 0)
(0.208029 -0.0517597 0)
(0.199861 -0.0566779 0)
(0.213295 0.116023 0)
(0.220546 0.111981 0)
(0.227357 0.107538 0)
(0.233686 0.102721 0)
(0.239512 0.0975594 0)
(0.244813 0.0920845 0)
(0.24957 0.0863291 0)
(0.253768 0.0803265 0)
(0.257395 0.0741101 0)
(0.260441 0.0677132 0)
(0.262897 0.0611689 0)
(0.264757 0.0545096 0)
(0.266015 0.0477669 0)
(0.266669 0.0409721 0)
(0.266713 0.0341557 0)
(0.266145 0.0273476 0)
(0.264965 0.0205775 0)
(0.263171 0.0138742 0)
(0.260764 0.00726611 0)
(0.257747 0.000780457 0)
(0.254123 -0.00555574 0)
(0.249898 -0.0117171 0)
(0.24508 -0.0176801 0)
(0.239682 -0.023423 0)
(0.233717 -0.0289274 0)
(0.227203 -0.0341783 0)
(0.220162 -0.0391659 0)
(0.212619 -0.0438862 0)
(0.204606 -0.0483429 0)
(0.211858 0.108472 0)
(0.219277 0.104846 0)
(0.226277 0.100855 0)
(0.232814 0.0965206 0)
(0.238863 0.091868 0)
(0.244399 0.0869244 0)
(0.249398 0.0817188 0)
(0.253843 0.0762815 0)
(0.257717 0.0706431 0)
(0.261009 0.0648347 0)
(0.263707 0.0588872 0)
(0.265803 0.0528315 0)
(0.267291 0.0466979 0)
(0.268165 0.0405163 0)
(0.268421 0.0343161 0)
(0.268057 0.0281261 0)
(0.267073 0.0219747 0)
(0.265469 0.0158893 0)
(0.263246 0.00989669 0)
(0.26041 0.00402275 0)
(0.256966 -0.001708 0)
(0.252922 -0.00727245 0)
(0.24829 -0.0126496 0)
(0.243083 -0.0178208 0)
(0.237319 -0.022771 0)
(0.231018 -0.0274889 0)
(0.224203 -0.0319684 0)
(0.216904 -0.0362096 0)
(0.209152 -0.0402203 0)
(0.209821 0.100793 0)
(0.217356 0.0975597 0)
(0.224495 0.0939995 0)
(0.231191 0.0901294 0)
(0.237418 0.0859704 0)
(0.243146 0.081546 0)
(0.248351 0.0768814 0)
(0.253011 0.0720037 0)
(0.257108 0.0669404 0)
(0.260627 0.0617199 0)
(0.263555 0.0563709 0)
(0.265883 0.0509221 0)
(0.267602 0.0454017 0)
(0.268706 0.0398381 0)
(0.269192 0.034259 0)
(0.269057 0.0286915 0)
(0.268301 0.0231623 0)
(0.266927 0.0176971 0)
(0.264937 0.0123207 0)
(0.262338 0.00705691 0)
(0.259138 0.00192789 0)
(0.255347 -0.00304586 0)
(0.25098 -0.0078461 0)
(0.246053 -0.0124574 0)
(0.240585 -0.0168677 0)
(0.2346 -0.0210691 0)
(0.228124 -0.0250592 0)
(0.221185 -0.0288417 0)
(0.213817 -0.0324279 0)
(0.207369 0.0930346 0)
(0.214976 0.0901709 0)
(0.222209 0.087019 0)
(0.229023 0.0835925 0)
(0.235387 0.0799087 0)
(0.241273 0.0759873 0)
(0.246651 0.0718501 0)
(0.2515 0.0675205 0)
(0.255799 0.0630232 0)
(0.259531 0.0583836 0)
(0.262683 0.0536276 0)
(0.265242 0.0487812 0)
(0.2672 0.0438708 0)
(0.268551 0.0389221 0)
(0.269291 0.0339608 0)
(0.269419 0.0290121 0)
(0.268935 0.0241003 0)
(0.267842 0.0192491 0)
(0.266145 0.0144809 0)
(0.263853 0.00981719 0)
(0.260975 0.00527753 0)
(0.257526 0.000879672 0)
(0.253521 -0.00336104 0)
(0.248978 -0.00743224 0)
(0.24392 -0.011325 0)
(0.238372 -0.0150339 0)
(0.23236 -0.0185601 0)
(0.225914 -0.0219103 0)
(0.219069 -0.0250984 0)
(0.20476 0.085236 0)
(0.212407 0.0827182 0)
(0.219705 0.0799515 0)
(0.226606 0.0769463 0)
(0.233081 0.0737165 0)
(0.239099 0.0702783 0)
(0.244631 0.0666501 0)
(0.249654 0.062852 0)
(0.254146 0.0589053 0)
(0.258089 0.0548325 0)
(0.261469 0.0506564 0)
(0.264273 0.0464003 0)
(0.266493 0.0420878 0)
(0.268122 0.0377422 0)
(0.269157 0.0333865 0)
(0.269596 0.0290433 0)
(0.269443 0.0247347 0)
(0.268701 0.0204817 0)
(0.267376 0.0163042 0)
(0.26548 0.012221 0)
(0.263024 0.00824891 0)
(0.260023 0.00440307 0)
(0.256495 0.00069596 0)
(0.25246 -0.00286292 0)
(0.247943 -0.00626813 0)
(0.242969 -0.00951515 0)
(0.237563 -0.0126089 0)
(0.231758 -0.0155579 0)
(0.225584 -0.0183779 0)
(0.202415 0.0774194 0)
(0.210093 0.0752245 0)
(0.217443 0.0728193 0)
(0.224423 0.0702113 0)
(0.231001 0.0674115 0)
(0.237148 0.0644329 0)
(0.242835 0.0612907 0)
(0.248038 0.0580016 0)
(0.252735 0.0545838 0)
(0.256908 0.0510565 0)
(0.260543 0.0474393 0)
(0.263628 0.0437528 0)
(0.266153 0.0400172 0)
(0.268113 0.0362532 0)
(0.269506 0.032481 0)
(0.270331 0.0287204 0)
(0.270592 0.0249907 0)
(0.270293 0.0213101 0)
(0.269443 0.0176959 0)
(0.268054 0.0141641 0)
(0.266138 0.0107289 0)
(0.263714 0.00740267 0)
(0.260798 0.00419548 0)
(0.257412 0.00111465 0)
(0.253581 -0.00183546 0)
(0.249331 -0.00465833 0)
(0.244684 -0.00735551 0)
(0.239672 -0.00993718 0)
(0.234324 -0.0124203 0)
(0.201111 0.0695841 0)
(0.208834 0.0676889 0)
(0.216254 0.0656202 0)
(0.223331 0.0633835 0)
(0.230034 0.0609868 0)
(0.236335 0.0584403 0)
(0.242206 0.055756 0)
(0.247624 0.0529476 0)
(0.252568 0.0500301 0)
(0.25702 0.0470194 0)
(0.260966 0.0439321 0)
(0.264396 0.0407854 0)
(0.2673 0.0375967 0)
(0.269674 0.0343835 0)
(0.271515 0.0311632 0)
(0.272825 0.0279525 0)
(0.273607 0.0247678 0)
(0.273868 0.0216248 0)
(0.273617 0.0185379 0)
(0.272866 0.0155203 0)
(0.271628 0.0125839 0)
(0.269922 0.0097385 0)
(0.267765 0.00699189 0)
(0.265178 0.00434934 0)
(0.262183 0.00181368 0)
(0.258804 -0.000620091 0)
(0.255068 -0.00295504 0)
(0.250998 -0.00520199 0)
(0.246622 -0.00737749 0)
(0.202292 0.061699 0)
(0.210109 0.0600792 0)
(0.217649 0.0583207 0)
(0.224874 0.0564267 0)
(0.231756 0.0544027 0)
(0.238269 0.0522565 0)
(0.244387 0.0499971 0)
(0.250087 0.0476353 0)
(0.255351 0.0451829 0)
(0.260161 0.0426529 0)
(0.264504 0.0400587 0)
(0.268371 0.0374144 0)
(0.271753 0.0347344 0)
(0.274646 0.0320331 0)
(0.277048 0.0293248 0)
(0.278961 0.0266237 0)
(0.28039 0.0239432 0)
(0.28134 0.0212961 0)
(0.28182 0.0186945 0)
(0.281844 0.0161492 0)
(0.281423 0.0136695 0)
(0.280574 0.0112633 0)
(0.279316 0.0089364 0)
(0.277666 0.00669219 0)
(0.275644 0.00453095 0)
(0.273273 0.00245274 0)
(0.270574 0.0004491 0)
(0.267568 -0.00148997 0)
(0.264279 -0.00338199 0)
(0.208536 0.053699 0)
(0.216523 0.0523298 0)
(0.22426 0.0508534 0)
(0.231711 0.0492713 0)
(0.238852 0.0475869 0)
(0.245659 0.0458056 0)
(0.252108 0.0439339 0)
(0.258178 0.0419798 0)
(0.263852 0.0399525 0)
(0.269115 0.0378618 0)
(0.273954 0.0357185 0)
(0.278359 0.0335336 0)
(0.282324 0.0313186 0)
(0.285845 0.029085 0)
(0.28892 0.0268446 0)
(0.29155 0.0246085 0)
(0.293739 0.0223877 0)
(0.295493 0.0201926 0)
(0.29682 0.0180329 0)
(0.297731 0.0159171 0)
(0.298238 0.0138528 0)
(0.298355 0.011846 0)
(0.298097 0.00990103 0)
(0.297481 0.0080203 0)
(0.296525 0.00620369 0)
(0.295245 0.0044492 0)
(0.293661 0.00275013 0)
(0.291788 0.00109699 0)
(0.289645 -0.000526796 0)
(0.224068 0.0454958 0)
(0.232305 0.044353 0)
(0.240317 0.0431309 0)
(0.248072 0.0418296 0)
(0.255547 0.0404508 0)
(0.262722 0.0389978 0)
(0.269575 0.0374751 0)
(0.276089 0.0358883 0)
(0.282246 0.0342441 0)
(0.288033 0.0325497 0)
(0.293439 0.0308133 0)
(0.298453 0.0290433 0)
(0.303071 0.0272486 0)
(0.307287 0.0254382 0)
(0.311099 0.0236211 0)
(0.314508 0.0218063 0)
(0.317517 0.0200025 0)
(0.320129 0.0182177 0)
(0.322353 0.0164597 0)
(0.324196 0.0147351 0)
(0.325668 0.0130499 0)
(0.326781 0.0114087 0)
(0.327548 0.0098148 0)
(0.327981 0.0082697 0)
(0.328096 0.00677295 0)
(0.327906 0.00532192 0)
(0.327425 0.00391072 0)
(0.326665 0.00253039 0)
(0.325641 0.00116779 0)
(0.255136 0.0370143 0)
(0.263653 0.0360779 0)
(0.271962 0.0350863 0)
(0.280036 0.0340383 0)
(0.287856 0.0329345 0)
(0.295404 0.0317763 0)
(0.302661 0.0305668 0)
(0.309613 0.0293096 0)
(0.316243 0.0280093 0)
(0.322539 0.0266712 0)
(0.32849 0.0253009 0)
(0.334088 0.0239049 0)
(0.339325 0.0224898 0)
(0.344198 0.0210623 0)
(0.348703 0.0196292 0)
(0.35284 0.0181976 0)
(0.35661 0.0167739 0)
(0.360016 0.0153644 0)
(0.363063 0.0139751 0)
(0.365757 0.0126112 0)
(0.368105 0.011277 0)
(0.370117 0.00997623 0)
(0.371803 0.00871109 0)
(0.373172 0.00748264 0)
(0.374237 0.00629014 0)
(0.375006 0.00513106 0)
(0.375493 0.00400019 0)
(0.375704 0.00288993 0)
(0.375651 0.00178842 0)
(0.309886 0.0282696 0)
(0.318566 0.0275287 0)
(0.327047 0.0267519 0)
(0.335306 0.0259378 0)
(0.343328 0.0250859 0)
(0.351097 0.0241968 0)
(0.358599 0.0232721 0)
(0.365819 0.0223143 0)
(0.372744 0.0213263 0)
(0.379363 0.0203116 0)
(0.385667 0.0192743 0)
(0.391646 0.018219 0)
(0.397294 0.0171503 0)
(0.402607 0.0160732 0)
(0.40758 0.0149927 0)
(0.412213 0.0139139 0)
(0.416505 0.0128416 0)
(0.420457 0.0117806 0)
(0.424074 0.0107352 0)
(0.427359 0.00970919 0)
(0.430319 0.00870591 0)
(0.432959 0.00772783 0)
(0.435288 0.00677651 0)
(0.437314 0.00585246 0)
(0.439045 0.00495482 0)
(0.440489 0.00408145 0)
(0.441656 0.00322795 0)
(0.44255 0.00238809 0)
(0.44318 0.0015512 0)
(0.397298 0.0194688 0)
(0.405767 0.0189231 0)
(0.414038 0.0183562 0)
(0.422091 0.0177667 0)
(0.429916 0.0171539 0)
(0.437501 0.0165178 0)
(0.444834 0.0158595 0)
(0.451902 0.0151802 0)
(0.458696 0.014482 0)
(0.465206 0.0137671 0)
(0.471423 0.0130383 0)
(0.477339 0.0122986 0)
(0.482949 0.0115513 0)
(0.488247 0.0107997 0)
(0.493232 0.0100474 0)
(0.4979 0.0092978 0)
(0.502252 0.00855438 0)
(0.506288 0.00782035 0)
(0.510011 0.00709868 0)
(0.513424 0.00639203 0)
(0.516533 0.00570259 0)
(0.519342 0.00503198 0)
(0.521858 0.00438107 0)
(0.524089 0.00374988 0)
(0.526041 0.00313712 0)
(0.52772 0.00254117 0)
(0.529136 0.00195888 0)
(0.530289 0.00138555 0)
(0.531189 0.000811445 0)
(0.524776 0.0110984 0)
(0.532296 0.0107538 0)
(0.539622 0.010398 0)
(0.546739 0.0100302 0)
(0.553638 0.00965008 0)
(0.560313 0.00925746 0)
(0.566753 0.00885286 0)
(0.572949 0.0084372 0)
(0.578894 0.00801168 0)
(0.58458 0.00757776 0)
(0.59 0.00713713 0)
(0.595149 0.0066917 0)
(0.600021 0.00624348 0)
(0.604615 0.00579459 0)
(0.608926 0.0053472 0)
(0.612955 0.00490343 0)
(0.616702 0.00446535 0)
(0.620168 0.0040349 0)
(0.623356 0.00361384 0)
(0.62627 0.00320368 0)
(0.628915 0.00280563 0)
(0.631296 0.00242057 0)
(0.633418 0.00204886 0)
(0.63529 0.00169039 0)
(0.636917 0.00134334 0)
(0.638306 0.00100594 0)
(0.639466 0.000676286 0)
(0.640392 0.000350007 0)
(0.641095 2.44926e-05 0)
(0.694103 0.00416319 0)
(0.69956 0.00401009 0)
(0.704851 0.00385183 0)
(0.709967 0.00368857 0)
(0.7149 0.00352031 0)
(0.719646 0.00334711 0)
(0.724199 0.0031693 0)
(0.728552 0.00298746 0)
(0.732701 0.00280229 0)
(0.73664 0.00261458 0)
(0.740367 0.00242524 0)
(0.743876 0.00223522 0)
(0.747167 0.00204553 0)
(0.750238 0.00185718 0)
(0.753089 0.00167118 0)
(0.75572 0.0014885 0)
(0.758133 0.00131005 0)
(0.760332 0.00113665 0)
(0.76232 0.000968998 0)
(0.764101 0.000807602 0)
(0.765681 0.000652866 0)
(0.767066 0.000504831 0)
(0.768262 0.000363732 0)
(0.769273 0.000229108 0)
(0.770108 0.000102287 0)
(0.770771 -1.92105e-05 0)
(0.77127 -0.000138942 0)
(0.771604 -0.000259804 0)
(0.77178 -0.000381634 0)
(0.895917 0.000610196 0)
(0.898023 0.000578566 0)
(0.900046 0.000545422 0)
(0.901979 0.000510999 0)
(0.903819 0.000475446 0)
(0.905565 0.000438852 0)
(0.907214 0.000401368 0)
(0.908763 0.00036321 0)
(0.910211 0.000324624 0)
(0.911557 0.00028587 0)
(0.912799 0.000247217 0)
(0.913937 0.000208938 0)
(0.914971 0.000171307 0)
(0.915903 0.000134588 0)
(0.916734 9.90304e-05 0)
(0.917466 6.48574e-05 0)
(0.918101 3.22676e-05 0)
(0.918642 1.41127e-06 0)
(0.919093 -2.75832e-05 0)