<?xml version="1.0"?>
<VTKFile type="PolyData" version="0.1" byte_order="LittleEndian" header_type="UInt32" compressor="vtkZLibDataCompressor">
  <PolyData>
    <Piece NumberOfPoints="24" NumberOfVerts="0" NumberOfLines="0" NumberOfStrips="0" NumberOfPolys="6">
      <PointData Normals="Normals" TCoords="TCoords">
        <DataArray type="Float32" Name="Normals" NumberOfComponents="3" format="ascii" RangeMin="1" RangeMax="1">
          -1 0 0 -1 0 0
          -1 0 0 -1 0 0
          1 0 0 1 0 0
          1 0 0 1 0 0
          0 -1 0 0 -1 0
          0 -1 0 0 -1 0
          0 1 0 0 1 0
          0 1 0 0 1 0
          0 0 -1 0 0 -1
          0 0 -1 0 0 -1
          0 0 1 0 0 1
          0 0 1 0 0 1
          <InformationKey name="L2_NORM_RANGE" location="vtkDataArray" length="2">
            <Value index="0">
              1
            </Value>
            <Value index="1">
              1
            </Value>
          </InformationKey>
        </DataArray>
        <DataArray type="Float32" Name="TCoords" NumberOfComponents="2" format="ascii" RangeMin="0.5114733159913336" RangeMax="0.7391642724383475">
          0.3427800238132477 0.44840899109840393 0.49950000643730164 0.44840899109840393 0.3427800238132477 0.5164996385574341
          0.49950000643730164 0.5164996385574341 -0.3427800238132477 0.44840899109840393 -0.49950000643730164 0.44840899109840393
          -0.3427800238132477 0.5164996385574341 -0.49950000643730164 0.5164996385574341 -0.3796140253543854 -0.3427800238132477
          -0.3796140253543854 -0.49950000643730164 -0.528764545917511 -0.3427800238132477 -0.528764545917511 -0.49950000643730164
          0.3796140253543854 -0.3427800238132477 0.3796140253543854 -0.49950000643730164 0.528764545917511 -0.3427800238132477
          0.528764545917511 -0.49950000643730164 -0.3796140253543854 0.44840899109840393 -0.528764545917511 0.44840899109840393
          -0.3796140253543854 0.5164996385574341 -0.528764545917511 0.5164996385574341 0.3796140253543854 0.44840899109840393
          0.528764545917511 0.44840899109840393 0.3796140253543854 0.5164996385574341 0.528764545917511 0.5164996385574341
          <InformationKey name="L2_NORM_RANGE" location="vtkDataArray" length="2">
            <Value index="0">
              0.51147331599
            </Value>
            <Value index="1">
              0.73916427244
            </Value>
          </InformationKey>
        </DataArray>
      </PointData>
      <CellData>
      </CellData>
      <Points>
        <DataArray type="Float32" Name="Points" NumberOfComponents="3" format="ascii" RangeMin="0.033164520599376184" RangeMax="0.20462780308871267">
          -0.12038598209619522 -0.05159100890159607 -0.15721997618675232 -0.12038598209619522 -0.05159100890159607 -0.0004999999073334038
          -0.12038598209619522 0.01649961806833744 -0.15721997618675232 -0.12038598209619522 0.01649961806833744 -0.0004999999073334038
          0.028764527291059494 -0.05159100890159607 -0.15721997618675232 0.028764527291059494 -0.05159100890159607 -0.0004999999073334038
          0.028764527291059494 0.01649961806833744 -0.15721997618675232 0.028764527291059494 0.01649961806833744 -0.0004999999073334038
          -0.12038598209619522 -0.05159100890159607 -0.15721997618675232 -0.12038598209619522 -0.05159100890159607 -0.0004999999073334038
          0.028764527291059494 -0.05159100890159607 -0.15721997618675232 0.028764527291059494 -0.05159100890159607 -0.0004999999073334038
          -0.12038598209619522 0.01649961806833744 -0.15721997618675232 -0.12038598209619522 0.01649961806833744 -0.0004999999073334038
          0.028764527291059494 0.01649961806833744 -0.15721997618675232 0.028764527291059494 0.01649961806833744 -0.0004999999073334038
          -0.12038598209619522 -0.05159100890159607 -0.15721997618675232 0.028764527291059494 -0.05159100890159607 -0.15721997618675232
          -0.12038598209619522 0.01649961806833744 -0.15721997618675232 0.028764527291059494 0.01649961806833744 -0.15721997618675232
          -0.12038598209619522 -0.05159100890159607 -0.0004999999073334038 0.028764527291059494 -0.05159100890159607 -0.0004999999073334038
          -0.12038598209619522 0.01649961806833744 -0.0004999999073334038 0.028764527291059494 0.01649961806833744 -0.0004999999073334038
          <InformationKey name="L2_NORM_RANGE" location="vtkDataArray" length="2">
            <Value index="0">
              0.033164520599
            </Value>
            <Value index="1">
              0.20462780309
            </Value>
          </InformationKey>
        </DataArray>
      </Points>
      <Verts>
        <DataArray type="Int64" Name="connectivity" format="ascii" RangeMin="1e+299" RangeMax="-1e+299">
        </DataArray>
        <DataArray type="Int64" Name="offsets" format="ascii" RangeMin="1e+299" RangeMax="-1e+299">
        </DataArray>
      </Verts>
      <Lines>
        <DataArray type="Int64" Name="connectivity" format="ascii" RangeMin="1e+299" RangeMax="-1e+299">
        </DataArray>
        <DataArray type="Int64" Name="offsets" format="ascii" RangeMin="1e+299" RangeMax="-1e+299">
        </DataArray>
      </Lines>
      <Strips>
        <DataArray type="Int64" Name="connectivity" format="ascii" RangeMin="1e+299" RangeMax="-1e+299">
        </DataArray>
        <DataArray type="Int64" Name="offsets" format="ascii" RangeMin="1e+299" RangeMax="-1e+299">
        </DataArray>
      </Strips>
      <Polys>
        <DataArray type="Int64" Name="connectivity" format="ascii" RangeMin="0" RangeMax="23">
          0 1 3 2 4 6
          7 5 8 10 11 9
          12 13 15 14 16 18
          19 17 20 21 23 22
        </DataArray>
        <DataArray type="Int64" Name="offsets" format="ascii" RangeMin="4" RangeMax="24">
          4 8 12 16 20 24
        </DataArray>
      </Polys>
    </Piece>
  </PolyData>
</VTKFile>
