/*--------------------------------*- C++ -*----------------------------------*\
  =========                 |
  \\      /  F ield         | OpenFOAM: The Open Source CFD Toolbox
   \\    /   O peration     | Website:  https://openfoam.org
    \\  /    A nd           | Version:  9
     \\/     M anipulation  |
\*---------------------------------------------------------------------------*/
FoamFile
{
    format      ascii;
    class       surfaceScalarField;
    location    "1.75";
    object      phi;
}
// * * * * * * * * * * * * * * * * * * * * * * * * * * * * * * * * * * * * * //

dimensions      [0 3 -1 0 0 0 0];

internalField   nonuniform List<scalar> 
2407
(
-5.20529e-08
-9.153e-09
-4.2627e-08
-9.42584e-09
-3.30714e-08
-9.55564e-09
-2.35316e-08
-9.53974e-09
-1.41529e-08
-9.37876e-09
-5.07614e-09
-9.07674e-09
3.56552e-09
-8.64166e-09
1.16506e-08
-8.08511e-09
1.90723e-08
-7.42164e-09
2.57415e-08
-6.66919e-09
3.15889e-08
-5.84747e-09
3.65664e-08
-4.97751e-09
4.06473e-08
-4.08084e-09
4.38259e-08
-3.17859e-09
4.61166e-08
-2.29075e-09
4.75521e-08
-1.43544e-09
4.81804e-08
-6.28347e-10
4.80627e-08
1.17706e-10
4.72697e-08
7.93005e-10
4.58785e-08
1.3912e-09
4.39696e-08
1.90887e-09
4.1624e-08
2.34562e-09
3.89204e-08
2.70362e-09
3.59333e-08
2.9871e-09
3.27316e-08
3.20176e-09
2.93775e-08
3.35406e-09
2.59272e-08
3.45034e-09
2.24313e-08
3.49584e-09
1.89378e-08
3.49355e-09
1.5495e-08
3.4428e-09
1.21572e-08
3.33777e-09
8.99132e-09
3.16589e-09
6.0849e-09
2.90643e-09
3.55445e-09
2.53045e-09
1.54895e-09
2.0055e-09
2.38469e-10
1.31048e-09
-2.44613e-10
4.8308e-10
-2.44613e-10
-1.56646e-07
-3.2741e-08
-1.3239e-07
-3.36824e-08
-1.07794e-07
-3.41515e-08
-8.31951e-08
-3.41383e-08
-5.89303e-08
-3.36435e-08
-3.53284e-08
-3.26787e-08
-1.2703e-08
-3.12671e-08
8.65523e-09
-2.94434e-08
2.8486e-08
-2.72525e-08
4.65649e-08
-2.4748e-08
6.2709e-08
-2.19916e-08
7.67805e-08
-1.9049e-08
8.86885e-08
-1.59889e-08
9.83899e-08
-1.288e-08
1.05888e-07
-9.7885e-09
1.11228e-07
-6.77603e-09
1.14497e-07
-3.89755e-09
1.15815e-07
-1.19979e-09
1.15328e-07
1.27957e-09
1.13206e-07
3.5139e-09
1.09629e-07
5.48512e-09
1.04789e-07
7.18562e-09
9.88768e-08
8.61632e-09
9.20785e-08
9.78534e-09
8.45742e-08
1.07061e-08
7.6533e-08
1.13952e-08
6.81141e-08
1.18693e-08
5.94677e-08
1.21422e-08
5.07404e-08
1.22209e-08
4.20812e-08
1.2102e-08
3.36515e-08
1.17675e-08
2.56357e-08
1.11817e-08
1.82521e-08
1.029e-08
1.17592e-08
9.02333e-09
6.44905e-09
7.31563e-09
2.61671e-09
5.14282e-09
4.94368e-10
2.60542e-09
2.49755e-10
-2.65696e-07
-6.76968e-08
-2.29758e-07
-6.96206e-08
-1.93281e-07
-7.06283e-08
-1.56721e-07
-7.06991e-08
-1.20533e-07
-6.98312e-08
-8.51682e-08
-6.80435e-08
-5.10595e-08
-6.53758e-08
-1.86139e-08
-6.1889e-08
1.17969e-08
-5.76633e-08
3.98451e-08
-5.27962e-08
6.52526e-08
-4.73991e-08
8.77986e-08
-4.15949e-08
1.07322e-07
-3.55125e-08
1.23725e-07
-2.92827e-08
1.36971e-07
-2.30344e-08
1.47084e-07
-1.68894e-08
1.54146e-07
-1.09594e-08
1.58288e-07
-5.34159e-09
1.59686e-07
-1.18799e-10
1.58551e-07
4.64936e-09
1.55121e-07
8.9152e-09
1.49652e-07
1.2654e-08
1.42412e-07
1.58568e-08
1.33668e-07
1.85292e-08
1.23686e-07
2.06882e-08
1.12723e-07
2.23578e-08
1.01029e-07
2.35639e-08
8.8843e-08
2.43279e-08
7.64037e-08
2.46603e-08
6.39518e-08
2.45539e-08
5.1742e-08
2.39773e-08
4.00531e-08
2.28706e-08
2.91974e-08
2.11458e-08
1.95242e-08
1.86965e-08
1.14124e-08
1.54274e-08
5.24484e-09
1.13104e-08
1.35799e-09
6.49226e-09
1.60774e-09
-3.83321e-07
-1.1163e-07
-3.3811e-07
-1.14832e-07
-2.92129e-07
-1.16609e-07
-2.45905e-07
-1.16924e-07
-1.99966e-07
-1.1577e-07
-1.54841e-07
-1.13169e-07
-1.11042e-07
-1.09175e-07
-6.90584e-08
-1.03872e-07
-2.93457e-08
-9.7376e-08
7.68488e-09
-8.98268e-08
4.1675e-08
-8.13892e-08
7.23246e-08
-7.22445e-08
9.94003e-08
-6.25882e-08
1.22738e-07
-5.26205e-08
1.42245e-07
-4.25415e-08
1.579e-07
-3.25444e-08
1.6975e-07
-2.28092e-08
1.77906e-07
-1.34977e-08
1.82536e-07
-4.74884e-09
1.8386e-07
3.32538e-09
1.82136e-07
1.06396e-08
1.77653e-07
1.7137e-08
1.70722e-07
2.27874e-08
1.61667e-07
2.75841e-08
1.50816e-07
3.15393e-08
1.38496e-07
3.46779e-08
1.2503e-07
3.703e-08
1.10736e-07
3.86214e-08
9.59325e-08
3.94642e-08
8.09393e-08
3.95471e-08
6.60901e-08
3.88264e-08
5.17399e-08
3.72208e-08
3.82734e-08
3.46123e-08
2.61095e-08
3.08604e-08
1.57013e-08
2.58356e-08
7.52982e-09
1.94819e-08
2.10102e-09
1.19211e-08
3.70876e-09
-5.13313e-07
-1.62734e-07
-4.60602e-07
-1.67543e-07
-4.06827e-07
-1.70383e-07
-3.52554e-07
-1.71197e-07
-2.98359e-07
-1.69965e-07
-2.4482e-07
-1.66707e-07
-1.92509e-07
-1.61486e-07
-1.41978e-07
-1.54404e-07
-9.37489e-08
-1.45605e-07
-4.83057e-08
-1.3527e-07
-6.08171e-09
-1.23613e-07
3.25497e-08
-1.10876e-07
6.72795e-08
-9.7318e-08
9.78716e-08
-8.32126e-08
1.24166e-07
-6.8836e-08
1.46081e-07
-5.4459e-08
1.6361e-07
-4.03387e-08
1.76823e-07
-2.6711e-08
1.85858e-07
-1.37836e-08
1.90915e-07
-1.73157e-09
1.92247e-07
9.30768e-09
1.90152e-07
1.92324e-08
1.8496e-07
2.79788e-08
1.77028e-07
3.5516e-08
1.66727e-07
4.18407e-08
1.54435e-07
4.69698e-08
1.40535e-07
5.09301e-08
1.2541e-07
5.37467e-08
1.09443e-07
5.54303e-08
9.30262e-08
5.59644e-08
7.65585e-08
5.52941e-08
6.04601e-08
5.33192e-08
4.5178e-08
4.98945e-08
3.11948e-08
4.48435e-08
1.9039e-08
3.79913e-08
9.29986e-09
2.92211e-08
2.66012e-09
1.85608e-08
6.36888e-09
-6.5869e-07
-2.19691e-07
-5.99727e-07
-2.26506e-07
-5.3932e-07
-2.30791e-07
-4.78057e-07
-2.3246e-07
-4.16546e-07
-2.31476e-07
-3.55407e-07
-2.27847e-07
-2.95256e-07
-2.21636e-07
-2.36702e-07
-2.12958e-07
-1.80329e-07
-2.01978e-07
-1.26688e-07
-1.88912e-07
-7.62826e-08
-1.74018e-07
-2.95645e-08
-1.57594e-07
1.3082e-08
-1.39964e-07
5.13443e-08
-1.21475e-07
8.49878e-08
-1.02479e-07
1.1386e-07
-8.33315e-08
1.37893e-07
-6.43712e-08
1.57098e-07
-4.59167e-08
1.71569e-07
-2.82544e-08
1.8147e-07
-1.16322e-08
1.87032e-07
3.74592e-09
1.88541e-07
1.77233e-08
1.86331e-07
3.01887e-08
1.80773e-07
4.10744e-08
1.72263e-07
5.03503e-08
1.61218e-07
5.80148e-08
1.48065e-07
6.4083e-08
1.33239e-07
6.85723e-08
1.17182e-07
7.14876e-08
1.00341e-07
7.2805e-08
8.31771e-08
7.24583e-08
6.61674e-08
7.03288e-08
4.98178e-08
6.62442e-08
3.46739e-08
5.99875e-08
2.13408e-08
5.13244e-08
1.05142e-08
4.00477e-08
3.03303e-09
2.6042e-08
9.4019e-09
-8.21344e-07
-2.81559e-07
-7.56982e-07
-2.90868e-07
-6.90696e-07
-2.97077e-07
-6.23091e-07
-3.00065e-07
-5.54803e-07
-2.99764e-07
-4.86484e-07
-2.96166e-07
-4.18796e-07
-2.89323e-07
-3.52402e-07
-2.79352e-07
-2.87945e-07
-2.66434e-07
-2.26046e-07
-2.50811e-07
-1.67284e-07
-2.3278e-07
-1.12189e-07
-2.12689e-07
-6.12258e-08
-1.90928e-07
-1.47893e-08
-1.67911e-07
2.68066e-08
-1.44075e-07
6.33328e-08
-1.19858e-07
9.46488e-08
-9.56872e-08
1.20704e-07
-7.19717e-08
1.41534e-07
-4.90847e-08
1.57259e-07
-2.73571e-08
1.68075e-07
-7.06978e-09
1.74247e-07
1.15509e-08
1.76097e-07
2.83391e-08
1.73997e-07
4.31738e-08
1.6836e-07
5.59877e-08
1.59625e-07
6.67498e-08
1.48254e-07
7.54539e-08
1.34724e-07
8.21023e-08
1.19524e-07
8.66881e-08
1.03152e-07
8.91765e-08
8.6123e-08
8.94876e-08
6.89683e-08
8.74835e-08
5.22506e-08
8.29618e-08
3.65781e-08
7.566e-08
2.26299e-08
6.52725e-08
1.11958e-08
5.14818e-08
3.23654e-09
3.40013e-08
1.26384e-08
-1.00188e-06
-3.47659e-07
-9.32709e-07
-3.60036e-07
-8.61042e-07
-3.68744e-07
-7.87492e-07
-3.73614e-07
-7.12717e-07
-3.7454e-07
-6.37401e-07
-3.71482e-07
-5.62252e-07
-3.64472e-07
-4.87985e-07
-3.5362e-07
-4.15309e-07
-3.3911e-07
-3.44918e-07
-3.21202e-07
-2.77471e-07
-3.00227e-07
-2.13582e-07
-2.76579e-07
-1.53804e-07
-2.50705e-07
-9.8621e-08
-2.23095e-07
-4.84332e-08
-1.94263e-07
-3.55298e-09
-1.64738e-07
3.58021e-08
-1.35042e-07
6.95097e-08
-1.05679e-07
9.7544e-08
-7.7119e-08
1.19972e-07
-4.97851e-08
1.36947e-07
-2.40446e-08
1.48711e-07
-2.1277e-10
1.55556e-07
2.14934e-08
1.57857e-07
4.08732e-08
1.56027e-07
5.78172e-08
1.50524e-07
7.22531e-08
1.41834e-07
8.41436e-08
1.30469e-07
9.34676e-08
1.16957e-07
1.002e-07
1.01844e-07
1.0429e-07
8.56918e-08
1.0564e-07
6.90849e-08
1.0409e-07
5.26408e-08
9.94059e-08
3.70275e-08
9.12733e-08
2.29915e-08
7.93086e-08
1.13987e-08
6.30746e-08
3.29367e-09
4.21063e-08
1.59321e-08
-1.33489e-06
-3.73707e-07
-1.26935e-06
-3.97373e-07
-1.19959e-06
-4.17424e-07
-1.1261e-06
-4.33526e-07
-1.04945e-06
-4.45396e-07
-9.70257e-07
-4.52807e-07
-8.89194e-07
-4.55602e-07
-8.06978e-07
-4.53698e-07
-7.24356e-07
-4.47094e-07
-6.42101e-07
-4.35875e-07
-5.6099e-07
-4.20221e-07
-4.81795e-07
-4.00397e-07
-4.05262e-07
-3.7676e-07
-3.32099e-07
-3.49742e-07
-2.62955e-07
-3.19848e-07
-1.98412e-07
-2.87637e-07
-1.38968e-07
-2.53708e-07
-8.50255e-08
-2.1868e-07
-3.68899e-08
-1.83178e-07
5.23974e-09
-1.47809e-07
4.12692e-08
-1.13148e-07
7.12075e-08
-7.97235e-08
9.51638e-08
-4.80009e-08
1.1333e-07
-1.83792e-08
1.26001e-07
8.82298e-09
1.33522e-07
3.33516e-08
1.36312e-07
5.50273e-08
1.34837e-07
7.37279e-08
1.29606e-07
8.93753e-08
1.21157e-07
1.01916e-07
1.10056e-07
1.11301e-07
9.68896e-08
1.17456e-07
8.22666e-08
1.20263e-07
6.68211e-08
1.19536e-07
5.12232e-08
1.15004e-07
3.61967e-08
1.063e-07
2.25453e-08
9.29599e-08
1.11919e-08
7.44279e-08
3.22911e-09
5.00692e-08
1.91612e-08
-1.67295e-06
-3.68018e-07
-1.616e-06
-4.0373e-07
-1.5534e-06
-4.36312e-07
-1.48547e-06
-4.65303e-07
-1.41262e-06
-4.90273e-07
-1.33532e-06
-5.1082e-07
-1.25413e-06
-5.26592e-07
-1.16964e-06
-5.37293e-07
-1.08254e-06
-5.42699e-07
-9.93573e-07
-5.42669e-07
-9.03516e-07
-5.37151e-07
-8.13197e-07
-5.26194e-07
-7.23465e-07
-5.09953e-07
-6.35172e-07
-4.8869e-07
-5.49161e-07
-4.62771e-07
-4.66241e-07
-4.32662e-07
-3.87173e-07
-3.98917e-07
-3.12647e-07
-3.62163e-07
-2.43272e-07
-3.23084e-07
-1.79555e-07
-2.82397e-07
-1.21899e-07
-2.40834e-07
-7.05919e-08
-1.99116e-07
-2.58044e-08
-1.57936e-07
1.2408e-08
-1.17936e-07
4.41012e-08
-7.96941e-08
6.94342e-08
-4.37122e-08
8.86656e-08
-1.04084e-08
1.02135e-07
1.98818e-08
1.10255e-07
4.69077e-08
1.13501e-07
7.04823e-08
1.12398e-07
9.04782e-08
1.07512e-07
1.06802e-07
9.94434e-08
1.1937e-07
8.8817e-08
1.28082e-07
7.6286e-08
1.32794e-07
6.25324e-08
1.3329e-07
4.82763e-08
1.2926e-07
3.42917e-08
1.20284e-07
2.14297e-08
1.05822e-07
1.06514e-08
8.52063e-08
3.06796e-09
5.76526e-08
2.22292e-08
-1.90382e-06
-4.18864e-07
-1.84649e-06
-4.61054e-07
-1.7829e-06
-4.99904e-07
-1.71332e-06
-5.34885e-07
-1.6381e-06
-5.65494e-07
-1.55767e-06
-5.91253e-07
-1.47253e-06
-6.1173e-07
-1.38327e-06
-6.26547e-07
-1.29057e-06
-6.35401e-07
-1.19517e-06
-6.38072e-07
-1.09788e-06
-6.34441e-07
-9.99572e-07
-6.245e-07
-9.01164e-07
-6.08361e-07
-8.03592e-07
-5.86262e-07
-7.07798e-07
-5.58565e-07
-6.14705e-07
-5.25755e-07
-5.25195e-07
-4.88426e-07
-4.40087e-07
-4.47271e-07
-3.60115e-07
-4.03056e-07
-2.85911e-07
-3.56601e-07
-2.17992e-07
-3.08753e-07
-1.56749e-07
-2.60359e-07
-1.02442e-07
-2.12242e-07
-5.52033e-08
-1.65175e-07
-1.50351e-08
-1.19862e-07
1.81784e-08
-7.69257e-08
4.46628e-08
-3.68928e-08
6.47484e-08
-2.03797e-10
7.88364e-08
3.28197e-08
8.74151e-08
6.19035e-08
9.10271e-08
8.68663e-08
9.02643e-08
1.07565e-07
8.57591e-08
1.23875e-07
7.81771e-08
1.35664e-07
6.82144e-08
1.42757e-07
5.65995e-08
1.44904e-07
4.40998e-08
1.4176e-07
3.15338e-08
1.3285e-07
1.9791e-08
1.17565e-07
9.85538e-09
9.51419e-08
2.83515e-09
6.46728e-08
2.50643e-08
-2.13988e-06
-4.6874e-07
-2.08303e-06
-5.17906e-07
-2.01934e-06
-5.63594e-07
-1.94901e-06
-6.05208e-07
-1.87234e-06
-6.42172e-07
-1.78966e-06
-6.73927e-07
-1.70144e-06
-6.99951e-07
-1.60821e-06
-7.19775e-07
-1.51062e-06
-7.32998e-07
-1.40938e-06
-7.39306e-07
-1.30533e-06
-7.3849e-07
-1.19937e-06
-7.30462e-07
-1.09247e-06
-7.15265e-07
-9.85637e-07
-6.93091e-07
-8.79927e-07
-6.64275e-07
-7.7638e-07
-6.29302e-07
-6.76015e-07
-5.88792e-07
-5.79793e-07
-5.43492e-07
-4.88598e-07
-4.9425e-07
-4.03209e-07
-4.4199e-07
-3.2428e-07
-3.87682e-07
-2.52328e-07
-3.32312e-07
-1.87723e-07
-2.76847e-07
-1.30688e-07
-2.2221e-07
-8.12981e-08
-1.69252e-07
-3.94894e-08
-1.18734e-07
-5.06934e-09
-7.13128e-08
2.2263e-08
-2.75361e-08
4.29232e-08
1.21595e-08
5.73979e-08
4.74289e-08
6.62507e-08
7.80135e-08
7.01022e-08
1.03713e-07
6.96199e-08
1.24357e-07
6.55102e-08
1.39774e-07
5.85136e-08
1.49753e-07
4.94045e-08
1.54014e-07
3.89953e-08
1.52169e-07
2.81455e-08
1.437e-07
1.77751e-08
1.27935e-07
8.88111e-09
1.04036e-07
2.55474e-09
7.09992e-08
2.76191e-08
-2.37593e-06
-5.16772e-07
-2.32052e-06
-5.73314e-07
-2.25779e-06
-6.26328e-07
-2.18784e-06
-6.75155e-07
-2.11087e-06
-7.19147e-07
-2.02713e-06
-7.57663e-07
-1.93699e-06
-7.90087e-07
-1.84092e-06
-8.15846e-07
-1.73949e-06
-8.34429e-07
-1.63339e-06
-8.45409e-07
-1.52342e-06
-8.48462e-07
-1.41049e-06
-8.43394e-07
-1.2956e-06
-8.30154e-07
-1.17984e-06
-8.08851e-07
-1.06435e-06
-7.79768e-07
-9.50287e-07
-7.4336e-07
-8.38827e-07
-7.00252e-07
-7.31091e-07
-6.51229e-07
-6.28133e-07
-5.97208e-07
-5.30906e-07
-5.39217e-07
-4.40233e-07
-4.78355e-07
-3.56787e-07
-4.15758e-07
-2.81077e-07
-3.52557e-07
-2.13439e-07
-2.89847e-07
-1.54043e-07
-2.28649e-07
-1.02892e-07
-1.69886e-07
-5.98383e-08
-1.14366e-07
-2.46008e-08
-6.27736e-08
3.22439e-09
-1.56657e-08
2.41381e-08
2.65151e-08
3.87256e-08
6.3426e-08
4.76394e-08
9.47992e-08
5.15861e-08
1.20411e-07
5.1316e-08
1.40044e-07
4.76162e-08
1.53453e-07
4.13084e-08
1.60321e-07
3.32497e-08
1.60227e-07
2.43382e-08
1.52612e-07
1.55205e-08
1.36753e-07
7.80109e-09
1.11755e-07
2.24909e-09
7.65512e-08
2.98682e-08
-2.60609e-06
-5.62015e-07
-2.55321e-06
-6.262e-07
-2.49263e-06
-6.86903e-07
-2.42438e-06
-7.43413e-07
-2.34851e-06
-7.95018e-07
-2.26517e-06
-8.40996e-07
-2.17462e-06
-8.80639e-07
-2.0772e-06
-9.13262e-07
-1.9734e-06
-9.38234e-07
-1.86381e-06
-9.54996e-07
-1.74918e-06
-9.63089e-07
-1.6304e-06
-9.62181e-07
-1.50846e-06
-9.52091e-07
-1.3845e-06
-9.32816e-07
-1.25972e-06
-9.04542e-07
-1.13542e-06
-8.67662e-07
-1.0129e-06
-8.22772e-07
-8.93463e-07
-7.70665e-07
-7.7836e-07
-7.12312e-07
-6.68745e-07
-6.48831e-07
-5.65647e-07
-5.81453e-07
-4.69933e-07
-5.11472e-07
-3.82287e-07
-4.40204e-07
-3.03197e-07
-3.68937e-07
-2.32954e-07
-2.98892e-07
-1.71653e-07
-2.31186e-07
-1.19209e-07
-1.6681e-07
-7.53747e-08
-1.06608e-07
-3.97573e-08
-5.12831e-08
-1.18459e-08
-1.39633e-09
8.96947e-09
4.26107e-08
2.33776e-08
8.03911e-08
3.21297e-08
1.11659e-07
3.60249e-08
1.36149e-07
3.59017e-08
1.53576e-07
3.2632e-08
1.63591e-07
2.71196e-08
1.6574e-07
2.03015e-08
1.5943e-07
1.3151e-08
1.43903e-07
6.68012e-09
1.18226e-07
1.93804e-09
8.12933e-08
3.18062e-08
-2.82406e-06
-6.03511e-07
-2.77483e-06
-6.75429e-07
-2.71772e-06
-7.44016e-07
-2.6526e-06
-8.08525e-07
-2.57943e-06
-8.6819e-07
-2.49821e-06
-9.2222e-07
-2.40903e-06
-9.69814e-07
-2.31211e-06
-1.01018e-06
-2.20779e-06
-1.04256e-06
-2.09653e-06
-1.06625e-06
-1.97899e-06
-1.08063e-06
-1.85596e-06
-1.08521e-06
-1.72841e-06
-1.07964e-06
-1.59746e-06
-1.06377e-06
-1.46437e-06
-1.03763e-06
-1.33052e-06
-1.00151e-06
-1.19736e-06
-9.55933e-07
-1.06637e-06
-9.01662e-07
-9.38992e-07
-8.39685e-07
-8.16631e-07
-7.71193e-07
-7.00549e-07
-6.97534e-07
-5.91854e-07
-6.20167e-07
-4.91452e-07
-5.40605e-07
-4.00031e-07
-4.60359e-07
-3.18043e-07
-3.80879e-07
-2.45714e-07
-3.03515e-07
-1.83048e-07
-2.29476e-07
-1.29851e-07
-1.59806e-07
-8.57524e-08
-9.53815e-08
-5.02375e-08
-3.69112e-08
-2.26708e-08
1.5044e-08
-2.32307e-09
6.00433e-08
1.16069e-08
9.77286e-08
1.99745e-08
1.27781e-07
2.36759e-08
1.49875e-07
2.3639e-08
1.63628e-07
2.08187e-08
1.6856e-07
1.61949e-08
1.64054e-07
1.07711e-08
1.49327e-07
5.57262e-09
1.23425e-07
1.63817e-09
8.52277e-08
3.34444e-08
-3.02338e-06
-6.40353e-07
-2.97891e-06
-7.19892e-07
-2.92657e-06
-7.96358e-07
-2.86611e-06
-8.68984e-07
-2.79733e-06
-9.3697e-07
-2.72008e-06
-9.99468e-07
-2.6343e-06
-1.0556e-06
-2.54e-06
-1.10448e-06
-2.43734e-06
-1.14521e-06
-2.32665e-06
-1.17695e-06
-2.20838e-06
-1.1989e-06
-2.08322e-06
-1.21037e-06
-1.95202e-06
-1.21084e-06
-1.81587e-06
-1.19992e-06
-1.676e-06
-1.17749e-06
-1.53385e-06
-1.14366e-06
-1.39097e-06
-1.09881e-06
-1.249e-06
-1.04363e-06
-1.10961e-06
-9.79073e-07
-9.74445e-07
-9.06359e-07
-8.45045e-07
-8.26933e-07
-7.22802e-07
-7.4241e-07
-6.089e-07
-6.54507e-07
-5.04281e-07
-5.64978e-07
-4.0962e-07
-4.75541e-07
-3.25318e-07
-3.87817e-07
-2.51514e-07
-3.0328e-07
-1.88097e-07
-2.23223e-07
-1.34742e-07
-1.48736e-07
-9.09427e-08
-8.07109e-08
-5.60414e-08
-1.98573e-08
-2.92675e-08
3.32694e-08
-9.76323e-09
7.82244e-08
3.39003e-09
1.14628e-07
1.11544e-08
1.4211e-07
1.45222e-08
1.6026e-07
1.45072e-08
1.68575e-07
1.21394e-08
1.66422e-07
8.46095e-09
1.53006e-07
4.52049e-09
1.27365e-07
1.3622e-09
8.8386e-08
3.48066e-08
-3.19788e-06
-6.71777e-07
-3.15917e-06
-7.58606e-07
-3.11281e-06
-8.42718e-07
-3.05844e-06
-9.23348e-07
-2.99573e-06
-9.99685e-07
-2.92435e-06
-1.07085e-06
-2.84404e-06
-1.13591e-06
-2.75464e-06
-1.19388e-06
-2.65609e-06
-1.24376e-06
-2.54849e-06
-1.28456e-06
-2.43209e-06
-1.3153e-06
-2.30737e-06
-1.33509e-06
-2.17503e-06
-1.34317e-06
-2.03602e-06
-1.33894e-06
-1.89151e-06
-1.32201e-06
-1.74291e-06
-1.29226e-06
-1.59183e-06
-1.24989e-06
-1.44004e-06
-1.19542e-06
-1.28941e-06
-1.12971e-06
-1.14182e-06
-1.05395e-06
-9.9912e-07
-9.69634e-07
-8.63024e-07
-8.78507e-07
-7.35048e-07
-7.82483e-07
-6.16456e-07
-6.8357e-07
-5.08211e-07
-5.83785e-07
-4.1096e-07
-4.85068e-07
-3.25029e-07
-3.89211e-07
-2.50444e-07
-2.97808e-07
-1.86959e-07
-2.12221e-07
-1.34097e-07
-1.33573e-07
-9.1193e-08
-6.27616e-08
-5.74376e-08
-4.85943e-10
-3.19127e-08
5.26994e-08
-1.36294e-08
9.63446e-08
-1.54947e-09
1.3003e-07
5.39402e-09
1.53317e-07
8.28453e-09
1.65685e-07
8.21333e-09
1.66493e-07
6.27326e-09
1.54946e-07
3.55166e-09
1.30087e-07
1.11862e-09
9.08191e-08
3.59252e-08
-3.34216e-06
-6.97242e-07
-3.30995e-06
-7.90811e-07
-3.27057e-06
-8.82101e-07
-3.22354e-06
-9.70374e-07
-3.16839e-06
-1.05484e-06
-3.10464e-06
-1.1346e-06
-3.03185e-06
-1.2087e-06
-2.94962e-06
-1.2761e-06
-2.85768e-06
-1.33571e-06
-2.75585e-06
-1.38638e-06
-2.64416e-06
-1.42699e-06
-2.52281e-06
-1.45644e-06
-2.39227e-06
-1.47371e-06
-2.25328e-06
-1.47793e-06
-2.10685e-06
-1.46843e-06
-1.9543e-06
-1.44481e-06
-1.79722e-06
-1.40697e-06
-1.63744e-06
-1.3552e-06
-1.47696e-06
-1.29019e-06
-1.3179e-06
-1.213e-06
-1.16241e-06
-1.12512e-06
-1.01255e-06
-1.02837e-06
-8.70227e-07
-9.24808e-07
-7.37083e-07
-8.16715e-07
-6.1445e-07
-7.06418e-07
-5.03299e-07
-5.96219e-07
-4.04224e-07
-4.88286e-07
-3.1745e-07
-3.84582e-07
-2.42864e-07
-2.86807e-07
-1.80057e-07
-1.9638e-07
-1.28381e-07
-1.14438e-07
-8.6996e-08
-4.18709e-08
-5.49306e-08
2.0634e-08
-3.11168e-08
7.25308e-08
-1.44312e-08
1.13345e-07
-3.71943e-09
1.42605e-07
2.1849e-09
1.5978e-07
4.44883e-09
1.64229e-07
4.23194e-09
1.55163e-07
2.67932e-09
1.31639e-07
9.11487e-10
9.25869e-08
3.68367e-08
-3.45203e-06
-7.16492e-07
-3.42679e-06
-8.16056e-07
-3.39506e-06
-9.13834e-07
-3.35629e-06
-1.00914e-06
-3.30989e-06
-1.10124e-06
-3.25524e-06
-1.18925e-06
-3.19173e-06
-1.27222e-06
-3.11875e-06
-1.34908e-06
-3.03578e-06
-1.41868e-06
-2.94239e-06
-1.47978e-06
-2.83829e-06
-1.53109e-06
-2.72341e-06
-1.57133e-06
-2.59789e-06
-1.59923e-06
-2.4622e-06
-1.61363e-06
-2.3171e-06
-1.61354e-06
-2.1637e-06
-1.5982e-06
-2.00347e-06
-1.56719e-06
-1.83822e-06
-1.52046e-06
-1.67e-06
-1.4584e-06
-1.50111e-06
-1.38189e-06
-1.33397e-06
-1.29227e-06
-1.17099e-06
-1.19135e-06
-1.01448e-06
-1.08132e-06
-8.66533e-07
-9.64659e-07
-7.28929e-07
-8.44022e-07
-6.0305e-07
-7.22098e-07
-4.89847e-07
-6.01489e-07
-3.89834e-07
-4.84595e-07
-3.03102e-07
-3.73539e-07
-2.2937e-07
-2.70112e-07
-1.68043e-07
-1.75765e-07
-1.1828e-07
-9.16337e-08
-7.90595e-08
-1.85865e-08
-4.9237e-08
4.27083e-08
-2.75949e-08
9.17027e-08
-1.28787e-08
1.27889e-07
-3.82331e-09
1.50725e-07
8.31616e-10
1.59574e-07
2.33172e-09
1.53662e-07
1.90197e-09
1.32069e-07
7.40486e-10
9.37484e-08
3.75772e-08
-3.525e-06
-7.29595e-07
-3.5068e-06
-8.34248e-07
-3.483e-06
-9.37638e-07
-3.45298e-06
-1.03916e-06
-3.41609e-06
-1.13813e-06
-3.37158e-06
-1.23375e-06
-3.31869e-06
-1.3251e-06
-3.25665e-06
-1.41112e-06
-3.18469e-06
-1.49064e-06
-3.10211e-06
-1.56235e-06
-3.00834e-06
-1.62487e-06
-2.90294e-06
-1.67672e-06
-2.78574e-06
-1.71643e-06
-2.65681e-06
-1.74255e-06
-2.5166e-06
-1.75375e-06
-2.36592e-06
-1.74889e-06
-2.20598e-06
-1.72713e-06
-2.03845e-06
-1.688e-06
-1.86534e-06
-1.63151e-06
-1.68901e-06
-1.55821e-06
-1.51209e-06
-1.4692e-06
-1.33729e-06
-1.36615e-06
-1.16735e-06
-1.25126e-06
-1.00483e-06
-1.12718e-06
-8.52026e-07
-9.96825e-07
-7.10826e-07
-8.63298e-07
-5.82645e-07
-7.2967e-07
-4.68383e-07
-5.98857e-07
-3.68434e-07
-4.73487e-07
-2.82724e-07
-3.55822e-07
-2.10772e-07
-2.47717e-07
-1.51773e-07
-1.50633e-07
-1.04679e-07
-6.56803e-08
-6.8276e-08
6.30505e-09
-4.12473e-08
6.46739e-08
-2.22269e-08
1.08868e-07
-9.83437e-09
1.38332e-07
-2.69675e-09
1.52436e-07
5.39339e-10
1.50426e-07
1.20422e-09
1.31404e-07
6.01205e-10
9.43514e-08
3.81784e-08
-3.56047e-06
-7.3693e-07
-3.54905e-06
-8.45668e-07
-3.53303e-06
-9.53659e-07
-3.51179e-06
-1.0604e-06
-3.48463e-06
-1.16529e-06
-3.45075e-06
-1.26764e-06
-3.40928e-06
-1.36657e-06
-3.35929e-06
-1.46111e-06
-3.29983e-06
-1.5501e-06
-3.22996e-06
-1.63222e-06
-3.14881e-06
-1.70602e-06
-3.05561e-06
-1.76992e-06
-2.94979e-06
-1.82225e-06
-2.83104e-06
-1.8613e-06
-2.69938e-06
-1.88541e-06
-2.55522e-06
-1.89305e-06
-2.39942e-06
-1.88292e-06
-2.23335e-06
-1.85407e-06
-2.05885e-06
-1.80602e-06
-1.87822e-06
-1.73884e-06
-1.69415e-06
-1.65326e-06
-1.50961e-06
-1.55068e-06
-1.32769e-06
-1.43318e-06
-1.15145e-06
-1.30342e-06
-9.83724e-07
-1.16455e-06
-8.26989e-07
-1.02003e-06
-6.83226e-07
-8.73433e-07
-5.53844e-07
-7.28239e-07
-4.39653e-07
-5.87679e-07
-3.40886e-07
-4.54589e-07
-2.57262e-07
-3.31341e-07
-1.88073e-07
-2.19822e-07
-1.32282e-07
-1.21471e-07
-8.86222e-08
-3.73543e-08
-5.56837e-08
3.17354e-08
-3.19796e-08
8.51644e-08
-1.59983e-08
1.22351e-07
-6.23395e-09
1.42672e-07
-1.20185e-09
1.45394e-07
5.58637e-10
1.29644e-07
4.85618e-10
9.44244e-08
3.8664e-08
-3.55986e-06
-7.39153e-07
-3.55459e-06
-8.50935e-07
-3.5458e-06
-9.6245e-07
-3.53289e-06
-1.0733e-06
-3.51517e-06
-1.18302e-06
-3.49182e-06
-1.29099e-06
-3.46191e-06
-1.39648e-06
-3.42442e-06
-1.49859e-06
-3.37828e-06
-1.59624e-06
-3.32233e-06
-1.68816e-06
-3.25546e-06
-1.77289e-06
-3.17658e-06
-1.8488e-06
-3.08476e-06
-1.91407e-06
-2.97924e-06
-1.96682e-06
-2.85958e-06
-2.00507e-06
-2.72572e-06
-2.02691e-06
-2.57806e-06
-2.03058e-06
-2.41753e-06
-2.0146e-06
-2.24564e-06
-1.97791e-06
-2.06447e-06
-1.92001e-06
-1.87665e-06
-1.84109e-06
-1.68523e-06
-1.7421e-06
-1.49358e-06
-1.62483e-06
-1.30519e-06
-1.49181e-06
-1.12345e-06
-1.34629e-06
-9.51481e-07
-1.192e-06
-7.91917e-07
-1.033e-06
-6.46795e-07
-8.73362e-07
-5.17471e-07
-7.17003e-07
-4.04612e-07
-5.67447e-07
-3.08244e-07
-4.27709e-07
-2.27839e-07
-3.00227e-07
-1.62433e-07
-1.86878e-07
-1.1074e-07
-8.90473e-08
-7.12684e-08
-7.73595e-09
-4.24104e-08
5.63063e-08
-2.25103e-08
1.02451e-07
-9.91005e-09
1.30072e-07
-2.97042e-09
1.38455e-07
-7.5492e-11
1.26749e-07
3.82683e-10
9.39662e-08
3.90467e-08
-3.52639e-06
-7.37126e-07
-3.52638e-06
-8.50941e-07
-3.52392e-06
-9.64907e-07
-3.51848e-06
-1.07874e-06
-3.5094e-06
-1.19209e-06
-3.4959e-06
-1.30449e-06
-3.47706e-06
-1.41532e-06
-3.45184e-06
-1.52382e-06
-3.41906e-06
-1.62902e-06
-3.37747e-06
-1.72975e-06
-3.32575e-06
-1.82462e-06
-3.26255e-06
-1.912e-06
-3.18659e-06
-1.99003e-06
-3.09672e-06
-2.05668e-06
-2.99202e-06
-2.10977e-06
-2.87191e-06
-2.14703e-06
-2.73622e-06
-2.16627e-06
-2.58536e-06
-2.16546e-06
-2.42034e-06
-2.14293e-06
-2.24285e-06
-2.09749e-06
-2.05526e-06
-2.02867e-06
-1.86056e-06
-1.93681e-06
-1.66221e-06
-1.82317e-06
-1.46405e-06
-1.68998e-06
-1.26995e-06
-1.54038e-06
-1.08369e-06
-1.37826e-06
-9.08623e-07
-1.20806e-06
-7.4752e-07
-1.03446e-06
-6.02419e-07
-8.62104e-07
-4.74562e-07
-6.95304e-07
-3.64414e-07
-5.37856e-07
-2.71741e-07
-3.929e-07
-1.9573e-07
-2.62889e-07
-1.35135e-07
-1.49643e-07
-8.84091e-08
-5.44615e-08
-5.3832e-08
2.17292e-08
-2.95973e-08
7.82163e-08
-1.38777e-08
1.14352e-07
-4.85643e-09
1.29433e-07
-7.34185e-10
1.22627e-07
2.80223e-10
9.29518e-08
3.93269e-08
-3.46471e-06
-7.31822e-07
-3.4689e-06
-8.46754e-07
-3.47163e-06
-9.6217e-07
-3.47247e-06
-1.0779e-06
-3.47085e-06
-1.19372e-06
-3.46604e-06
-1.30929e-06
-3.45721e-06
-1.42416e-06
-3.44333e-06
-1.5377e-06
-3.42324e-06
-1.64911e-06
-3.39563e-06
-1.75736e-06
-3.35906e-06
-1.86119e-06
-3.312e-06
-1.95905e-06
-3.25291e-06
-2.04912e-06
-3.18027e-06
-2.12932e-06
-3.09272e-06
-2.19732e-06
-2.98914e-06
-2.25061e-06
-2.8688e-06
-2.28662e-06
-2.73145e-06
-2.30281e-06
-2.57751e-06
-2.29687e-06
-2.40809e-06
-2.26691e-06
-2.22513e-06
-2.21164e-06
-2.0313e-06
-2.13064e-06
-1.83001e-06
-2.02446e-06
-1.62522e-06
-1.89477e-06
-1.42122e-06
-1.74438e-06
-1.22235e-06
-1.57714e-06
-1.03271e-06
-1.3977e-06
-8.55892e-07
-1.21128e-06
-6.94733e-07
-1.02326e-06
-5.51202e-07
-8.38834e-07
-4.26356e-07
-6.62702e-07
-3.2039e-07
-4.98867e-07
-2.32754e-07
-3.50525e-07
-1.62317e-07
-2.2008e-07
-1.07529e-07
-1.0925e-07
-6.65755e-08
-1.9224e-08
-3.75029e-08
4.91437e-08
-1.83026e-08
9.51518e-08
-6.9614e-09
1.18092e-07
-1.47506e-09
1.1714e-07
1.63494e-10
9.13133e-08
3.94904e-08
-3.3804e-06
-7.24239e-07
-3.38765e-06
-8.39508e-07
-3.39431e-06
-9.55504e-07
-3.40006e-06
-1.07216e-06
-3.40442e-06
-1.18936e-06
-3.40681e-06
-1.30691e-06
-3.40647e-06
-1.4245e-06
-3.40249e-06
-1.54168e-06
-3.39376e-06
-1.65784e-06
-3.37901e-06
-1.77212e-06
-3.35676e-06
-1.88344e-06
-3.32541e-06
-1.9904e-06
-3.28323e-06
-2.09131e-06
-3.22843e-06
-2.18412e-06
-3.15927e-06
-2.26648e-06
-3.07415e-06
-2.33573e-06
-2.97174e-06
-2.38902e-06
-2.85116e-06
-2.42339e-06
-2.71211e-06
-2.43592e-06
-2.55501e-06
-2.424e-06
-2.38115e-06
-2.38551e-06
-2.1927e-06
-2.31909e-06
-1.99275e-06
-2.2244e-06
-1.78519e-06
-2.10233e-06
-1.5745e-06
-1.95507e-06
-1.36549e-06
-1.78615e-06
-1.16294e-06
-1.60025e-06
-9.71283e-07
-1.40294e-06
-7.94266e-07
-1.20028e-06
-6.34724e-07
-9.98377e-07
-4.94467e-07
-8.02958e-07
-3.74281e-07
-6.19054e-07
-2.74016e-07
-4.50789e-07
-1.92763e-07
-3.01334e-07
-1.29036e-07
-1.72977e-07
-8.09682e-08
-6.72915e-08
-4.64712e-08
1.46468e-08
-2.33522e-08
7.20327e-08
-9.38615e-09
1.04126e-07
-2.34349e-09
1.10098e-07
1.94879e-11
8.89503e-08
3.95099e-08
-3.27939e-06
-7.15311e-07
-3.28859e-06
-8.30311e-07
-3.29791e-06
-9.46181e-07
-3.30713e-06
-1.06294e-06
-3.31591e-06
-1.18058e-06
-3.32379e-06
-1.29902e-06
-3.33016e-06
-1.41812e-06
-3.33425e-06
-1.53759e-06
-3.33508e-06
-1.65701e-06
-3.33147e-06
-1.77573e-06
-3.32201e-06
-1.89289e-06
-3.30511e-06
-2.0073e-06
-3.27896e-06
-2.11746e-06
-3.24162e-06
-2.22147e-06
-3.19105e-06
-2.31704e-06
-3.12527e-06
-2.40151e-06
-3.04243e-06
-2.47186e-06
-2.94101e-06
-2.52481e-06
-2.81997e-06
-2.55697e-06
-2.67894e-06
-2.56503e-06
-2.51842e-06
-2.54602e-06
-2.33989e-06
-2.49762e-06
-2.14586e-06
-2.41843e-06
-1.93989e-06
-2.30831e-06
-1.7264e-06
-2.16856e-06
-1.51046e-06
-2.00209e-06
-1.29742e-06
-1.81329e-06
-1.09251e-06
-1.60785e-06
-9.00417e-07
-1.39237e-06
-7.24969e-07
-1.17382e-06
-5.68894e-07
-9.59034e-07
-4.33738e-07
-7.5421e-07
-3.19919e-07
-5.64607e-07
-2.2688e-07
-3.94373e-07
-1.53298e-07
-2.46559e-07
-9.73136e-08
-1.23276e-07
-5.67331e-08
-2.59337e-08
-2.91858e-08
4.44855e-08
-1.22273e-08
8.71676e-08
-3.38687e-09
1.01257e-07
-1.67193e-10
8.57306e-08
3.93427e-08
-3.16743e-06
-7.05847e-07
-3.17759e-06
-8.20152e-07
-3.18839e-06
-9.3538e-07
-3.19972e-06
-1.05162e-06
-3.21136e-06
-1.16894e-06
-3.223e-06
-1.28738e-06
-3.2342e-06
-1.40692e-06
-3.24435e-06
-1.52745e-06
-3.25264e-06
-1.64872e-06
-3.25805e-06
-1.77032e-06
-3.25933e-06
-1.89161e-06
-3.25497e-06
-2.01167e-06
-3.24319e-06
-2.12923e-06
-3.22202e-06
-2.24264e-06
-3.18926e-06
-2.3498e-06
-3.14266e-06
-2.44812e-06
-3.07994e-06
-2.53458e-06
-2.99901e-06
-2.60574e-06
-2.89814e-06
-2.65784e-06
-2.77616e-06
-2.68701e-06
-2.63267e-06
-2.68951e-06
-2.46828e-06
-2.66201e-06
-2.28473e-06
-2.60199e-06
-2.08495e-06
-2.50809e-06
-1.87303e-06
-2.38048e-06
-1.65404e-06
-2.22108e-06
-1.43367e-06
-2.03366e-06
-1.21781e-06
-1.82371e-06
-1.01209e-06
-1.59809e-06
-8.21385e-07
-1.36453e-06
-6.49481e-07
-1.13094e-06
-4.98869e-07
-9.04822e-07
-3.70715e-07
-6.92761e-07
-2.64976e-07
-5.00112e-07
-1.80618e-07
-3.30917e-07
-1.15875e-07
-1.8802e-07
-6.84936e-08
-7.33147e-08
-3.59474e-08
1.19393e-08
-1.55725e-08
6.67927e-08
-4.64696e-09
9.03315e-08
-4.05659e-10
8.14893e-08
3.8937e-08
-3.04969e-06
-6.96491e-07
-3.05999e-06
-8.09852e-07
-3.07126e-06
-9.24109e-07
-3.08348e-06
-1.03939e-06
-3.09657e-06
-1.15585e-06
-3.11035e-06
-1.2736e-06
-3.12455e-06
-1.39272e-06
-3.13874e-06
-1.51326e-06
-3.15231e-06
-1.63514e-06
-3.16446e-06
-1.75817e-06
-3.17411e-06
-1.88195e-06
-3.17994e-06
-2.00584e-06
-3.18031e-06
-2.12886e-06
-3.17329e-06
-2.24965e-06
-3.1567e-06
-2.36639e-06
-3.12812e-06
-2.4767e-06
-3.085e-06
-2.5777e-06
-3.0248e-06
-2.66593e-06
-2.94519e-06
-2.73745e-06
-2.84421e-06
-2.78799e-06
-2.72059e-06
-2.81313e-06
-2.57395e-06
-2.80865e-06
-2.40508e-06
-2.77086e-06
-2.21604e-06
-2.69712e-06
-2.01031e-06
-2.58621e-06
-1.7926e-06
-2.43878e-06
-1.56868e-06
-2.25758e-06
-1.3449e-06
-2.04749e-06
-1.12769e-06
-1.8153e-06
-9.22991e-07
-1.56924e-06
-7.35735e-07
-1.31819e-06
-5.69527e-07
-1.07103e-06
-4.26475e-07
-8.35813e-07
-3.07236e-07
-6.1935e-07
-2.11219e-07
-4.26934e-07
-1.3686e-07
-2.62379e-07
-8.19234e-08
-1.28251e-07
-4.37592e-08
-2.6225e-08
-1.94969e-08
4.25304e-08
-6.16007e-09
7.69948e-08
-7.07093e-10
7.60363e-08
3.823e-08
-2.93042e-06
-6.87703e-07
-2.94024e-06
-8.00032e-07
-2.95118e-06
-9.13164e-07
-2.96332e-06
-1.02726e-06
-2.97666e-06
-1.14251e-06
-2.99118e-06
-1.25908e-06
-3.00674e-06
-1.37716e-06
-3.02311e-06
-1.49689e-06
-3.03989e-06
-1.61837e-06
-3.05648e-06
-1.74158e-06
-3.07207e-06
-1.86637e-06
-3.08554e-06
-1.99237e-06
-3.09548e-06
-2.11892e-06
-3.10013e-06
-2.245e-06
-3.09741e-06
-2.36911e-06
-3.08489e-06
-2.48922e-06
-3.05991e-06
-2.60269e-06
-3.01963e-06
-2.70621e-06
-2.96123e-06
-2.79585e-06
-2.88211e-06
-2.86711e-06
-2.78015e-06
-2.91509e-06
-2.65399e-06
-2.93481e-06
-2.50333e-06
-2.92152e-06
-2.32922e-06
-2.87123e-06
-2.13419e-06
-2.78124e-06
-1.92233e-06
-2.65064e-06
-1.69911e-06
-2.4808e-06
-1.47104e-06
-2.27555e-06
-1.24517e-06
-2.04118e-06
-1.02838e-06
-1.78602e-06
-8.26809e-07
-1.51977e-06
-6.45295e-07
-1.25254e-06
-4.87073e-07
-9.94035e-07
-3.53706e-07
-7.52717e-07
-2.45227e-07
-5.35414e-07
-1.60418e-07
-3.47188e-07
-9.71539e-08
-1.91515e-07