/*--------------------------------*- C++ -*----------------------------------*\
  =========                 |
  \\      /  F ield         | OpenFOAM: The Open Source CFD Toolbox
   \\    /   O peration     | Website:  https://openfoam.org
    \\  /    A nd           | Version:  9
     \\/     M anipulation  |
\*---------------------------------------------------------------------------*/
FoamFile
{
    format      ascii;
    class       volVectorField;
    location    "1.75";
    object      U;
}
// * * * * * * * * * * * * * * * * * * * * * * * * * * * * * * * * * * * * * //

dimensions      [0 1 -1 0 0 0 0];

internalField   nonuniform List<vector> 
1240
(
(-0.0056704 -0.000271798 0)
(-0.00473852 -0.000280498 0)
(-0.00378635 -0.000284409 0)
(-0.00282844 -0.000283456 0)
(-0.00187944 -0.000277677 0)
(-0.000953692 -0.000267227 0)
(-6.49787e-05 -0.000252414 0)
(0.000773869 -0.000233672 0)
(0.00155137 -0.000211536 0)
(0.00225772 -0.000186674 0)
(0.00288494 -0.000159802 0)
(0.00342714 -0.00013167 0)
(0.00388056 -0.000103032 0)
(0.00424359 -7.46125e-05 0)
(0.00451671 -4.70771e-05 0)
(0.00470229 -2.10083e-05 0)
(0.00480443 3.11222e-06 0)
(0.00482864 2.49143e-05 0)
(0.00478158 4.41455e-05 0)
(0.00467071 6.06801e-05 0)
(0.00450397 7.44856e-05 0)
(0.0042895 8.5636e-05 0)
(0.00403533 9.42886e-05 0)
(0.00374916 0.000100664 0)
(0.00343819 0.000105025 0)
(0.00310899 0.000107654 0)
(0.00276746 0.000108821 0)
(0.00241892 0.000108754 0)
(0.00206822 0.000107591 0)
(0.00172011 0.00010533 0)
(0.0013796 0.000101763 0)
(0.00105262 9.63828e-05 0)
(0.000746753 8.82867e-05 0)
(0.000472204 7.61026e-05 0)
(0.000242325 5.81126e-05 0)
(7.28777e-05 3.29122e-05 0)
(-1.88186e-05 1.85078e-06 0)
(-2.14827e-05 -2.15867e-05 0)
(-0.0168635 -0.00174778 0)
(-0.0144638 -0.00179948 0)
(-0.0120135 -0.00182444 0)
(-0.0095459 -0.00182213 0)
(-0.00709499 -0.00179264 0)
(-0.00469415 -0.00173669 0)
(-0.00237568 -0.00165574 0)
(-0.000169972 -0.00155187 0)
(0.00189525 -0.00142779 0)
(0.00379563 -0.00128672 0)
(0.00551071 -0.00113232 0)
(0.00702437 -0.000968446 0)
(0.00832515 -0.000799099 0)
(0.00940634 -0.000628215 0)
(0.010266 -0.000459544 0)
(0.0109065 -0.000296511 0)
(0.0113348 -0.00014211 0)
(0.0115612 1.18339e-06 0)
(0.0115991 0.000131461 0)
(0.0114646 0.000247435 0)
(0.0111753 0.000348359 0)
(0.01075 0.000434055 0)
(0.0102079 0.000504834 0)
(0.00956793 0.000561394 0)
(0.00884857 0.000604719 0)
(0.00806728 0.000635938 0)
(0.00724046 0.000656167 0)
(0.00638352 0.000666321 0)
(0.00551118 0.000666898 0)
(0.00463801 0.000657737 0)
(0.00377933 0.000637752 0)
(0.00295217 0.000604686 0)
(0.00217648 0.000554932 0)
(0.00147621 0.000483678 0)
(0.000879213 0.000385915 0)
(0.000414692 0.000259114 0)
(0.00011211 0.000110308 0)
(2.53122e-06 -1.87551e-05 0)
(-0.0283461 -0.00474522 0)
(-0.0247913 -0.00488104 0)
(-0.0211598 -0.00494992 0)
(-0.0174971 -0.00495043 0)
(-0.0138489 -0.00488256 0)
(-0.0102608 -0.00474786 0)
(-0.00677702 -0.0045495 0)
(-0.00343992 -0.00429221 0)
(-0.000288593 -0.00398216 0)
(0.00264177 -0.00362679 0)
(0.00532072 -0.00323457 0)
(0.00772322 -0.00281474 0)
(0.00983009 -0.00237689 0)
(0.0116283 -0.00193072 0)
(0.0131112 -0.00148561 0)
(0.0142782 -0.0010504 0)
(0.0151346 -0.000633011 0)
(0.0156913 -0.000240269 0)
(0.0159638 0.000122285 0)
(0.0159717 0.000450441 0)
(0.0157375 0.000741488 0)
(0.0152863 0.00099403 0)
(0.0146443 0.0012079 0)
(0.0138386 0.00138399 0)
(0.0128959 0.00152397 0)
(0.0118424 0.00162997 0)
(0.0107035 0.00170417 0)
(0.00950351 0.00174839 0)
(0.0082663 0.00176353 0)
(0.00701558 0.00174908 0)
(0.00577589 0.00170257 0)
(0.00457364 0.00161922 0)
(0.00343824 0.0014919 0)
(0.00240298 0.00131184 0)
(0.00150438 0.00107108 0)
(0.000778777 0.000767488 0)
(0.000267042 0.000415087 0)
(3.52374e-05 7.55739e-05 0)
(-0.0405657 -0.00875776 0)
(-0.0360967 -0.00900699 0)
(-0.0315247 -0.00914041 0)
(-0.0269018 -0.00915528 0)
(-0.022281 -0.00905122 0)
(-0.0177153 -0.00883039 0)
(-0.013257 -0.00849758 0)
(-0.00895645 -0.00806015 0)
(-0.00486106 -0.00752788 0)
(-0.00101438 -0.00691277 0)
(0.00254485 -0.00622859 0)
(0.00578354 -0.00549053 0)
(0.00867495 -0.00471474 0)
(0.0111991 -0.00391765 0)
(0.0133431 -0.00311555 0)
(0.0151012 -0.00232399 0)
(0.0164748 -0.0015573 0)
(0.017472 -0.000828162 0)
(0.0181068 -0.000147262 0)
(0.0183989 0.000476879 0)
(0.0183723 0.00103817 0)
(0.0180546 0.00153277 0)
(0.0174762 0.00195902 0)
(0.0166689 0.00231714 0)
(0.0156655 0.00260881 0)
(0.0144989 0.00283669 0)
(0.0132016 0.0030037 0)
(0.0118057 0.00311231 0)
(0.0103429 0.00316374 0)
(0.00884481 0.00315705 0)
(0.00734409 0.00308847 0)
(0.00587487 0.00295087 0)
(0.00447398 0.00273391 0)
(0.00318181 0.00242525 0)
(0.00204161 0.00201394 0)
(0.00109649 0.00149662 0)
(0.000401698 0.000888607 0)
(6.27159e-05 0.00025234 0)
(-0.053932 -0.013547 0)
(-0.0487287 -0.0139393 0)
(-0.0433911 -0.0141625 0)
(-0.037975 -0.0142122 0)
(-0.0325377 -0.0140871 0)
(-0.0271372 -0.0137895 0)
(-0.0218311 -0.0133253 0)
(-0.0166759 -0.0127042 0)
(-0.0117256 -0.011939 0)
(-0.00703067 -0.011046 0)
(-0.00263719 -0.0100443 0)
(0.00141421 -0.00895496 0)
(0.00508923 -0.00780082 0)
(0.00836055 -0.0066055 0)
(0.0112083 -0.00539273 0)
(0.0136202 -0.00418558 0)
(0.015592 -0.00300574 0)
(0.017127 -0.00187288 0)
(0.0182355 -0.000804064 0)
(0.0189347 0.000186636 0)
(0.0192476 0.00108831 0)
(0.0192018 0.00189341 0)
(0.018829 0.00259755 0)
(0.0181639 0.00319911 0)
(0.0172429 0.00369882 0)
(0.0161038 0.00409902 0)
(0.0147846 0.00440273 0)
(0.0133238 0.00461265 0)
(0.0117595 0.00473002 0)
(0.0101304 0.00475348 0)
(0.00847583 0.0046781 0)
(0.00683661 0.00449477 0)
(0.00525588 0.00419032 0)
(0.00378025 0.00374899 0)
(0.00245942 0.00315594 0)
(0.00134407 0.00240335 0)
(0.000504613 0.00150021 0)
(8.25674e-05 0.000494041 0)
(-0.0687724 -0.0189753 0)
(-0.0629635 -0.0195463 0)
(-0.0569811 -0.0198927 0)
(-0.0508832 -0.0200076 0)
(-0.0447298 -0.0198883 0)
(-0.0385824 -0.0195365 0)
(-0.0325031 -0.0189585 0)
(-0.0265534 -0.0181654 0)
(-0.0207932 -0.0171729 0)
(-0.0152794 -0.0160009 0)
(-0.0100651 -0.0146732 0)
(-0.0051984 -0.0132168 0)
(-0.000721216 -0.011661 0)
(0.00333136 -0.0100366 0)
(0.00693185 -0.00837523 0)
(0.0100608 -0.00670791 0)
(0.0127072 -0.00506439 0)
(0.0148683 -0.00347219 0)
(0.0165493 -0.00195581 0)
(0.0177633 -0.00053611 0)
(0.0185302 0.000770032 0)
(0.0188763 0.00195 0)
(0.0188326 0.00299545 0)
(0.0184347 0.00390166 0)
(0.0177212 0.00466726 0)
(0.016733 0.00529328 0)
(0.0155123 0.00578202 0)
(0.0141023 0.00613579 0)
(0.012547 0.00635548 0)
(0.0108906 0.00643917 0)
(0.00917856 0.00638082 0)
(0.00745744 0.00616951 0)
(0.00577621 0.0057894 0)
(0.00418744 0.00522096 0)
(0.00274744 0.00444408 0)
(0.00151493 0.00344317 0)
(0.000574233 0.00221478 0)
(9.52352e-05 0.000782301 0)
(-0.0852957 -0.0249343 0)
(-0.078971 -0.0257281 0)
(-0.0724243 -0.0262407 0)
(-0.0657149 -0.0264618 0)
(-0.0589048 -0.0263865 0)
(-0.0520586 -0.026015 0)
(-0.0452423 -0.0253533 0)
(-0.0385223 -0.0244131 0)
(-0.0319642 -0.0232121 0)
(-0.0256316 -0.0217732 0)
(-0.0195847 -0.0201244 0)
(-0.0138794 -0.018298 0)
(-0.00856545 -0.0163298 0)
(-0.00368627 -0.0142579 0)
(0.00072254 -0.0121216 0)
(0.00463371 -0.00996055 0)
(0.00802869 -0.00781292 0)
(0.0108979 -0.0057149 0)
(0.0132407 -0.00369928 0)
(0.0150649 -0.00179476 0)
(0.0163865 -2.53187e-05 0)
(0.0172288 0.00159012 0)
(0.0176215 0.003038 0)
(0.0175993 0.00430925 0)
(0.0172019 0.0053992 0)
(0.016472 0.00630651 0)
(0.0154549 0.00703185 0)
(0.0141977 0.00757639 0)
(0.0127487 0.00794019 0)
(0.0111573 0.00812042 0)
(0.00947408 0.00810984 0)
(0.007751 0.00789569 0)
(0.0060426 0.00745929 0)
(0.00440731 0.00677682 0)
(0.00290802 0.00582151 0)
(0.00161127 0.00456748 0)
(0.000612816 0.00299499 0)
(0.00010179 0.00109911 0)
(-0.103574 -0.0313452 0)
(-0.0967981 -0.0324151 0)
(-0.089742 -0.0331465 0)
(-0.082466 -0.0335253 0)
(-0.0750336 -0.033543 0)
(-0.0675123 -0.0331975 0)
(-0.0599719 -0.0324934 0)
(-0.0524837 -0.0314422 0)
(-0.0451194 -0.0300623 0)
(-0.0379493 -0.0283791 0)
(-0.0310416 -0.0264242 0)
(-0.0244601 -0.0242348 0)
(-0.0182636 -0.0218527 0)
(-0.0125042 -0.0193233 0)
(-0.00722628 -0.016694 0)
(-0.00246572 -0.0140129 0)
(0.00175081 -0.0113276 0)
(0.00540627 -0.00868339 0)
(0.00849333 -0.00612221 0)
(0.0110141 -0.00368158 0)
(0.0129798 -0.00139361 0)
(0.0144103 0.000715401 0)
(0.0153326 0.0026249 0)
(0.0157803 0.00432079 0)
(0.015793 0.00579395 0)
(0.0154145 0.00703948 0)
(0.0146923 0.00805542 0)
(0.0136765 0.00884103 0)
(0.0124191 0.00939488 0)
(0.0109738 0.00971281 0)
(0.00939602 0.00978608 0)
(0.00774282 0.00959986 0)
(0.00607401 0.00913234 0)
(0.00445375 0.00835484 0)
(0.00295122 0.00723298 0)
(0.00163997 0.00572909 0)
(0.000624153 0.00380553 0)
(0.000103346 0.00142853 0)
(-0.136651 -0.0342538 0)
(-0.130321 -0.0363717 0)
(-0.123545 -0.0381495 0)
(-0.11637 -0.0395571 0)
(-0.108848 -0.0405695 0)
(-0.101041 -0.0411671 0)
(-0.0930113 -0.0413372 0)
(-0.0848297 -0.0410739 0)
(-0.0765694 -0.0403791 0)
(-0.0683068 -0.0392629 0)
(-0.0601195 -0.0377438 0)
(-0.0520855 -0.0358483 0)
(-0.044281 -0.033611 0)
(-0.0367792 -0.0310734 0)
(-0.0296482 -0.0282832 0)
(-0.0229501 -0.0252928 0)
(-0.016739 -0.0221578 0)
(-0.0110603 -0.0189355 0)
(-0.00594958 -0.015683 0)
(-0.00143209 -0.0124558 0)
(0.00247746 -0.00930574 0)
(0.00577488 -0.00628019 0)
(0.00846617 -0.00342051 0)
(0.0105666 -0.000761554 0)
(0.0121008 0.00166846 0)
(0.0131009 0.00384875 0)
(0.0136055 0.00576466 0)
(0.0136591 0.00740668 0)
(0.0133106 0.00876928 0)
(0.0126127 0.00984893 0)
(0.0116206 0.010642 0)
(0.0103921 0.0111425 0)
(0.00898692 0.0113398 0)
(0.00746694 0.0112166 0)
(0.00589713 0.0107476 0)
(0.00434706 0.0098989 0)
(0.00289163 0.00862807 0)
(0.0016103 0.00688529 0)
(0.000612599 0.00461514 0)
(0.000100925 0.00175707 0)
(-0.169994 -0.0342217 0)
(-0.164589 -0.0374828 0)
(-0.158604 -0.040443 0)
(-0.152068 -0.0430595 0)
(-0.145019 -0.0452933 0)
(-0.1375 -0.0471079 0)
(-0.129562 -0.0484715 0)
(-0.121262 -0.0493585 0)
(-0.112666 -0.0497501 0)
(-0.103844 -0.0496355 0)
(-0.0948734 -0.0490125 0)
(-0.0858343 -0.0478882 0)
(-0.0768109 -0.0462797 0)
(-0.0678888 -0.0442137 0)
(-0.0591531 -0.0417267 0)
(-0.050687 -0.0388638 0)
(-0.0425692 -0.0356781 0)
(-0.034873 -0.032229 0)
(-0.0276636 -0.0285804 0)
(-0.020997 -0.0247993 0)
(-0.0149192 -0.020953 0)
(-0.00946477 -0.0171079 0)
(-0.00465663 -0.013327 0)
(-0.000506097 -0.00966838 0)
(0.00298696 -0.00618407 0)
(0.00583343 -0.00291866 0)
(0.00805446 9.12422e-05 0)
(0.00968032 0.00281654 0)
(0.0107488 0.00523595 0)
(0.0113046 0.00733431 0)
(0.011398 0.00910155 0)
(0.0110839 0.0105305 0)
(0.0104207 0.0116148 0)
(0.00946973 0.0123457 0)
(0.00829493 0.0127103 0)
(0.0069629 0.0126886 0)
(0.00554349 0.0122515 0)
(0.00411133 0.0113597 0)
(0.00274634 0.00996274 0)
(0.00153272 0.00799921 0)
(0.000582722 0.00539747 0)
(9.5476e-05 0.00207382 0)
(-0.193085 -0.0393336 0)
(-0.187671 -0.0432152 0)
(-0.18162 -0.0467718 0)
(-0.174953 -0.049954 0)
(-0.167704 -0.052715 0)
(-0.15991 -0.0550113 0)
(-0.151619 -0.0568037 0)
(-0.142884 -0.0580589 0)
(-0.133769 -0.058751 0)
(-0.124345 -0.0588622 0)
(-0.11469 -0.0583847 0)
(-0.104889 -0.0573209 0)
(-0.0950307 -0.0556847 0)
(-0.0852086 -0.0535014 0)
(-0.0755172 -0.0508082 0)
(-0.0660503 -0.0476526 0)
(-0.0568988 -0.0440926 0)
(-0.0481482 -0.040194 0)
(-0.0398768 -0.0360295 0)
(-0.0321531 -0.0316758 0)
(-0.025035 -0.0272116 0)
(-0.0185682 -0.022715 0)
(-0.0127852 -0.0182614 0)
(-0.00770565 -0.0139212 0)
(-0.00333617 -0.00975805 0)
(0.000329034 -0.00582774 0)
(0.00330739 -0.00217713 0)
(0.00562693 0.00115571 0)
(0.00732457 0.00414118 0)
(0.00844514 0.00675781 0)
(0.00904042 0.00898998 0)
(0.00916746 0.010826 0)
(0.00888767 0.0122558 0)
(0.00826606 0.0132677 0)
(0.00737077 0.0138458 0)
(0.00627289 0.0139671 0)
(0.00504705 0.0135986 0)
(0.00377254 0.0126956 0)
(0.00253361 0.0112002 0)
(0.00141817 0.0090406 0)
(0.000539119 0.00613145 0)
(8.7893e-05 0.00237036 0)
(-0.216654 -0.0443916 0)
(-0.211314 -0.0489475 0)
(-0.205283 -0.0531605 0)
(-0.198576 -0.0569744 0)
(-0.191219 -0.0603353 0)
(-0.183242 -0.0631915 0)
(-0.174685 -0.0654954 0)
(-0.165599 -0.067205 0)
(-0.156041 -0.0682855 0)
(-0.146081 -0.0687107 0)
(-0.135796 -0.0684647 0)
(-0.125273 -0.0675434 0)
(-0.114605 -0.0659552 0)
(-0.103894 -0.0637221 0)
(-0.0932408 -0.0608797 0)
(-0.0827524 -0.0574769 0)
(-0.072532 -0.0535749 0)
(-0.0626793 -0.0492459 0)
(-0.0532874 -0.0445706 0)
(-0.0444398 -0.0396363 0)
(-0.0362086 -0.0345335 0)
(-0.0286529 -0.0293537 0)
(-0.021817 -0.0241858 0)
(-0.0157307 -0.0191141 0)
(-0.0104087 -0.014216 0)
(-0.00585149 -0.00955991 0)
(-0.00204592 -0.00520463 0)
(0.00103306 -0.00119873 0)
(0.00342165 0.00241897 0)
(0.00516526 0.00561913 0)
(0.00631683 0.00837961 0)
(0.00693585 0.0106834 0)
(0.00708697 0.012516 0)
(0.00683906 0.0138623 0)
(0.00626455 0.0147029 0)
(0.00543911 0.0150116 0)
(0.00444198 0.0147514 0)
(0.00335683 0.0138728 0)
(0.00227173 0.0123112 0)
(0.00127748 0.00998618 0)
(0.000486256 0.00680137 0)
(7.90154e-05 0.00264075 0)
(-0.240176 -0.0493132 0)
(-0.235002 -0.0545892 0)
(-0.229093 -0.0595125 0)
(-0.222455 -0.0640203 0)
(-0.215104 -0.0680514 0)
(-0.207061 -0.0715458 0)
(-0.198358 -0.0744467 0)
(-0.189035 -0.0767022 0)
(-0.179145 -0.0782672 0)
(-0.168751 -0.079105 0)
(-0.157927 -0.0791897 0)
(-0.146758 -0.0785077 0)
(-0.135342 -0.0770596 0)
(-0.123782 -0.0748612 0)
(-0.112191 -0.0719441 0)
(-0.100685 -0.068356 0)
(-0.0893806 -0.06416 0)
(-0.0783934 -0.059433 0)
(-0.0678333 -0.0542635 0)
(-0.0578014 -0.0487493 0)
(-0.0483872 -0.0429935 0)
(-0.0396658 -0.037102 0)
(-0.0316968 -0.0311794 0)
(-0.0245224 -0.0253257 0)
(-0.018168 -0.0196339 0)
(-0.0126419 -0.0141876 0)
(-0.00793661 -0.00905946 0)
(-0.00403031 -0.00431038 0)
(-0.00088827 1.03345e-05 0)
(0.00153521 0.00386378 0)
(0.00329482 0.00722016 0)
(0.00445282 0.0100563 0)
(0.00507748 0.0123527 0)
(0.00524187 0.01409 0)
(0.005023 0.0152454 0)
(0.00450131 0.0157891 0)
(0.00376071 0.0156805 0)
(0.00288911 0.0148656 0)
(0.00197808 0.0132743 0)
(0.00112088 0.0108195 0)
(0.000428298 0.00739678 0)
(6.96113e-05 0.00288138 0)
(-0.263059 -0.0540068 0)
(-0.258152 -0.0600373 0)
(-0.25248 -0.0657145 0)
(-0.246037 -0.0709699 0)
(-0.238828 -0.0757352 0)
(-0.230864 -0.0799422 0)
(-0.222162 -0.0835246 0)
(-0.212754 -0.0864199 0)
(-0.20268 -0.0885711 0)
(-0.191995 -0.0899293 0)
(-0.180765 -0.0904562 0)
(-0.169071 -0.090126 0)
(-0.157009 -0.0889281 0)
(-0.144686 -0.0868687 0)
(-0.132218 -0.0839724 0)
(-0.119733 -0.0802825 0)
(-0.107359 -0.0758609 0)
(-0.0952293 -0.0707874 0)
(-0.0834721 -0.0651568 0)
(-0.0722085 -0.0590767 0)
(-0.0615488 -0.0526637 0)
(-0.0515881 -0.046039 0)
(-0.0424048 -0.0393245 0)
(-0.0340576 -0.0326386 0)
(-0.0265855 -0.0260927 0)
(-0.0200076 -0.019788 0)
(-0.0143241 -0.0138136 0)
(-0.00951777 -0.00824509 0)
(-0.00555619 -0.00314482 0)
(-0.00239361 0.00143748 0)
(2.65462e-05 0.00546305 0)
(0.00176968 0.00890145 0)
(0.00290818 0.0117273 0)
(0.00351987 0.0139168 0)
(0.00368683 0.0154433 0)
(0.00349466 0.0162735 0)
(0.0030322 0.0163635 0)
(0.00239172 0.0156554 0)
(0.00166825 0.014075 0)
(0.000957515 0.0115303 0)
(0.00036895 0.007912 0)
(6.03545e-05 0.0030908 0)
(-0.284669 -0.0583757 0)
(-0.280134 -0.0651793 0)
(-0.274821 -0.0716395 0)
(-0.268712 -0.0776829 0)
(-0.261798 -0.0832353 0)
(-0.254077 -0.0882208 0)
(-0.245554 -0.0925638 0)
(-0.236243 -0.0961905 0)
(-0.226171 -0.0990315 0)
(-0.215379 -0.101024 0)
(-0.203922 -0.102115 0)
(-0.191872 -0.102263 0)
(-0.179318 -0.101444 0)
(-0.166364 -0.0996501 0)
(-0.15313 -0.0968941 0)
(-0.139749 -0.0932111 0)
(-0.126362 -0.0886582 0)
(-0.113118 -0.0833144 0)
(-0.100164 -0.0772786 0)
(-0.0876437 -0.0706668 0)
(-0.0756915 -0.0636082 0)
(-0.0644269 -0.0562405 0)
(-0.0539515 -0.0487048 0)
(-0.0443453 -0.0411403 0)
(-0.0356658 -0.0336797 0)
(-0.0279465 -0.0264453 0)
(-0.0211986 -0.0195461 0)
(-0.015412 -0.0130755 0)
(-0.010558 -0.00711165 0)
(-0.00659149 -0.00171723 0)
(-0.00345437 0.00305819 0)
(-0.0010778 0.00717562 0)
(0.000615271 0.0106031 0)
(0.00170809 0.0133117 0)
(0.00228849 0.0152707 0)
(0.00244786 0.0164436 0)
(0.00228047 0.0167835 0)
(0.00188334 0.0162296 0)
(0.00135537 0.0147048 0)
(0.000795087 0.012114 0)
(0.000311313 0.00834557 0)
(5.18034e-05 0.00326935 0)
(-0.304364 -0.0623239 0)
(-0.300303 -0.0699005 0)
(-0.295469 -0.0771541 0)
(-0.289834 -0.0840083 0)
(-0.283377 -0.0903845 0)
(-0.276078 -0.0962003 0)
(-0.267927 -0.101371 0)
(-0.258921 -0.105814 0)
(-0.249068 -0.109444 0)
(-0.238391 -0.112186 0)
(-0.22693 -0.113969 0)
(-0.21474 -0.114734 0)
(-0.201899 -0.114439 0)
(-0.188504 -0.113057 0)
(-0.17467 -0.110586 0)
(-0.160533 -0.107048 0)
(-0.146242 -0.102488 0)
(-0.131958 -0.0969813 0)
(-0.117849 -0.0906259 0)
(-0.104082 -0.0835435 0)
(-0.0908167 -0.0758747 0)
(-0.0782019 -0.0677732 0)
(-0.0663674 -0.0594005 0)
(-0.0554205 -0.0509193 0)
(-0.0454423 -0.042487 0)
(-0.0364868 -0.0342511 0)
(-0.0285806 -0.0263445 0)
(-0.0217244 -0.0188827 0)
(-0.0158959 -0.0119629 0)
(-0.0110525 -0.00566411 0)
(-0.00713513 -4.90916e-05 0)
(-0.0040717 0.00483294 0)
(-0.00178007 0.00894224 0)
(-0.000170856 0.0122441 0)
(0.000850371 0.0147037 0)
(0.00138161 0.0162815 0)
(0.00152337 0.016928 0)
(0.00137817 0.0165806 0)
(0.00104948 0.0151602 0)
(0.000639522 0.0125704 0)
(0.000257772 0.00869937 0)
(4.43839e-05 0.00341889 0)
(-0.321534 -0.065765 0)
(-0.318034 -0.0740927 0)
(-0.313789 -0.0821284 0)
(-0.308761 -0.0897946 0)
(-0.302916 -0.0970103 0)
(-0.296218 -0.103689 0)
(-0.288639 -0.109738 0)
(-0.280157 -0.115065 0)
(-0.270759 -0.119575 0)
(-0.260448 -0.123175 0)
(-0.249239 -0.125777 0)
(-0.237169 -0.127302 0)
(-0.224297 -0.127687 0)
(-0.210704 -0.126884 0)
(-0.196497 -0.124867 0)
(-0.181804 -0.121639 0)
(-0.166779 -0.117231 0)
(-0.151592 -0.111704 0)
(-0.136424 -0.105151 0)
(-0.121467 -0.0976945 0)
(-0.106908 -0.0894827 0)
(-0.0929269 -0.0806841 0)
(-0.079688 -0.0714805 0)
(-0.0673312 -0.06206 0)
(-0.0559685 -0.0526084 0)
(-0.0456808 -0.0433026 0)
(-0.0365166 -0.0343045 0)
(-0.0284931 -0.0257569 0)
(-0.0215982 -0.0177808 0)
(-0.0157948 -0.0104757 0)
(-0.0110247 -0.00392085 0)
(-0.00721326 0.00182181 0)
(-0.0042731 0.00670318 0)
(-0.00210816 0.0106818 0)
(-0.000616508 0.0137185 0)
(0.00030751 0.0157706 0)
(0.000771722 0.016787 0)
(0.000885223 0.0167037 0)
(0.000757184 0.015441 0)
(0.000494765 0.0129026 0)
(0.000209919 0.00897778 0)
(3.83778e-05 0.00354231 0)
(-0.33565 -0.0686304 0)
(-0.332774 -0.0776653 0)
(-0.329206 -0.0864481 0)
(-0.324897 -0.0949032 0)
(-0.3198 -0.102949 0)
(-0.313866 -0.110498 0)
(-0.307049 -0.117453 0)
(-0.299307 -0.123713 0)
(-0.290604 -0.129172 0)
(-0.280918 -0.133724 0)
(-0.270239 -0.137263 0)
(-0.258579 -0.139689 0)
(-0.245971 -0.140915 0)
(-0.232474 -0.140866 0)
(-0.218175 -0.139493 0)
(-0.203191 -0.136769 0)
(-0.187669 -0.132703 0)
(-0.171778 -0.127336 0)
(-0.155714 -0.120749 0)
(-0.139685 -0.113057 0)
(-0.123905 -0.10441 0)
(-0.108588 -0.0949875 0)
(-0.093934 -0.0849908 0)
(-0.0801227 -0.0746333 0)
(-0.0673044 -0.0641321 0)
(-0.0555949 -0.0536981 0)
(-0.0450727 -0.0435279 0)
(-0.0357782 -0.0337974 0)
(-0.0277162 -0.024658 0)
(-0.0208594 -0.016235 0)
(-0.0151536 -0.00862865 0)
(-0.010523 -0.00191727 0)
(-0.006876 0.0038382 0)
(-0.00410948 0.00858822 0)
(-0.00211315 0.0122885 0)
(-0.000772518 0.0148934 0)
(2.88483e-05 0.0163505 0)
(0.00040803 0.0165954 0)
(0.000481386 0.0155487 0)
(0.000362666 0.0131153 0)
(0.00016852 0.00918657 0)
(3.39196e-05 0.00364316 0)
(-0.346307 -0.0708777 0)
(-0.344092 -0.0805543 0)
(-0.341257 -0.0900262 0)
(-0.337745 -0.0992217 0)
(-0.333501 -0.108063 0)
(-0.328464 -0.116461 0)
(-0.322571 -0.12432 0)
(-0.31576 -0.131532 0)
(-0.307975 -0.137986 0)
(-0.299166 -0.14356 0)
(-0.289296 -0.148135 0)
(-0.278347 -0.151589 0)
(-0.26632 -0.153809 0)
(-0.253246 -0.154694 0)
(-0.239183 -0.154161 0)
(-0.224227 -0.152154 0)
(-0.208507 -0.14865 0)
(-0.192186 -0.143662 0)
(-0.175459 -0.137246 0)
(-0.158546 -0.129503 0)
(-0.141685 -0.120577 0)
(-0.12512 -0.110651 0)
(-0.10909 -0.0999408 0)
(-0.0938184 -0.0886843 0)
(-0.0795009 -0.0771308 0)
(-0.0662967 -0.0655292 0)
(-0.0543236 -0.0541166 0)
(-0.0436546 -0.0431092 0)
(-0.0343191 -0.0326961 0)
(-0.0263063 -0.0230355 0)
(-0.019571 -0.0142549 0)
(-0.0140396 -0.00645391 0)
(-0.00961742 0.000290953 0)
(-0.00619481 0.00591982 0)
(-0.00365258 0.0103821 0)
(-0.00186634 0.0136289 0)
(-0.000709543 0.0156067 0)
(-5.54604e-05 0.0162515 0)
(0.000221275 0.0154849 0)
(0.00024298 0.0132137 0)
(0.000133518 0.00933194 0)
(3.09992e-05 0.00372516 0)
(-0.353274 -0.0724958 0)
(-0.35172 -0.0827306 0)
(-0.349634 -0.0928122 0)
(-0.346958 -0.102676 0)
(-0.343629 -0.112249 0)
(-0.339577 -0.121448 0)
(-0.334726 -0.130177 0)
(-0.328998 -0.13833 0)
(-0.322316 -0.145788 0)
(-0.314605 -0.152425 0)
(-0.3058 -0.158104 0)
(-0.295849 -0.162687 0)
(-0.284721 -0.166036 0)
(-0.272409 -0.168021 0)
(-0.258938 -0.168527 0)
(-0.244369 -0.167459 0)
(-0.228804 -0.164755 0)
(-0.212386 -0.160392 0)
(-0.195301 -0.154394 0)
(-0.177768 -0.146833 0)
(-0.16004 -0.137836 0)
(-0.142386 -0.127581 0)
(-0.125083 -0.116289 0)
(-0.108399 -0.104218 0)
(-0.0925808 -0.0916488 0)
(-0.0778387 -0.0788702 0)
(-0.06434 -0.0661651 0)
(-0.0522008 -0.0537974 0)
(-0.0414857 -0.0420023 0)
(-0.0322091 -0.0309797 0)
(-0.0243416 -0.0208927 0)
(-0.0178169 -0.0118687 0)
(-0.0125404 -0.00400505 0)
(-0.0083971 0.00262442 0)
(-0.00525906 0.00796065 0)
(-0.00299105 0.0119508 0)
(-0.00145497 0.01454 0)
(-0.000512603 0.0156649 0)
(-2.74965e-05 0.0152492 0)
(0.000133478 0.0132017 0)
(0.000104089 0.00941944 0)
(2.94718e-05 0.00379177 0)
(-0.356508 -0.0735069 0)
(-0.355581 -0.0842028 0)
(-0.354223 -0.0947984 0)
(-0.352376 -0.105238 0)
(-0.349974 -0.115457 0)
(-0.346942 -0.125379 0)
(-0.343196 -0.134915 0)
(-0.338646 -0.14396 0)
(-0.333196 -0.152398 0)
(-0.326752 -0.160097 0)
(-0.319221 -0.166911 0)
(-0.31052 -0.172689 0)
(-0.300581 -0.177271 0)
(-0.289357 -0.180498 0)
(-0.276832 -0.182221 0)
(-0.263026 -0.182306 0)
(-0.248002 -0.180648 0)
(-0.23187 -0.177178 0)
(-0.214791 -0.171874 0)
(-0.196974 -0.16477 0)
(-0.17867 -0.155962 0)
(-0.160166 -0.145609 0)
(-0.141767 -0.133927 0)
(-0.123785 -0.121184 0)
(-0.10652 -0.107687 0)
(-0.0902412 -0.0937652 0)
(-0.0751732 -0.0797494 0)
(-0.0614874 -0.0659587 0)
(-0.0492949 -0.0526835 0)
(-0.0386469 -0.0401758 0)
(-0.0295392 -0.028644 0)
(-0.0219199 -0.0182527 0)
(-0.0156994 -0.00912702 0)
(-0.0107602 -0.00136022 0)
(-0.00696649 0.00497685 0)
(-0.00417186 0.00982533 0)
(-0.00222538 0.0131287 0)
(-0.000975474 0.0148244 0)
(-0.00027244 0.0148381 0)
(3.01662e-05 0.0130812 0)
(7.87478e-05 0.00945306 0)
(2.90762e-05 0.00384586 0)
(-0.356166 -0.0739642 0)
(-0.355802 -0.085017 0)
(-0.355112 -0.0960204 0)
(-0.354043 -0.106929 0)
(-0.35253 -0.117689 0)
(-0.350497 -0.128234 0)
(-0.347857 -0.138483 0)
(-0.344513 -0.148342 0)
(-0.340358 -0.157696 0)
(-0.335281 -0.166416 0)
(-0.329167 -0.174354 0)
(-0.321904 -0.181347 0)
(-0.31339 -0.187221 0)
(-0.303538 -0.191792 0)
(-0.292286 -0.194879 0)
(-0.279606 -0.19631 0)
(-0.265515 -0.19593 0)
(-0.250077 -0.19362 0)
(-0.233413 -0.189304 0)
(-0.215704 -0.182966 0)
(-0.197185 -0.174653 0)
(-0.178145 -0.164489 0)
(-0.158907 -0.152671 0)
(-0.13982 -0.139464 0)
(-0.121233 -0.125191 0)
(-0.103476 -0.110213 0)
(-0.0868401 -0.0949142 0)
(-0.0715626 -0.0796708 0)
(-0.0578141 -0.064838 0)
(-0.0456955 -0.0507312 0)
(-0.0352397 -0.037616 0)
(-0.0264192 -0.0257055 0)
(-0.0191563 -0.0151625 0)
(-0.0133358 -0.00610685 0)
(-0.00881615 0.0013734 0)
(-0.0054404 0.00721034 0)
(-0.00304388 0.0113441 0)
(-0.00146001 0.0137125 0)
(-0.000523608 0.0142432 0)
(-7.23821e-05 0.0128502 0)
(5.54252e-05 0.00943434 0)
(2.9463e-05 0.00388927 0)
(-0.352583 -0.073946 0)
(-0.352693 -0.0852515 0)
(-0.352581 -0.0965531 0)
(-0.3522 -0.107817 0)
(-0.351492 -0.119001 0)
(-0.350383 -0.130052 0)
(-0.34879 -0.140901 0)
(-0.346613 -0.151464 0)
(-0.343742 -0.161637 0)
(-0.340055 -0.171297 0)
(-0.335422 -0.180301 0)
(-0.329708 -0.188481 0)
(-0.322779 -0.195655 0)
(-0.314514 -0.201622 0)
(-0.304804 -0.206173 0)
(-0.293573 -0.209099 0)
(-0.28078 -0.2102 0)
(-0.266437 -0.209301 0)
(-0.250611 -0.206266 0)
(-0.233437 -0.201014 0)
(-0.21512 -0.193535 0)
(-0.195927 -0.183897 0)
(-0.176186 -0.172257 0)
(-0.156265 -0.158861 0)
(-0.136558 -0.144032 0)
(-0.117452 -0.128156 0)
(-0.0993083 -0.111659 0)
(-0.0824391 -0.09498 0)
(-0.0670871 -0.0785456 0)
(-0.0534169 -0.0627454 0)
(-0.0415129 -0.047916 0)
(-0.0313842 -0.0343325 0)
(-0.0229751 -0.0222076 0)
(-0.0161793 -0.0116982 0)
(-0.0108538 -0.00291703 0)
(-0.00683254 0.00405405 0)
(-0.00393722 0.00914899 0)
(-0.00198488 0.0123046 0)
(-0.000792836 0.0134504 0)
(-0.000180737 0.0125023 0)
(3.15719e-05 0.00936205 0)
(3.02758e-05 0.00392272 0)
(-0.346229 -0.0735475 0)
(-0.346711 -0.0850076 0)
(-0.347067 -0.096502 0)
(-0.347258 -0.108008 0)
(-0.347234 -0.119497 0)
(-0.346931 -0.130928 0)
(-0.346272 -0.142248 0)
(-0.345163 -0.153386 0)
(-0.343494 -0.164253 0)
(-0.341142 -0.174738 0)
(-0.337969 -0.184707 0)
(-0.333825 -0.193998 0)
(-0.328554 -0.202426 0)
(-0.322003 -0.209782 0)
(-0.314024 -0.215837 0)
(-0.30449 -0.220353 0)
(-0.293306 -0.223087 0)
(-0.28042 -0.223811 0)
(-0.265839 -0.222326 0)
(-0.249635 -0.218478 0)
(-0.231962 -0.212182 0)
(-0.213049 -0.203439 0)
(-0.193204 -0.192344 0)
(-0.1728 -0.1791 0)
(-0.152255 -0.164009 0)
(-0.132007 -0.147464 0)
(-0.112486 -0.129925 0)
(-0.0940825 -0.111888 0)
(-0.0771226 -0.0938555 0)
(-0.0618494 -0.0763002 0)
(-0.0484139 -0.0596438 0)
(-0.0368767 -0.044239 0)
(-0.0272167 -0.0303638 0)
(-0.019346 -0.0182254 0)
(-0.0131263 -0.00797131 0)
(-0.008386 0.000295193 0)
(-0.00493395 0.0064974 0)
(-0.00257028 0.0105688 0)
(-0.00109313 0.0124392 0)
(-0.00030177 0.0120261 0)
(4.67259e-06 0.00923156 0)
(3.10098e-05 0.00394553 0)
(-0.337666 -0.0728705 0)
(-0.338413 -0.0843993 0)
(-0.339116 -0.0959914 0)
(-0.339746 -0.107635 0)
(-0.340264 -0.119314 0)
(-0.340618 -0.131001 0)
(-0.340741 -0.142658 0)
(-0.34055 -0.154231 0)
(-0.339943 -0.165649 0)
(-0.338802 -0.176817 0)
(-0.336989 -0.187615 0)
(-0.334349 -0.197896 0)
(-0.330715 -0.20748 0)
(-0.325908 -0.21616 0)
(-0.319751 -0.223697 0)
(-0.312072 -0.229831 0)
(-0.302722 -0.234287 0)
(-0.291588 -0.236789 0)
(-0.278606 -0.237073 0)
(-0.26378 -0.234914 0)
(-0.247191 -0.230143 0)
(-0.229013 -0.222674 0)
(-0.20951 -0.212523 0)
(-0.189034 -0.199824 0)
(-0.168008 -0.184835 0)
(-0.146905 -0.16793 0)
(-0.126214 -0.149584 0)
(-0.106402 -0.130341 0)
(-0.0878855 -0.110775 0)
(-0.0709985 -0.091449 0)
(-0.055975 -0.0728832 0)
(-0.0429437 -0.0555244 0)
(-0.0319333 -0.0397337 0)
(-0.0228865 -0.025785 0)
(-0.0156786 -0.0138743 0)
(-0.0101378 -0.00413632 0)
(-0.00606261 0.00333466 0)
(-0.0032366 0.00846477 0)
(-0.00143762 0.0111824 0)
(-0.000442586 0.0114052 0)
(-2.79185e-05 0.0090345 0)
(3.12397e-05 0.0039556 0)
(-0.327484 -0.0720147 0)
(-0.328394 -0.0835423 0)
(-0.329324 -0.0951524 0)
(-0.330258 -0.106843 0)
(-0.331168 -0.118608 0)
(-0.332014 -0.130435 0)
(-0.332744 -0.142301 0)
(-0.333288 -0.154169 0)
(-0.33356 -0.165987 0)
(-0.333451 -0.17768 0)
(-0.332834 -0.189149 0)
(-0.331558 -0.200264 0)
(-0.32945 -0.210862 0)
(-0.326323 -0.220745 0)
(-0.321976 -0.229677 0)
(-0.316205 -0.237389 0)
(-0.308814 -0.243583 0)
(-0.299633 -0.247943 0)
(-0.288527 -0.250154 0)
(-0.275423 -0.249915 0)
(-0.260324 -0.246972 0)
(-0.243325 -0.241143 0)
(-0.224625 -0.232345 0)
(-0.20453 -0.22062 0)
(-0.183442 -0.206152 0)
(-0.161844 -0.189269 0)
(-0.140266 -0.170434 0)
(-0.119246 -0.150218 0)
(-0.0992894 -0.129257 0)
(-0.0808299 -0.108206 0)
(-0.0641992 -0.0876929 0)
(-0.0496116 -0.0682747 0)
(-0.0371633 -0.0504154 0)
(-0.0268427 -0.0344754 0)
(-0.0185503 -0.0207163 0)
(-0.0121219 -0.00931803 0)
(-0.00735001 -0.000401814 0)
(-0.00400323 0.00594509 0)
(-0.00183885 0.00964614 0)
(-0.000610011 0.0106177 0)
(-6.86847e-05 0.00875916 0)
(3.06245e-05 0.00394943 0)
(-0.316252 -0.0710695 0)
(-0.317235 -0.0825441 0)
(-0.318285 -0.0941107 0)
(-0.319395 -0.105775 0)
(-0.32055 -0.117541 0)
(-0.321723 -0.129408 0)
(-0.322878 -0.141367 0)
(-0.323963 -0.153398 0)
(-0.324906 -0.165469 0)
(-0.325619 -0.177526 0)
(-0.325987 -0.189494 0)
(-0.325872 -0.201267 0)
(-0.325111 -0.212704 0)
(-0.323513 -0.223626 0)
(-0.32087 -0.23381 0)
(-0.316956 -0.242991 0)
(-0.311542 -0.250863 0)
(-0.304406 -0.257085 0)
(-0.295351 -0.261297 0)
(-0.284228 -0.263136 0)
(-0.270953 -0.262264 0)
(-0.255533 -0.258398 0)
(-0.238082 -0.251344 0)
(-0.218832 -0.241031 0)
(-0.198139 -0.227541 0)
(-0.176464 -0.211123 0)
(-0.154355 -0.192194 0)
(-0.132403 -0.171324 0)
(-0.111194 -0.149192 0)
(-0.0912643 -0.126537 0)
(-0.0730543 -0.104096 0)
(-0.0568812 -0.0825539 0)
(-0.0429272 -0.0624961 0)
(-0.0312445 -0.044392 0)
(-0.0217733 -0.0285901 0)
(-0.0143673 -0.0153328 0)
(-0.00881984 -0.00478125 0)
(-0.00488762 0.00295543 0)
(-0.00230821 0.00779076 0)
(-0.000810187 0.00963716 0)
(-0.000119944 0.00839058 0)
(2.87476e-05 0.00392224 0)
(-0.304478 -0.0701088 0)
(-0.30546 -0.0814968 0)
(-0.306539 -0.0929779 0)
(-0.307715 -0.104563 0)
(-0.308983 -0.116265 0)
(-0.310332 -0.128091 0)
(-0.31174 -0.140045 0)
(-0.313172 -0.152124 0)
(-0.314577 -0.164313 0)
(-0.315886 -0.176582 0)
(-0.317005 -0.188878 0)
(-0.317814 -0.201124 0)
(-0.318167 -0.213206 0)
(-0.317884 -0.224972 0)
(-0.316759 -0.236222 0)
(-0.31456 -0.246708 0)
(-0.311035 -0.256129 0)
(-0.305928 -0.264135 0)
(-0.298989 -0.270338 0)
(-0.289998 -0.274325 0)
(-0.278789 -0.275685 0)
(-0.265273 -0.274037 0)
(-0.249465 -0.269072 0)
(-0.231505 -0.260591 0)
(-0.211671 -0.248546 0)
(-0.190374 -0.233075 0)
(-0.168147 -0.214514 0)
(-0.145607 -0.193392 0)
(-0.123406 -0.170401 0)
(-0.102175 -0.146347 0)
(-0.0824699 -0.122072 0)
(-0.064724 -0.0983956 0)
(-0.0492245 -0.076045 0)
(-0.0361072 -0.0556222 0)
(-0.0253695 -0.0375872 0)
(-0.0168966 -0.0222665 0)
(-0.0104916 -0.00987781 0)
(-0.00590456 -0.000564061 0)
(-0.00285547 0.00557123 0)
(-0.00104841 0.00843266 0)
(-0.000183602 0.00791093 0)
(2.53378e-05 0.00386827 0)
(-0.292578 -0.069188 0)
(-0.293506 -0.0804734 0)
(-0.294543 -0.0918452 0)
(-0.295696 -0.103319 0)
(-0.29697 -0.114911 0)
(-0.298365 -0.126638 0)
(-0.299874 -0.138513 0)
(-0.301478 -0.150546 0)
(-0.303148 -0.162739 0)
(-0.304833 -0.175082 0)
(-0.306466 -0.187548 0)
(-0.307949 -0.200087 0)
(-0.309157 -0.212616 0)
(-0.309933 -0.225016 0)