/*--------------------------------*- C++ -*----------------------------------*\
  =========                 |
  \\      /  F ield         | OpenFOAM: The Open Source CFD Toolbox
   \\    /   O peration     | Website:  https://openfoam.org
    \\  /    A nd           | Version:  9
     \\/     M anipulation  |
\*---------------------------------------------------------------------------*/
FoamFile
{
    format      ascii;
    class       volScalarField;
    location    "3.5";
    object      p;
}
// * * * * * * * * * * * * * * * * * * * * * * * * * * * * * * * * * * * * * //

dimensions      [0 2 -2 0 0 0 0];

internalField   nonuniform List<scalar> 
1240
(
9.63185e-05
0.000250679
0.000325932
0.000319286
0.000230133
6.00961e-05
-0.000187018
-0.000505376
-0.000887413
-0.00132389
-0.00180464
-0.00231874
-0.00285498
-0.00340232
-0.00395026
-0.00448916
-0.00501053
-0.00550719
-0.00597342
-0.00640494
-0.00679888
-0.0071537
-0.007469
-0.00774538
-0.00798418
-0.00818731
-0.00835701
-0.00849565
-0.00860556
-0.00868886
-0.00874739
-0.00878268
-0.00879616
-0.00878947
-0.0087653
-0.00872866
-0.00868749
-0.00865534
-0.000210222
-6.60278e-05
3.07927e-06
-5.56023e-06
-9.24982e-05
-0.000256144
-0.000492818
-0.000796894
-0.00116105
-0.00157658
-0.00203365
-0.0025219
-0.00303072
-0.00354968
-0.00406889
-0.00457933
-0.00507308
-0.00554351
-0.0059853
-0.00639455
-0.00676867
-0.00710625
-0.00740697
-0.0076714
-0.0079008
-0.00809692
-0.00826184
-0.00839779
-0.00850695
-0.00859144
-0.00865314
-0.00869378
-0.00871503
-0.00871871
-0.00870732
-0.00868475
-0.00865544
-0.00862316
-0.000419957
-0.000278708
-0.000210945
-0.000219347
-0.000304487
-0.000464791
-0.0006966
-0.00099431
-0.00135061
-0.00175681
-0.00220322
-0.0026795
-0.00317512
-0.00367984
-0.00418396
-0.00467869
-0.00515635
-0.00561058
-0.00603639
-0.00643014
-0.00678952
-0.00711336
-0.00740155
-0.00765482
-0.00787455
-0.00806257
-0.008221
-0.0083521
-0.0084581
-0.00854109
-0.008603
-0.00864555
-0.00867031
-0.00867878
-0.00867287
-0.00865522
-0.00862623
-0.0085819
-0.000622861
-0.000478712
-0.000407592
-0.000412321
-0.00049358
-0.000649863
-0.000877525
-0.00117093
-0.0015227
-0.001924
-0.00236493
-0.00283536
-0.0033241
-0.00382109
-0.00431652
-0.00480155
-0.00526857
-0.00571132
-0.00612498
-0.00650609
-0.00685269
-0.00716383
-0.00743967
-0.00768122
-0.00789012
-0.00806842
-0.00821843
-0.00834255
-0.00844311
-0.0085223
-0.00858203
-0.00862396
-0.0086494
-0.00865941
-0.00865512
-0.00863799
-0.00860512
-0.00854699
-0.000880343
-0.000727019
-0.000646636
-0.000642282
-0.000714866
-0.000863049
-0.00108328
-0.00136996
-0.00171564
-0.00211137
-0.0025471
-0.00301218
-0.00349563
-0.0039868
-0.00447575
-0.00495339
-0.00541205
-0.00584539
-0.00624865
-0.00661853
-0.00695308
-0.0072518
-0.00751508
-0.00774424
-0.00794121
-0.00810835
-0.00824825
-0.00836353
-0.0084567
-0.00853006
-0.00858557
-0.00862481
-0.00864888
-0.00865839
-0.0086538
-0.0086356
-0.0085984
-0.0085285
-0.00122934
-0.00105886
-0.000961249
-0.000940006
-0.00099643
-0.0011295
-0.00133592
-0.00161022
-0.00194501
-0.00233126
-0.00275878
-0.00321661
-0.00369351
-0.00417842
-0.00466129
-0.00513228
-0.00558369
-0.00600896
-0.00640317
-0.00676302
-0.00708667
-0.00737369
-0.0076248
-0.00784155
-0.0080262
-0.00818145
-0.00831018
-0.00841531
-0.00849958
-0.00856548
-0.00861505
-0.00864985
-0.00867084
-0.00867829
-0.00867215
-0.00865223
-0.00861143
-0.00853333
-0.00170737
-0.00150986
-0.00138481
-0.00133633
-0.00136629
-0.00147421
-0.00165722
-0.00191019
-0.00222593
-0.00259551
-0.00300865
-0.0034542
-0.00392062
-0.00439651
-0.00487113
-0.00533462
-0.00577858
-0.00619611
-0.00658203
-0.00693284
-0.00724666
-0.00752298
-0.00776282
-0.00796781
-0.00814049
-0.00828387
-0.00840116
-0.00849558
-0.00857015
-0.00862757
-0.00867004
-0.0086992
-0.00871594
-0.00872033
-0.00871202
-0.00869034
-0.00864727
-0.00856498
-0.00235331
-0.00211703
-0.00195215
-0.00186357
-0.00185397
-0.00192364
-0.00207041
-0.00228973
-0.00257486
-0.00291715
-0.00330642
-0.00373144
-0.00418046
-0.00464171
-0.00510393
-0.00555681
-0.00599136
-0.00640019
-0.00677764
-0.00711984
-0.00742466
-0.00769157
-0.00792116
-0.0081155
-0.00827722
-0.00840953
-0.00851591
-0.00859988
-0.00866475
-0.00871347
-0.00874844
-0.00877144
-0.0087834
-0.00878436
-0.00877381
-0.00875082
-0.00870706
-0.00862445
-0.00395848
-0.00355662
-0.00320681
-0.00291847
-0.00269944
-0.00255563
-0.00249079
-0.00250625
-0.00260084
-0.00277092
-0.00301049
-0.00331144
-0.00366396
-0.00405693
-0.0044785
-0.00491663
-0.0053596
-0.00579653
-0.0062178
-0.00661536
-0.00698293
-0.00731609
-0.00761223
-0.00787043
-0.00809121
-0.00827638
-0.00842866
-0.00855135
-0.00864812
-0.00872271
-0.0087787
-0.00881929
-0.00884713
-0.00886418
-0.00887152
-0.00886924
-0.00885684
-0.00883329
-0.00879047
-0.0087109
-0.00618812
-0.0056714
-0.00517795
-0.00471976
-0.00430817
-0.00395348
-0.00366462
-0.00344873
-0.00331085
-0.00325367
-0.00327737
-0.00337956
-0.00355535
-0.00379754
-0.00409699
-0.00444298
-0.00482379
-0.00522722
-0.0056412
-0.00605427
-0.00645614
-0.00683798
-0.00719273
-0.00751522
-0.00780215
-0.00805204
-0.00826501
-0.00844247
-0.00858712
-0.00870207
-0.00879109
-0.00885805
-0.00890673
-0.00894054
-0.00896236
-0.00897437
-0.00897784
-0.00897304
-0.00895955
-0.00893639
-0.008896
-0.00882221
-0.00782717
-0.00726011
-0.00670781
-0.00618268
-0.00569678
-0.00526138
-0.00488655
-0.00458083
-0.00435079
-0.00420078
-0.00413267
-0.00414572
-0.00423658
-0.00439941
-0.00462611
-0.00490676
-0.00523005
-0.0055839
-0.00595601
-0.00633445
-0.0067082
-0.00706761
-0.00740468
-0.0077133
-0.0079893
-0.00823038
-0.008436
-0.00860711
-0.00874571
-0.00885497
-0.00893846
-0.00900002
-0.00904351
-0.0090725
-0.00909005
-0.00909854
-0.00909947
-0.00909331
-0.00907979
-0.00905808
-0.00902141
-0.0089554
-0.00982177
-0.00919916
-0.00858089
-0.00797976
-0.00740841
-0.00687899
-0.00640278
-0.00598977
-0.00564826
-0.0053845
-0.00520238
-0.00510324
-0.00508572
-0.00514581
-0.005277
-0.00547061
-0.0057162
-0.00600213
-0.00631613
-0.00664597
-0.00697998
-0.00730763
-0.0076199
-0.00790955
-0.00817131
-0.00840185
-0.00859965
-0.00876487
-0.00889896
-0.00900449
-0.00908474
-0.00914338
-0.00918419
-0.00921076
-0.00922628
-0.00923326
-0.0092334
-0.00922737
-0.00921511
-0.00919596
-0.00916409
-0.00910715
-0.0121901
-0.0115092
-0.0108205
-0.0101369
-0.00947153
-0.00883722
-0.00824635
-0.00771036
-0.00723932
-0.00684156
-0.00652328
-0.00628825
-0.00613757
-0.00606961
-0.00608001
-0.00616193
-0.00630635
-0.00650256
-0.00673874
-0.00700261
-0.00728204
-0.00756566
-0.00784337
-0.00810667
-0.00834899
-0.00856567
-0.008754
-0.00891303
-0.00904333
-0.0091467
-0.00922584
-0.00928403
-0.00932479
-0.00935161
-0.00936762
-0.00937543
-0.00937683
-0.00937269
-0.00936313
-0.00934764
-0.00932141
-0.00927415
-0.0149357
-0.0141968
-0.0134365
-0.0126677
-0.0119034
-0.0111571
-0.010442
-0.00977065
-0.00915498
-0.00860538
-0.00813048
-0.00773678
-0.00742828
-0.00720622
-0.00706905
-0.00701242
-0.0070294
-0.00711089
-0.00724607
-0.00742307
-0.00762961
-0.00785367
-0.00808409
-0.00831104
-0.00852643
-0.00872407
-0.00889973
-0.00905107
-0.00917741
-0.00927952
-0.00935926
-0.00941924
-0.00946252
-0.00949227
-0.00951144
-0.00952257
-0.00952747
-0.00952711
-0.00952173
-0.00951099
-0.00949099
-0.00945346
-0.0180445
-0.0172514
-0.0164224
-0.0155699
-0.0147066
-0.0138461
-0.013002
-0.012188
-0.0114173
-0.0107022
-0.0100539
-0.00948164
-0.00899258
-0.00859135
-0.00827975
-0.00805667
-0.00791806
-0.0078572
-0.00786506
-0.00793083
-0.00804261
-0.00818807
-0.00835516
-0.00853276
-0.00871113
-0.00888231
-0.00904026
-0.0091809
-0.00930198
-0.00940287
-0.00948426
-0.00954785
-0.00959594
-0.00963118
-0.00965608
-0.00967304
-0.0096837
-0.00968904
-0.00968934
-0.00968434
-0.00967097
-0.00964276
-0.0214847
-0.0206444
-0.0197536
-0.0188234
-0.0178661
-0.0168948
-0.0159232
-0.0149653
-0.0140354
-0.0131473
-0.0123143
-0.0115485
-0.0108603
-0.0102578
-0.00974684
-0.00933008
-0.00900723
-0.00877486
-0.00862666
-0.00855378
-0.00854546
-0.00858964
-0.00867383
-0.00878573
-0.008914
-0.0090487
-0.00918172
-0.00930688
-0.00941996
-0.00951856
-0.00960185
-0.00967023
-0.00972496
-0.00976789
-0.00980099
-0.00982612
-0.00984472
-0.0098576
-0.009865
-0.00986666
-0.00986015
-0.00984056
-0.0252072
-0.0243298
-0.0233874
-0.0223901
-0.0213488
-0.020276
-0.0191845
-0.0180885
-0.0170024
-0.0159411
-0.0149196
-0.0139522
-0.0130524
-0.012232
-0.0115008
-0.010866
-0.0103317
-0.00989871
-0.00956453
-0.00932335
-0.00916658
-0.00908337
-0.00906138
-0.00908765
-0.00914935
-0.00923459
-0.0093329
-0.00943569
-0.00953635
-0.00963027
-0.00971463
-0.00978817
-0.00985081
-0.00990323
-0.00994655
-0.00998199
-0.0100105
-0.0100327
-0.0100485
-0.0100576
-0.0100581
-0.0100462
-0.02915
-0.0282474
-0.0272664
-0.0262157
-0.0251048
-0.0239446
-0.0227471
-0.0215254
-0.0202937
-0.0190672
-0.0178616
-0.016693
-0.0155773
-0.0145298
-0.0135641
-0.0126921
-0.0119229
-0.0112625
-0.0107131
-0.0102731
-0.00993754
-0.00969786
-0.00954296
-0.00945993
-0.00943498
-0.00945437
-0.00950526
-0.0095763
-0.00965809
-0.00974331
-0.00982672
-0.00990488
-0.0099759
-0.010039
-0.0100942
-0.0101417
-0.0101819
-0.0102149
-0.0102403
-0.0102576
-0.0102652
-0.0102602
-0.0332426
-0.0323273
-0.0313222
-0.0302341
-0.0290708
-0.0278415
-0.0265565
-0.0252275
-0.0238677
-0.0224916
-0.021115
-0.0197546
-0.0184282
-0.0171534
-0.0159476
-0.014827
-0.0138059
-0.0128958
-0.0121047
-0.0114368
-0.0108915
-0.0104644
-0.010147
-0.00992748
-0.00979201
-0.00972553
-0.00971289
-0.00973991
-0.00979398
-0.00986459
-0.00994349
-0.0100246
-0.0101036
-0.010178
-0.0102461
-0.0103071
-0.0103604
-0.0104055
-0.0104415
-0.0104676
-0.0104824
-0.0104835
-0.0374124
-0.0364968
-0.0354819
-0.0343729
-0.0331758
-0.0318977
-0.0305469
-0.0291333
-0.0276682
-0.0261647
-0.0246378
-0.0231039
-0.0215812
-0.0200891
-0.0186475
-0.0172764
-0.015995
-0.0148203
-0.0137669
-0.0128452
-0.0120611
-0.0114155
-0.0109041
-0.0105181
-0.0102447
-0.0100685
-0.00997259
-0.00993997
-0.00995465
-0.0100025
-0.0100715
-0.0101525
-0.0102382
-0.0103236
-0.0104052
-0.0104806
-0.0105482
-0.0106063
-0.0106539
-0.0106895
-0.0107117
-0.0107183
-0.0415906
-0.0406855
-0.039674
-0.0385598
-0.037347
-0.0360406
-0.0346468
-0.0331731
-0.0316288
-0.0300249
-0.0283743
-0.0266924
-0.0249967
-0.0233068
-0.0216441
-0.0200313
-0.0184914
-0.0170469
-0.0157185
-0.0145237
-0.0134757
-0.0125825
-0.0118458
-0.0112616
-0.01082
-0.0105066
-0.0103038
-0.0101922
-0.0101526
-0.0101667
-0.0102185
-0.0102946
-0.0103844
-0.0104797
-0.0105748
-0.0106651
-0.0107476
-0.0108199
-0.0108797
-0.0109254
-0.0109552
-0.0109672
-0.0457169
-0.0448309
-0.0438339
-0.042728
-0.0415157
-0.0402001
-0.0387852
-0.0372761
-0.0356795
-0.034004
-0.03226
-0.0304606
-0.0286217
-0.0267617
-0.0249021
-0.0230668
-0.0212814
-0.0195726
-0.0179667
-0.0164882
-0.0151583
-0.013993
-0.013002
-0.012188
-0.0115462
-0.0110652
-0.0107283
-0.0105147
-0.0104023
-0.0103686
-0.0103931
-0.0104578
-0.0105476
-0.0106509
-0.0107585
-0.0108638
-0.0109618
-0.0110487
-0.0111216
-0.011178
-0.0112158
-0.0112334
-0.0497426
-0.0488819
-0.0479077
-0.0468209
-0.0456225
-0.0443139
-0.0428971
-0.041375
-0.0397518
-0.0380331
-0.0362266
-0.0343426
-0.0323941
-0.0303976
-0.0283729
-0.0263434
-0.0243359
-0.0223795
-0.020505
-0.018743
-0.0171224
-0.015668
-0.0143987
-0.0133257
-0.012452
-0.0117714
-0.01127
-0.0109276
-0.01072
-0.010621
-0.0106053
-0.0106496
-0.0107338
-0.0108416
-0.0109603
-0.01108
-0.0111936
-0.0112958
-0.0113823
-0.0114502
-0.0114967
-0.0115203
-0.0536323
-0.0528004
-0.0518545
-0.0507942
-0.0496196
-0.0483307
-0.0469277
-0.0454115
-0.043784
-0.042048
-0.0402083
-0.038272
-0.0362487
-0.0341519
-0.0319985
-0.0298101
-0.0276125
-0.0254356
-0.0233126
-0.0212788
-0.0193698
-0.0176189
-0.0160549
-0.0146992
-0.0135642
-0.0126519
-0.0119539
-0.0114528
-0.0111239
-0.0109384
-0.0108662
-0.0108785
-0.0109493
-0.011057
-0.0111841
-0.0113172
-0.0114464
-0.0115641
-0.011665
-0.0117449
-0.011801
-0.0118317
-0.0573629
-0.0565614
-0.0556464
-0.0546172
-0.0534728
-0.0522123
-0.0508345
-0.0493389
-0.047725
-0.0459935
-0.0441462
-0.0421869
-0.0401219
-0.0379607
-0.0357169
-0.0334085
-0.0310587
-0.0286964
-0.0263549
-0.0240723
-0.021889
-0.0198456
-0.0179804
-0.0163259
-0.0149055
-0.0137319
-0.0128052
-0.0121133
-0.0116339
-0.0113369
-0.0111884
-0.0111539
-0.0112012
-0.0113023
-0.0114343
-0.011579
-0.0117232
-0.0118567
-0.0119726
-0.0120656
-0.012132
-0.012171
-0.0609228
-0.0601512
-0.0592676
-0.0582711
-0.0571602
-0.0559332
-0.0545882
-0.0531231
-0.0515361
-0.0498257
-0.0479915
-0.0460341
-0.0439565
-0.0417642
-0.0394666
-0.0370776
-0.0346165
-0.032109
-0.0295867
-0.0270878
-0.0246552
-0.0223351
-0.0201737
-0.0182142
-0.0164922
-0.0150327
-0.0138472
-0.0129323
-0.0122708
-0.011834
-0.0115857
-0.0114864
-0.0114973
-0.0115834
-0.0117152
-0.0118691
-0.0120272
-0.0121767
-0.0123083
-0.0124151
-0.0124933
-0.012542
-0.0643092
-0.0635656
-0.0627124
-0.0617481
-0.0606713
-0.0594798
-0.0581711
-0.0567424
-0.0551908
-0.0535133
-0.0517074
-0.0497713
-0.0477049
-0.0455099
-0.0431915
-0.040759
-0.0382269
-0.0356162
-0.0329552
-0.0302795
-0.0276321
-0.0250618
-0.022621
-0.0203618
-0.0183318
-0.0165695
-0.0150998
-0.0139314
-0.0130557
-0.0124485
-0.0120737
-0.0118881
-0.0118466
-0.0119069
-0.0120317
-0.0121911
-0.0123619
-0.0125272
-0.012675
-0.0127968
-0.0128879
-0.0129482
-0.0675257
-0.0668076
-0.0659822
-0.0650483
-0.0640042
-0.0628477
-0.0615761
-0.0601862
-0.0586743
-0.0570365
-0.055269
-0.0533679
-0.0513304
-0.0491554
-0.0468438
-0.0444002
-0.0418343
-0.0391614
-0.0364047
-0.0335955
-0.0307743
-0.0279896
-0.0252968
-0.0227549
-0.0204219
-0.0183495
-0.0165776
-0.0151293
-0.0140085
-0.0131992
-0.0126685
-0.0123719
-0.012259
-0.0122799
-0.0123893
-0.0125493
-0.0127305
-0.0129111
-0.0130758
-0.0132136
-0.0133191
-0.013393
-0.0705801
-0.0698844
-0.0690838
-0.0681772
-0.0671632
-0.0660395
-0.0648035
-0.0634519
-0.0619808
-0.0603857
-0.0586619
-0.0568042
-0.0548079
-0.0526692
-0.0503857
-0.0479578
-0.0453899
-0.0426919
-0.0398807
-0.036982
-0.0340312
-0.0310739
-0.0281656
-0.0253687
-0.0227491
-0.0203704
-0.0182875
-0.01654
-0.0151469
-0.0141044
-0.0133872
-0.0129521
-0.0127457
-0.0127109
-0.0127939
-0.0129482
-0.0131367
-0.0133318
-0.0135136
-0.0136686
-0.01379
-0.0138794
-0.0734823
-0.0728059
-0.0720268
-0.0711442
-0.0701568
-0.0690626
-0.0678593
-0.0665437
-0.0651119
-0.0635593
-0.0618807
-0.0600703
-0.0581222
-0.0560305
-0.0537902
-0.0513981
-0.048854
-0.0461622
-0.0433335
-0.0403866
-0.0373507
-0.0342659
-0.0311844
-0.0281689
-0.0252898
-0.0226201
-0.0202283
-0.0181707
-0.0164841
-0.0151806
-0.0142462
-0.0136435
-0.0133186
-0.0132091
-0.0132525
-0.0133929
-0.0135845
-0.0137925
-0.0139917
-0.0141647
-0.0143036
-0.0144107
-0.075583
-0.0748222
-0.07396
-0.0729955
-0.0719271
-0.0707527
-0.0694694
-0.0680737
-0.0665613
-0.0649267
-0.0631642
-0.0612668
-0.0592277
-0.0570399
)
;

boundaryField
{
    movingWall
    {
        type            zeroGradient;
    }
    fixedWalls
    {
        type            zeroGradient;
    }
    frontAndBack
    {
        type            empty;
    }
    procBoundary7to1
    {
        type            processor;
        value           nonuniform List<scalar> 
33
(
-0.000132308
-0.000424869
-0.000630048
-0.000835224
-0.00110149
-0.00146714
-0.00197121
-0.00301074
-0.00265408
-0.00265408
-0.0048751
-0.00440179
-0.00440179
-0.00671591
-0.00839649
-0.0104362
-0.0128509
-0.0156413
-0.0187906
-0.022264
-0.0260106
-0.0299669
-0.0340621
-0.0382245
-0.0423867
-0.0464904
-0.0504893
-0.05435
-0.0580515
-0.0615834
-0.064944
-0.0681373
-0.0711715
)
;
    }
    procBoundary7to6
    {
        type            processor;
        value           nonuniform List<scalar> 
45
(
-0.0740566
-0.0762432
-0.0546974
-0.0521962
-0.0495356
-0.0467203
-0.0437622
-0.0406828
-0.0375153
-0.0343059
-0.0311144
-0.0280118
-0.0250768
-0.0223893
-0.0200212
-0.018028
-0.0164405
-0.0152605
-0.0144608
-0.0139906
-0.0137845
-0.0137726
-0.0138891
-0.0140782
-0.0142967
-0.014513
-0.014705
-0.0148628
-0.0149897
-0.0762432
-0.0782264
-0.0774807
-0.0766356
-0.0756903
-0.0746438
-0.0734942
-0.0722391
-0.0708756
-0.0693995
-0.0678059
-0.0660889
-0.0642417
-0.0622568
-0.0546974
-0.0601259
)
;
    }
}


// ************************************************************************* //
