/*--------------------------------*- C++ -*----------------------------------*\
  =========                 |
  \\      /  F ield         | OpenFOAM: The Open Source CFD Toolbox
   \\    /   O peration     | Website:  https://openfoam.org
    \\  /    A nd           | Version:  9
     \\/     M anipulation  |
\*---------------------------------------------------------------------------*/
FoamFile
{
    format      ascii;
    class       volVectorField;
    location    "3.5";
    object      U;
}
// * * * * * * * * * * * * * * * * * * * * * * * * * * * * * * * * * * * * * //

dimensions      [0 1 -1 0 0 0 0];

internalField   nonuniform List<vector> 
1240
(
(-0.011421 -0.000458682 0)
(-0.00986177 -0.000479834 0)
(-0.00825315 -0.000492496 0)
(-0.00662032 -0.000496229 0)
(-0.00498926 -0.000490868 0)
(-0.00338601 -0.000476542 0)
(-0.0018359 -0.00045368 0)
(-0.000362806 -0.000423026 0)
(0.00101137 -0.000385617 0)
(0.00226764 -0.000342507 0)
(0.00339048 -0.00029519 0)
(0.004368 -0.000245128 0)
(0.00519234 -0.000193844 0)
(0.0058598 -0.000142796 0)
(0.00637067 -9.33451e-05 0)
(0.00672899 -4.66972e-05 0)
(0.00694219 -3.84029e-06 0)
(0.00702051 3.44749e-05 0)
(0.00697648 6.77451e-05 0)
(0.00682416 9.57237e-05 0)
(0.00657858 0.000118394 0)
(0.00625506 0.000135938 0)
(0.00586865 0.000148715 0)
(0.00543362 0.000157217 0)
(0.00496312 0.000162025 0)
(0.00446886 0.000163766 0)
(0.00396101 0.000163062 0)
(0.00344821 0.000160472 0)
(0.00293783 0.000156424 0)
(0.00243639 0.000151122 0)
(0.00195025 0.000144439 0)
(0.00148663 0.000135769 0)
(0.00105486 0.00012386 0)
(0.000667973 0.000106694 0)
(0.000343788 8.16468e-05 0)
(0.000104123 4.6428e-05 0)
(-2.6305e-05 2.60339e-06 0)
(-3.04704e-05 -3.07253e-05 0)
(-0.032438 -0.00289529 0)
(-0.0284977 -0.00300996 0)
(-0.0244453 -0.00307919 0)
(-0.0203361 -0.00310095 0)
(-0.0162272 -0.00307447 0)
(-0.0121758 -0.00300024 0)
(-0.00823817 -0.00288012 0)
(-0.00446785 -0.00271735 0)
(-0.000914627 -0.00251642 0)
(0.00237684 -0.00228273 0)
(0.00536843 -0.00202274 0)
(0.00802937 -0.00174354 0)
(0.0103369 -0.00145273 0)
(0.0122769 -0.0011577 0)
(0.0138437 -0.00086569 0)
(0.0150402 -0.000583401 0)
(0.0158771 -0.000316722 0)
(0.0163721 -7.05426e-05 0)
(0.0165491 0.000151368 0)
(0.0164367 0.000346438 0)
(0.0160668 0.000513335 0)
(0.0154736 0.000651778 0)
(0.014692 0.000762533 0)
(0.0137563 0.000847212 0)
(0.0126996 0.000908059 0)
(0.0115526 0.000947715 0)
(0.0103433 0.000968925 0)
(0.00909708 0.000974217 0)
(0.00783671 0.000965521 0)
(0.00658348 0.000943739 0)
(0.00535838 0.000908273 0)
(0.00418382 0.00085656 0)
(0.00308577 0.000783722 0)
(0.00209572 0.000682689 0)
(0.00125116 0.000545602 0)
(0.000592391 0.000367694 0)
(0.000161451 0.000157606 0)
(4.19521e-06 -2.60588e-05 0)
(-0.0523863 -0.00776265 0)
(-0.0466692 -0.00804624 0)
(-0.0407974 -0.00821959 0)
(-0.0348421 -0.00827818 0)
(-0.0288766 -0.00822007 0)
(-0.0229748 -0.00804611 0)
(-0.01721 -0.00776006 0)
(-0.011653 -0.00736859 0)
(-0.00637053 -0.00688119 0)
(-0.00142386 -0.00630991 0)
(0.00313287 -0.00566886 0)
(0.00725366 -0.00497373 0)
(0.0109023 -0.00424215 0)
(0.0140529 -0.00349142 0)
(0.0166902 -0.0027389 0)
(0.0188097 -0.00200123 0)
(0.0204177 -0.00129356 0)
(0.0215303 -0.000629057 0)
(0.0221728 -1.8526e-05 0)
(0.0223779 0.000529849 0)
(0.0221846 0.00101076 0)
(0.0216362 0.0014215 0)
(0.0207788 0.00176197 0)
(0.0196598 0.00203434 0)
(0.018326 0.00224255 0)
(0.0168226 0.00239176 0)
(0.0151926 0.00248768 0)
(0.0134759 0.00253571 0)
(0.0117101 0.00254007 0)
(0.00993058 0.00250279 0)
(0.00817252 0.00242273 0)
(0.00647217 0.0022948 0)
(0.0048691 0.0021096 0)
(0.00340803 0.00185437 0)
(0.00213856 0.00151636 0)
(0.00111086 0.00109018 0)
(0.00038312 0.000592933 0)
(5.13262e-05 0.000109994 0)
(-0.0721242 -0.0141407 0)
(-0.0651069 -0.0146352 0)
(-0.0578977 -0.0149445 0)
(-0.0505744 -0.0150611 0)
(-0.0432174 -0.0149814 0)
(-0.0359086 -0.014706 0)
(-0.0287297 -0.01424 0)
(-0.0217611 -0.0135931 0)
(-0.0150799 -0.0127792 0)
(-0.00875844 -0.0118168 0)
(-0.00286217 -0.0107278 0)
(0.0025504 -0.0095372 0)
(0.00743085 -0.00827236 0)
(0.0117419 -0.00696199 0)
(0.0154565 -0.00563498 0)
(0.0185599 -0.00431978 0)
(0.0210495 -0.00304281 0)
(0.0229341 -0.00182791 0)
(0.0242338 -0.000695497 0)
(0.0249785 0.000338057 0)
(0.0252067 0.00126063 0)
(0.0249637 0.00206492 0)
(0.0243001 0.00274783 0)
(0.0232697 0.00331023 0)
(0.0219278 0.00375635 0)
(0.0203299 0.00409288 0)
(0.0185301 0.00432783 0)
(0.0165806 0.00446916 0)
(0.0145315 0.00452333 0)
(0.012431 0.00449367 0)
(0.010327 0.00437885 0)
(0.00826767 0.0041718 0)
(0.00630409 0.00385938 0)
(0.00449154 0.00342396 0)
(0.00288936 0.00284806 0)
(0.00155727 0.00212339 0)
(0.000573745 0.00126729 0)
(9.06875e-05 0.000363859 0)
(-0.0924225 -0.0215634 0)
(-0.0844633 -0.0223065 0)
(-0.0762701 -0.022787 0)
(-0.0679219 -0.0229941 0)
(-0.0595012 -0.0229215 0)
(-0.0510931 -0.0225687 0)
(-0.0427836 -0.0219411 0)
(-0.0346588 -0.02105 0)
(-0.0268024 -0.0199131 0)
(-0.0192949 -0.0185536 0)
(-0.012211 -0.0170005 0)
(-0.00561925 -0.0152874 0)
(0.000421073 -0.0134508 0)
(0.00586076 -0.0115306 0)
(0.0106612 -0.00956729 0)
(0.0147959 -0.00760178 0)
(0.0182514 -0.0056727 0)
(0.0210262 -0.00381598 0)
(0.0231316 -0.0020634 0)
(0.0245901 -0.000441622 0)
(0.025435 0.00102835 0)
(0.0257087 0.00233196 0)
(0.0254611 0.0034608 0)
(0.0247474 0.00441213 0)
(0.0236271 0.0051884 0)
(0.0221613 0.00579602 0)
(0.0204121 0.00624386 0)
(0.0184408 0.00654146 0)
(0.0163077 0.00669687 0)
(0.014072 0.00671457 0)
(0.0117922 0.00659332 0)
(0.00952738 0.00632471 0)
(0.00733846 0.00589274 0)
(0.00529034 0.00527542 0)
(0.00345188 0.0044496 0)
(0.00189361 0.00339984 0)
(0.000715133 0.0021329 0)
(0.000118448 0.000708937 0)
(-0.113821 -0.0297521 0)
(-0.105178 -0.0307896 0)
(-0.0962477 -0.0314883 0)
(-0.0871087 -0.0318326 0)
(-0.0778429 -0.031813 0)
(-0.0685366 -0.0314263 0)
(-0.0592784 -0.0306769 0)
(-0.0501581 -0.0295766 0)
(-0.0412649 -0.0281451 0)
(-0.0326862 -0.0264095 0)
(-0.024505 -0.0244043 0)
(-0.0167989 -0.0221701 0)
(-0.00963771 -0.0197528 0)
(-0.00308163 -0.0172021 0)
(0.00281868 -0.0145704 0)
(0.00802499 -0.0119103 0)
(0.0125122 -0.00927356 0)
(0.0162675 -0.00670886 0)
(0.0192914 -0.00426056 0)
(0.0215971 -0.00196715 0)
(0.0232101 0.000139849 0)
(0.0241666 0.00203628 0)
(0.0245122 0.0037062 0)
(0.0243003 0.00514098 0)
(0.0235907 0.006339 0)
(0.0224472 0.00730429 0)
(0.0209361 0.00804478 0)
(0.0191253 0.00857005 0)
(0.0170828 0.00888879 0)
(0.0148764 0.00900603 0)
(0.0125739 0.00892055 0)
(0.0102436 0.00862289 0)
(0.00795569 0.00809449 0)
(0.00578417 0.00730889 0)
(0.00380765 0.00623573 0)
(0.00210803 0.00484816 0)
(0.000803895 0.003134 0)
(0.000134959 0.00111646 0)
(-0.136555 -0.0384914 0)
(-0.127412 -0.0398804 0)
(-0.117917 -0.040857 0)
(-0.108145 -0.0413999 0)
(-0.0981789 -0.0414945 0)
(-0.0881038 -0.0411341 0)
(-0.0780104 -0.0403202 0)
(-0.0679919 -0.0390637 0)
(-0.0581429 -0.0373848 0)
(-0.0485572 -0.0353129 0)
(-0.039326 -0.0328868 0)
(-0.0305362 -0.0301533 0)
(-0.0222678 -0.0271661 0)
(-0.0145926 -0.0239847 0)
(-0.00757244 -0.0206725 0)
(-0.00125755 -0.0172939 0)
(0.0043147 -0.0139137 0)
(0.00912001 -0.0105941 0)
(0.0131478 -0.00739249 0)
(0.0164012 -0.00436044 0)
(0.0188964 -0.00154157 0)
(0.020662 0.00102906 0)
(0.0217377 0.00332547 0)
(0.0221727 0.00533142 0)
(0.0220244 0.00703905 0)
(0.0213568 0.00844784 0)
(0.0202383 0.00956276 0)
(0.0187404 0.0103918 0)
(0.0169366 0.0109428 0)
(0.0149016 0.0112205 0)
(0.0127106 0.0112232 0)
(0.0104402 0.0109401 0)
(0.00816889 0.01035 0)
(0.00597946 0.00942148 0)
(0.00396007 0.00811542 0)
(0.00220346 0.00639053 0)
(0.000843037 0.00421095 0)
(0.000141676 0.00155778 0)
(-0.160564 -0.0476211 0)
(-0.15106 -0.0494296 0)
(-0.141129 -0.0507557 0)
(-0.130843 -0.0515712 0)
(-0.120281 -0.0518551 0)
(-0.109529 -0.0515952 0)
(-0.0986795 -0.0507887 0)
(-0.0878276 -0.0494435 0)
(-0.0770735 -0.0475787 0)
(-0.0665178 -0.0452248 0)
(-0.0562603 -0.0424231 0)
(-0.0463975 -0.0392256 0)
(-0.0370206 -0.0356931 0)
(-0.0282131 -0.0318939 0)
(-0.0200489 -0.0279019 0)
(-0.0125906 -0.023794 0)
(-0.00588788 -0.0196477 0)
(2.3191e-05 -0.0155389 0)
(0.00512083 -0.0115391 0)
(0.00939771 -0.00771364 0)
(0.0128606 -0.0041194 0)
(0.0155298 -0.000803782 0)
(0.0174382 0.002196 0)
(0.0186301 0.0048539 0)
(0.0191592 0.00715399 0)
(0.0190877 0.00908922 0)
(0.0184842 0.0106597 0)
(0.0174221 0.01187 0)
(0.0159788 0.0127257 0)
(0.0142338 0.01323 0)
(0.0122686 0.0133798 0)
(0.0101667 0.0131624 0)
(0.00801418 0.0125536 0)
(0.0059021 0.0115161 0)
(0.00392724 0.0100013 0)
(0.00219169 0.00795205 0)
(0.000838729 0.00530749 0)
(0.000140325 0.0020073 0)
(-0.203291 -0.0509374 0)
(-0.194728 -0.0542039 0)
(-0.185551 -0.0570129 0)
(-0.175809 -0.0593172 0)
(-0.165558 -0.0610742 0)
(-0.154865 -0.0622473 0)
(-0.143805 -0.0628074 0)
(-0.132461 -0.0627348 0)
(-0.120927 -0.0620204 0)
(-0.1093 -0.0606674 0)
(-0.0976848 -0.0586917 0)
(-0.0861896 -0.0561226 0)
(-0.0749228 -0.053003 0)
(-0.0639916 -0.0493883 0)
(-0.0534991 -0.0453454 0)
(-0.0435418 -0.040951 0)
(-0.034207 -0.0362894 0)
(-0.0255706 -0.0314495 0)
(-0.0176956 -0.0265222 0)
(-0.0106305 -0.0215978 0)
(-0.00440879 -0.0167625 0)
(0.000951583 -0.0120964 0)
(0.00544793 -0.00767069 0)
(0.00909225 -0.00354652 0)
(0.0119105 0.000226742 0)
(0.0139416 0.00361139 0)
(0.015235 0.00658181 0)
(0.0158506 0.00912272 0)
(0.015856 0.0112277 0)
(0.0153256 0.0128961 0)
(0.014339 0.0141298 0)
(0.0129795 0.0149291 0)
(0.0113337 0.0152884 0)
(0.00949091 0.0151925 0)
(0.00754403 0.014613 0)
(0.00559119 0.0135069 0)
(0.00373663 0.0118156 0)
(0.00208973 0.00946628 0)
(0.000798755 0.00637461 0)
(0.000132676 0.00244365 0)
(-0.243685 -0.0500566 0)
(-0.236604 -0.0548066 0)
(-0.22879 -0.0591769 0)
(-0.220265 -0.0631085 0)
(-0.211058 -0.0665431 0)
(-0.201209 -0.0694247 0)
(-0.190765 -0.0717009 0)
(-0.179784 -0.0733253 0)
(-0.168336 -0.0742588 0)
(-0.156501 -0.0744724 0)
(-0.144369 -0.0739484 0)
(-0.13204 -0.0726825 0)
(-0.119622 -0.0706852 0)
(-0.107229 -0.0679824 0)
(-0.0949778 -0.064616 0)
(-0.0829884 -0.0606435 0)
(-0.0713765 -0.0561365 0)
(-0.0602533 -0.0511794 0)
(-0.0497212 -0.0458663 0)
(-0.0398718 -0.0402986 0)
(-0.0307829 -0.0345812 0)
(-0.0225173 -0.0288194 0)
(-0.0151213 -0.0231154 0)
(-0.00862435 -0.0175652 0)
(-0.00303902 -0.0122557 0)
(0.00163835 -0.00726303 0)
(0.00542686 -0.00265044 0)
(0.0083599 0.0015318 0)
(0.0104833 0.00524651 0)
(0.0118541 0.00846904 0)
(0.012539 0.0111848 0)
(0.0126128 0.0133866 0)
(0.0121565 0.015071 0)
(0.0112566 0.0162342 0)
(0.0100036 0.0168669 0)
(0.0084922 0.0169504 0)
(0.00682087 0.0164519 0)
(0.00509383 0.0153222 0)
(0.00342119 0.0134932 0)
(0.00191752 0.0108781 0)
(0.000731709 0.00737249 0)
(0.000120499 0.00285009 0)
(-0.26836 -0.0566577 0)
(-0.26155 -0.0621676 0)
(-0.253967 -0.0672846 0)
(-0.245622 -0.0719426 0)
(-0.236533 -0.0760748 0)
(-0.226727 -0.0796159 0)
(-0.216239 -0.0825032 0)
(-0.205118 -0.0846788 0)
(-0.193423 -0.0860922 0)
(-0.181228 -0.0867026 0)
(-0.168617 -0.086481 0)
(-0.155689 -0.0854129 0)
(-0.142554 -0.0835003 0)
(-0.129329 -0.0807626 0)
(-0.116142 -0.0772381 0)
(-0.103122 -0.0729837 0)
(-0.0904001 -0.0680739 0)
(-0.0781032 -0.0625992 0)
(-0.0663518 -0.0566635 0)
(-0.0552555 -0.0503802 0)
(-0.0449103 -0.0438693 0)
(-0.0353957 -0.0372523 0)
(-0.0267734 -0.0306488 0)
(-0.0190862 -0.0241725 0)
(-0.0123578 -0.017928 0)
(-0.00659374 -0.0120077 0)
(-0.00178186 -0.00649085 0)
(0.00210567 -0.00144161 0)
(0.00511138 0.00309011 0)
(0.00729034 0.00706862 0)
(0.0087083 0.0104699 0)
(0.00944038 0.013279 0)
(0.00956935 0.0154859 0)
(0.00918428 0.0170814 0)
(0.00837952 0.0180519 0)
(0.00725399 0.018374 0)
(0.00591128 0.0180104 0)
(0.0044605 0.0169056 0)
(0.00301616 0.0149834 0)
(0.00169601 0.0121452 0)
(0.000646402 0.00827141 0)
(0.000105517 0.00321472 0)
(-0.2918 -0.0629155 0)
(-0.285389 -0.0692133 0)
(-0.27818 -0.0751169 0)
(-0.270171 -0.0805536 0)
(-0.261365 -0.0854491 0)
(-0.251775 -0.0897284 0)
(-0.241422 -0.0933179 0)
(-0.23034 -0.0961477 0)
(-0.218577 -0.098154 0)
(-0.206192 -0.0992819 0)
(-0.193264 -0.0994886 0)
(-0.179883 -0.098746 0)
(-0.166158 -0.0970437 0)
(-0.152209 -0.0943911 0)
(-0.138168 -0.090819 0)
(-0.124176 -0.0863803 0)
(-0.110377 -0.0811493 0)
(-0.0969174 -0.0752207 0)
(-0.0839368 -0.0687065 0)
(-0.0715663 -0.0617323 0)
(-0.0599237 -0.0544332 0)
(-0.0491093 -0.0469487 0)
(-0.039204 -0.0394177 0)
(-0.0302672 -0.031974 0)
(-0.0223366 -0.0247421 0)
(-0.0154285 -0.0178336 0)
(-0.00953899 -0.0113454 0)
(-0.0046457 -0.00535796 0)
(-0.000709588 6.48288e-05 0)
(0.00232277 0.00487451 0)
(0.00451708 0.00903644 0)
(0.00594947 0.0125266 0)
(0.0067048 0.0153276 0)
(0.00687507 0.017424 0)
(0.00655826 0.0187968 0)
(0.00585749 0.0194178 0)
(0.00488069 0.0192448 0)
(0.00374105 0.0182167 0)
(0.00255623 0.0162504 0)
(0.00144573 0.0132389 0)
(0.0005513 0.00905199 0)
(8.93364e-05 0.00353035 0)
(-0.313334 -0.0687076 0)
(-0.307451 -0.075805 0)
(-0.300762 -0.0825195 0)
(-0.293252 -0.0887735 0)
(-0.284909 -0.0944859 0)
(-0.275728 -0.0995728 0)
(-0.265715 -0.10395 0)
(-0.254884 -0.107535 0)
(-0.243266 -0.11025 0)
(-0.230906 -0.112023 0)
(-0.217867 -0.112795 0)
(-0.204228 -0.112522 0)
(-0.190091 -0.111176 0)
(-0.175574 -0.108752 0)
(-0.16081 -0.105269 0)
(-0.145947 -0.100771 0)
(-0.131145 -0.095327 0)
(-0.116564 -0.0890334 0)
(-0.102369 -0.0820075 0)
(-0.0887128 -0.0743858 0)
(-0.0757404 -0.0663185 0)
(-0.0635776 -0.0579643 0)
(-0.0523294 -0.0494835 0)
(-0.0420769 -0.0410329 0)
(-0.0328761 -0.0327602 0)
(-0.0247577 -0.0247996 0)
(-0.0177282 -0.0172687 0)
(-0.0117721 -0.010267 0)
(-0.00685452 -0.00387491 0)
(-0.00292331 0.0018448 0)
(8.77113e-05 0.00684541 0)
(0.00225661 0.0110928 0)
(0.00367115 0.0145613 0)
(0.00442696 0.0172284 0)
(0.0046261 0.0190694 0)
(0.004376 0.0200511 0)
(0.00378875 0.0201265 0)
(0.00298111 0.0192298 0)
(0.00207318 0.0172727 0)
(0.00118534 0.0141428 0)
(0.00045402 0.00970456 0)
(7.33692e-05 0.0037942 0)
(-0.332324 -0.0739176 0)
(-0.327086 -0.0818058 0)
(-0.321058 -0.0893358 0)
(-0.314209 -0.0964266 0)
(-0.306511 -0.102992 0)
(-0.297942 -0.108941 0)
(-0.288487 -0.114179 0)
(-0.278141 -0.118612 0)
(-0.266913 -0.122146 0)
(-0.254828 -0.124694 0)
(-0.241927 -0.126176 0)
(-0.228276 -0.126529 0)
(-0.213959 -0.125704 0)
(-0.199086 -0.123676 0)
(-0.183787 -0.120446 0)
(-0.168213 -0.116044 0)
(-0.15253 -0.110529 0)
(-0.136919 -0.103992 0)
(-0.12156 -0.096552 0)
(-0.106638 -0.0883536 0)
(-0.0923242 -0.0795611 0)
(-0.078776 -0.0703522 0)
(-0.0661287 -0.0609109 0)
(-0.0544915 -0.0514201 0)
(-0.0439448 -0.0420547 0)
(-0.0345388 -0.0329755 0)
(-0.0262952 -0.0243256 0)
(-0.0192082 -0.016227 0)
(-0.0132486 -0.00878015 0)
(-0.00836641 -0.00206456 0)
(-0.00449463 0.003859 0)
(-0.00155259 0.00894502 0)
(0.000551428 0.0131586 0)
(0.00191769 0.0164698 0)
(0.00265324 0.0188479 0)
(0.00287037 0.020255 0)
(0.00268563 0.0206396 0)
(0.00221934 0.0199323 0)
(0.00159393 0.0180414 0)
(0.000930599 0.0148522 0)
(0.000360914 0.010228 0)
(5.8766e-05 0.0040073 0)
(-0.348206 -0.0784439 0)
(-0.343713 -0.087092 0)
(-0.338466 -0.0954189 0)
(-0.332423 -0.103343 0)
(-0.325541 -0.110775 0)
(-0.317778 -0.117618 0)
(-0.309101 -0.123772 0)
(-0.29948 -0.129128 0)
(-0.288902 -0.133581 0)
(-0.277365 -0.137025 0)
(-0.264887 -0.139362 0)
(-0.251509 -0.140502 0)
(-0.237294 -0.140376 0)
(-0.222336 -0.138931 0)
(-0.206751 -0.136146 0)
(-0.190688 -0.132029 0)
(-0.174314 -0.12662 0)
(-0.15782 -0.120001 0)
(-0.141407 -0.112283 0)
(-0.125283 -0.103616 0)
(-0.109653 -0.0941739 0)
(-0.0947079 -0.0841526 0)
(-0.0806208 -0.0737606 0)
(-0.0675358 -0.0632097 0)
(-0.0555651 -0.0527062 0)
(-0.0447866 -0.042443 0)
(-0.0352428 -0.0325938 0)
(-0.0269434 -0.0233087 0)
(-0.019868 -0.0147127 0)
(-0.013971 -0.00690582 0)
(-0.00918534 3.42759e-05 0)
(-0.00542742 0.00604879 0)
(-0.00260079 0.0110924 0)
(-0.000599387 0.0151275 0)
(0.000690011 0.0181172 0)
(0.00138562 0.0200188 0)
(0.00160921 0.0207776 0)
(0.0014853 0.0203217 0)
(0.00113916 0.0185579 0)
(0.000693555 0.0153715 0)
(0.000276785 0.0106282 0)
(4.63721e-05 0.00417365 0)
(-0.360541 -0.0822115 0)
(-0.356859 -0.0915656 0)
(-0.352485 -0.100646 0)
(-0.347363 -0.109374 0)
(-0.341438 -0.11766 0)
(-0.334652 -0.125404 0)
(-0.326951 -0.1325 0)
(-0.318284 -0.138833 0)
(-0.30861 -0.144283 0)
(-0.297901 -0.148729 0)
(-0.286145 -0.152051 0)
(-0.273352 -0.154138 0)
(-0.25956 -0.154891 0)
(-0.244834 -0.15423 0)
(-0.229272 -0.152103 0)
(-0.213006 -0.148487 0)
(-0.196198 -0.1434 0)
(-0.17904 -0.1369 0)
(-0.161747 -0.129087 0)
(-0.144549 -0.120104 0)
(-0.127681 -0.110131 0)
(-0.111372 -0.0993776 0)
(-0.0958352 -0.0880762 0)
(-0.0812585 -0.0764689 0)
(-0.0677948 -0.0647972 0)
(-0.0555579 -0.0532916 0)
(-0.0446206 -0.0421632 0)
(-0.0350151 -0.0315968 0)
(-0.0267362 -0.0217483 0)
(-0.0197462 -0.0127438 0)
(-0.0139805 -0.00468178 0)
(-0.00935341 0.0023626 0)
(-0.00576339 0.00833204 0)
(-0.00309755 0.01318 0)
(-0.00123531 0.0168636 0)
(-5.11343e-05 0.0193361 0)
(0.000583372 0.0205401 0)
(0.000798111 0.0204026 0)
(0.000722441 0.0188306 0)
(0.000482113 0.0157115 0)
(0.00020473 0.0109159 0)
(3.67087e-05 0.00429938 0)
(-0.369054 -0.0851795 0)
(-0.366212 -0.0951648 0)
(-0.362759 -0.104933 0)
(-0.358631 -0.114409 0)
(-0.353763 -0.123506 0)
(-0.348083 -0.132127 0)
(-0.341519 -0.140162 0)
(-0.333999 -0.147492 0)
(-0.325457 -0.153988 0)
(-0.315836 -0.159514 0)
(-0.305092 -0.163932 0)
(-0.293203 -0.167108 0)
(-0.28017 -0.168913 0)
(-0.266026 -0.169236 0)
(-0.250838 -0.167988 0)
(-0.234711 -0.165114 0)
(-0.217792 -0.160594 0)
(-0.200262 -0.154456 0)
(-0.182339 -0.146776 0)
(-0.164268 -0.137682 0)
(-0.146309 -0.127348 0)
(-0.128727 -0.115993 0)
(-0.111781 -0.103868 0)
(-0.0957049 -0.0912437 0)
(-0.080702 -0.0784003 0)
(-0.0669324 -0.0656109 0)
(-0.0545094 -0.0531308 0)
(-0.0434978 -0.041188 0)
(-0.0339158 -0.0299772 0)
(-0.0257405 -0.0196579 0)
(-0.018914 -0.0103556 0)
(-0.0133508 -0.00216611 0)
(-0.0089452 0.00483821 0)
(-0.00557711 0.0106006 0)
(-0.00311729 0.0150715 0)
(-0.00143137 0.0182005 0)
(-0.000382622 0.0199287 0)
(0.000166024 0.0201829 0)
(0.000349899 0.0188721 0)
(0.000299886 0.0158871 0)
(0.000146113 0.0111047 0)
(2.99779e-05 0.00439179 0)
(-0.373664 -0.0873472 0)
(-0.371648 -0.0978717 0)
(-0.369118 -0.10824 0)
(-0.366007 -0.118383 0)
(-0.362242 -0.128223 0)
(-0.357741 -0.137665 0)
(-0.35242 -0.146603 0)
(-0.346188 -0.154915 0)
(-0.338956 -0.162468 0)
(-0.330641 -0.169116 0)
(-0.321168 -0.174707 0)
(-0.310476 -0.179083 0)
(-0.298531 -0.18209 0)
(-0.285324 -0.183583 0)
(-0.270882 -0.183436 0)
(-0.255276 -0.181549 0)
(-0.238619 -0.177862 0)
(-0.221073 -0.172361 0)
(-0.202844 -0.165087 0)
(-0.184179 -0.156137 0)
(-0.165354 -0.145671 0)
(-0.146667 -0.133903 0)
(-0.128415 -0.121094 0)
(-0.110887 -0.107542 0)
(-0.0943391 -0.0935636 0)
(-0.0789891 -0.079478 0)
(-0.065002 -0.065592 0)
(-0.0524869 -0.0521851 0)
(-0.041497 -0.039501 0)
(-0.0320332 -0.0277418 0)
(-0.0240512 -0.0170684 0)
(-0.0174705 -0.00760371 0)
(-0.0121836 0.000560116 0)
(-0.00806365 0.00735331 0)
(-0.00497223 0.0127186 0)
(-0.00276459 0.0166018 0)
(-0.00129377 0.018943 0)
(-0.000413322 0.0196704 0)
(2.04905e-05 0.0186956 0)
(0.000146373 0.0159141 0)
(0.000100664 0.0112091 0)
(2.60868e-05 0.00445843 0)
(-0.374488 -0.0887535 0)
(-0.373245 -0.0997136 0)
(-0.371595 -0.110579 0)
(-0.36947 -0.121291 0)
(-0.366797 -0.13178 0)
(-0.363488 -0.141959 0)
(-0.359449 -0.151728 0)
(-0.354579 -0.16097 0)
(-0.34877 -0.169551 0)
(-0.341916 -0.177322 0)
(-0.333911 -0.184118 0)
(-0.324663 -0.189766 0)
(-0.314095 -0.194088 0)
(-0.302156 -0.196907 0)
(-0.288827 -0.198058 0)
(-0.274132 -0.197397 0)
(-0.258141 -0.194814 0)
(-0.240981 -0.190245 0)
(-0.222832 -0.183681 0)
(-0.203925 -0.175179 0)
(-0.184542 -0.164864 0)
(-0.164996 -0.152933 0)
(-0.145623 -0.139646 0)
(-0.126757 -0.125316 0)
(-0.108717 -0.110293 0)
(-0.0917819 -0.0949424 0)
(-0.076181 -0.0796272 0)
(-0.0620808 -0.0646875 0)
(-0.0495822 -0.0504261 0)
(-0.0387221 -0.0370996 0)
(-0.0294799 -0.0249148 0)
(-0.0217873 -0.014031 0)
(-0.0155391 -0.00456675 0)
(-0.0106043 0.00339052 0)
(-0.00683546 0.00977323 0)
(-0.00407634 0.0145224 0)
(-0.00216789 0.0175777 0)
(-0.000951843 0.018869 0)
(-0.000273295 0.0183118 0)
(1.73909e-05 0.0158064 0)
(6.66769e-05 0.0112423 0)
(2.46929e-05 0.00450626 0)
(-0.371829 -0.0894725 0)
(-0.371273 -0.10076 0)
(-0.370418 -0.112012 0)
(-0.369202 -0.12318 0)
(-0.367554 -0.134206 0)
(-0.365386 -0.145015 0)
(-0.362603 -0.155517 0)
(-0.359095 -0.165602 0)
(-0.354744 -0.175142 0)
(-0.349426 -0.183989 0)
(-0.343013 -0.191976 0)
(-0.335381 -0.198918 0)
(-0.326416 -0.204618 0)
(-0.316023 -0.208873 0)
(-0.304134 -0.211482 0)
(-0.29072 -0.212256 0)
(-0.275799 -0.211033 0)
(-0.259448 -0.20769 0)
(-0.241802 -0.202159 0)
(-0.223065 -0.19444 0)
(-0.2035 -0.184609 0)
(-0.183425 -0.172827 0)
(-0.163196 -0.159335 0)
(-0.14319 -0.144447 0)
(-0.123781 -0.128536 0)
(-0.105317 -0.112009 0)
(-0.088098 -0.0952877 0)
(-0.072361 -0.0787785 0)
(-0.0582693 -0.0628546 0)
(-0.0459101 -0.0478396 0)
(-0.0352992 -0.0339994 0)
(-0.0263906 -0.0215415 0)
(-0.0190888 -0.0106206 0)
(-0.0132626 -0.00134886 0)
(-0.00875731 0.00619157 0)
(-0.00540512 0.0119348 0)
(-0.00303328 0.0158189 0)
(-0.00146932 0.0177762 0)
(-0.000544246 0.0177262 0)
(-9.4239e-05 0.0155741 0)
(4.12605e-05 0.0112146 0)
(2.5264e-05 0.00454096 0)
(-0.366138 -0.0896047 0)
(-0.366157 -0.101114 0)
(-0.365983 -0.11264 0)
(-0.365561 -0.124147 0)
(-0.364824 -0.135589 0)
(-0.363693 -0.146905 0)
(-0.362074 -0.158017 0)
(-0.359858 -0.168829 0)
(-0.356923 -0.179223 0)
(-0.353134 -0.189059 0)
(-0.348348 -0.198172 0)
(-0.342418 -0.206376 0)
(-0.335197 -0.213462 0)
(-0.326549 -0.219208 0)
(-0.31636 -0.223382 0)
(-0.304544 -0.225753 0)
(-0.291062 -0.226109 0)
(-0.275928 -0.224264 0)
(-0.259222 -0.220084 0)
(-0.241097 -0.213498 0)
(-0.221782 -0.204518 0)
(-0.201576 -0.193247 0)
(-0.180838 -0.179887 0)
(-0.159973 -0.164734 0)
(-0.1394 -0.148166 0)
(-0.119535 -0.130623 0)
(-0.100754 -0.112579 0)
(-0.0833737 -0.0945111 0)
(-0.0676345 -0.0768718 0)
(-0.0536897 -0.0600648 0)
(-0.0416065 -0.0444301 0)
(-0.0313744 -0.030238 0)
(-0.0229177 -0.0176921 0)
(-0.0161116 -0.00693913 0)
(-0.0107979 0.00191692 0)
(-0.00679835 0.00879918 0)
(-0.0039257 0.0136425 0)
(-0.00199121 0.0163805 0)
(-0.000808986 0.0169368 0)
(-0.000197827 0.0152213 0)
(2.07243e-05 0.0111323 0)
(2.71313e-05 0.00456643 0)
(-0.357963 -0.0892664 0)
(-0.358435 -0.1009 0)
(-0.358808 -0.112594 0)
(-0.359037 -0.124325 0)
(-0.359067 -0.136061 0)
(-0.358826 -0.147754 0)
(-0.35823 -0.159342 0)
(-0.357175 -0.170746 0)
(-0.355542 -0.181861 0)
(-0.353196 -0.192562 0)
(-0.349986 -0.202693 0)
(-0.345749 -0.212074 0)
(-0.340316 -0.220495 0)
(-0.33352 -0.227723 0)
(-0.3252 -0.233503 0)
(-0.31522 -0.237573 0)
(-0.30348 -0.239671 0)
(-0.289926 -0.239553 0)
(-0.274571 -0.237012 0)
(-0.257503 -0.231901 0)
(-0.238894 -0.22415 0)
(-0.219002 -0.213787 0)
(-0.198169 -0.20095 0)
(-0.176803 -0.185893 0)
(-0.155357 -0.168977 0)
(-0.1343 -0.150656 0)
(-0.114084 -0.131447 0)
(-0.095114 -0.111893 0)
(-0.0777171 -0.0925335 0)
(-0.0621289 -0.0738623 0)
(-0.0484851 -0.0563098 0)
(-0.0368262 -0.0402262 0)
(-0.0271097 -0.0258801 0)
(-0.0192267 -0.0134662 0)
(-0.0130214 -0.00312005 0)
(-0.00830784 0.00506366 0)
(-0.0048849 0.0110126 0)
(-0.00254615 0.0146601 0)
(-0.00108633 0.0159331 0)
(-0.000303828 0.014745 0)
(9.91917e-07 0.0109967 0)
(2.9542e-05 0.00458443 0)
(-0.347894 -0.0885778 0)
(-0.348694 -0.100252 0)
(-0.349476 -0.11202 0)
(-0.350205 -0.123871 0)
(-0.350837 -0.135784 0)
(-0.351315 -0.147727 0)
(-0.351564 -0.159654 0)
(-0.351494 -0.171504 0)
(-0.350996 -0.183191 0)
(-0.349939 -0.194606 0)
(-0.348176 -0.205613 0)
(-0.345538 -0.216042 0)
(-0.341844 -0.225692 0)
(-0.336902 -0.23433 0)
(-0.330519 -0.24169 0)
(-0.322514 -0.247487 0)
(-0.312728 -0.25142 0)
(-0.301041 -0.253193 0)
(-0.287391 -0.252529 0)
(-0.27179 -0.249199 0)
(-0.254335 -0.243042 0)
(-0.235224 -0.233993 0)
(-0.214752 -0.222104 0)
(-0.193308 -0.20756 0)
(-0.171353 -0.190679 0)
(-0.149395 -0.1719 0)
(-0.127953 -0.151765 0)
(-0.107516 -0.130876 0)
(-0.0885075 -0.109853 0)
(-0.0712592 -0.0892915 0)
(-0.0559927 -0.0697272 0)
(-0.0428174 -0.0516083 0)
(-0.0317393 -0.0352874 0)
(-0.0226784 -0.0210242 0)
(-0.0154898 -0.00899958 0)
(-0.00998517 0.000664364 0)
(-0.00595115 0.00788191 0)
(-0.0031634 0.0125827 0)
(-0.00139555 0.014695 0)
(-0.000422972 0.0141348 0)
(-2.20853e-05 0.0108037 0)
(3.17794e-05 0.0045945 0)
(-0.336508 -0.0876532 0)
(-0.337522 -0.0993012 0)
(-0.33858 -0.111066 0)
(-0.339659 -0.122947 0)
(-0.340728 -0.134934 0)
(-0.341743 -0.14701 0)
(-0.342645 -0.159146 0)
(-0.343359 -0.171297 0)
(-0.343791 -0.1834 0)
(-0.343824 -0.195367 0)
(-0.343318 -0.207082 0)
(-0.342112 -0.218396 0)
(-0.340021 -0.229125 0)
(-0.336842 -0.239044 0)
(-0.332362 -0.247892 0)
(-0.326363 -0.25537 0)
(-0.318637 -0.261155 0)
(-0.309004 -0.264905 0)
(-0.297328 -0.266283 0)
(-0.283536 -0.26498 0)
(-0.267643 -0.26074 0)
(-0.249763 -0.253394 0)
(-0.230124 -0.242889 0)
(-0.209064 -0.229311 0)
(-0.187027 -0.212905 0)
(-0.164534 -0.194066 0)
(-0.142152 -0.173331 0)
(-0.120447 -0.15134 0)
(-0.0999396 -0.128787 0)
(-0.0810672 -0.106372 0)
(-0.0641532 -0.0847459 0)
(-0.0493945 -0.0644738 0)
(-0.0368641 -0.0460138 0)
(-0.0265261 -0.0297113 0)
(-0.0182585 -0.0158099 0)
(-0.0118776 -0.00447261 0)
(-0.00716201 0.00419247 0)
(-0.00387057 0.0101057 0)
(-0.00175489 0.0131935 0)
(-0.00056539 0.0133729 0)
(-5.23356e-05 0.0105442 0)
(3.32424e-05 0.00459392 0)
(-0.324331 -0.0865931 0)
(-0.325459 -0.0981658 0)
(-0.326676 -0.109869 0)
(-0.327969 -0.121707 0)
(-0.329319 -0.133684 0)
(-0.330697 -0.145793 0)
(-0.332061 -0.15802 0)
(-0.333352 -0.17034 0)
(-0.334494 -0.182709 0)
(-0.335389 -0.195062 0)
(-0.335914 -0.207309 0)
(-0.335919 -0.219325 0)
(-0.33523 -0.230949 0)
(-0.333644 -0.241978 0)
(-0.330938 -0.252163 0)
(-0.326873 -0.26121 0)
(-0.321206 -0.268782 0)
(-0.313704 -0.274511 0)
(-0.304164 -0.278011 0)
(-0.292434 -0.278902 0)
(-0.278435 -0.276837 0)
(-0.262189 -0.271537 0)
(-0.243832 -0.262829 0)
(-0.223629 -0.250681 0)
(-0.201974 -0.235229 0)
(-0.179371 -0.216791 0)
(-0.156408 -0.195864 0)
(-0.13371 -0.173094 0)
(-0.111889 -0.149233 0)
(-0.0914897 -0.125075 0)
(-0.0729507 -0.101394 0)
(-0.0565741 -0.0788909 0)
(-0.0425197 -0.0581493 0)
(-0.0308138 -0.0396242 0)
(-0.0213715 -0.0236436 0)
(-0.0140248 -0.0104286 0)
(-0.00854993 -0.000122679 0)
(-0.00469178 0.00717727 0)
(-0.00218035 0.0113913 0)
(-0.000739899 0.0124343 0)
(-9.31508e-05 0.010204 0)
(3.33125e-05 0.00457812 0)
(-0.311804 -0.0854793 0)
(-0.312967 -0.096945 0)
(-0.314245 -0.108545 0)
(-0.315637 -0.12029 0)
(-0.317135 -0.132191 0)
(-0.318721 -0.144253 0)
(-0.320369 -0.156475 0)
(-0.32204 -0.168848 0)
(-0.323677 -0.181346 0)
(-0.325202 -0.19393 0)
(-0.326513 -0.206534 0)
(-0.327483 -0.219062 0)
(-0.327951 -0.231383 0)
(-0.327728 -0.243321 0)
(-0.326595 -0.25465 0)
(-0.324304 -0.265093 0)
(-0.320592 -0.274318 0)
(-0.315189 -0.281946 0)
(-0.307837 -0.287559 0)
(-0.29831 -0.290721 0)
(-0.286441 -0.291003 0)
(-0.272152 -0.28802 0)
(-0.255475 -0.281474 0)
(-0.236579 -0.271197 0)
(-0.215777 -0.257189 0)
(-0.193524 -0.239655 0)
(-0.170396 -0.21901 0)
(-0.147052 -0.19587 0)
(-0.124174 -0.171013 0)
(-0.102413 -0.14531 0)
(-0.0823268 -0.119657 0)
(-0.0643392 -0.094898 0)
(-0.0487161 -0.0717667 0)
(-0.0355662 -0.0508524 0)
(-0.0248597 -0.0325929 0)
(-0.0164568 -0.0172894 0)
(-0.0101406 -0.00513705 0)
(-0.00564661 0.00373846 0)
(-0.00268498 0.00924388 0)
(-0.000953661 0.0112885 0)
(-0.000147151 0.00976523 0)
(3.16049e-05 0.00454099 0)
(-0.29927 -0.084373 0)
(-0.30041 -0.0957157 0)
(-0.301678 -0.107189 0)
(-0.303079 -0.118809 0)
(-0.304614 -0.13059 0)
(-0.306279 -0.142546 0)
(-0.308062 -0.154688 0)
(-0.309939 -0.167019 0)
(-0.311873 -0.179532 0)
(-0.313809 -0.19221 0)
(-0.315669 -0.20501 0)
(-0.317348 -0.217869 0)
(-0.31871 -0.230685 0)
(-0.319587 -0.243316 0)
(-0.319774 -0.25557 0)
(-0.319031 -0.267197 0)
(-0.317088 -0.277884 0)
(-0.313654 -0.287258 0)
(-0.308433 -0.294888 0)
(-0.301138 -0.300302 0)
(-0.291525 -0.303006 0)
(-0.279416 -0.302521 0)
(-0.264737 -0.298426 0)
(-0.247541 -0.290408 0)
(-0.228039 -0.278314 0)
(-0.206603 -0.2622 0)
(-0.183762 -0.24236 0)
(-0.160173 -0.219334 0)
(-0.136564 -0.193882 0)
(-0.113674 -0.166925 0)
(-0.0921808 -0.139466 0)
(-0.0726381 -0.112495 0)
(-0.0554365 -0.0869141 0)
(-0.0407886 -0.063472 0)
(-0.0287391 -0.0427452 0)
(-0.0191933 -0.0251414 0)
(-0.0119524 -0.0109281 0)
(-0.00674958 -0.000275084 0)
(-0.0032786 0.00670165 0)
(-0.00121204 0.00990051 0)
(-0.000216239 0.00920675 0)
(2.78638e-05 0.00447519 0)
(-0.286977 -0.0833155 0)
(-0.288056 -0.0945321 0)
(-0.289263 -0.10587 0)
(-0.290609 -0.117348 0)
(-0.292101 -0.128984 0)
(-0.293745 -0.140797 0)
(-0.295542 -0.152806 0)
(-0.297482 -0.165025 0)
(-0.299546 -0.177464 0)
(-0.3017 -0.190121 0)
(-0.303891 -0.20298 0)
(-0.306039 -0.216004 0)
(-0.308036 -0.229125 0)
(-0.30974 -0.242238 0)
(-0.31097 -0.255187 0)
(-0.311505 -0.26776 0)
(-0.311085 -0.279677 0)
(-0.309413 -0.290587 0)
(-0.306171 -0.300065 0)
(-0.301033 -0.307624 0)
(-0.293689 -0.312727 0)
(-0.283874 -0.314818 0)
(-0.271407 -0.313368 0)
(-0.256225 -0.30792 0)
(-0.238414 -0.298158 0)
(-0.218238 -0.283963 0)
(-0.196145 -0.26547 0)
(-0.172749 -0.243095 0)
(-0.14879 -0.217529 0)
(-0.125069 -0.189702 0)
(-0.102372 -0.160695 0)
(-0.081385 -0.131638 0)
(-0.0626372 -0.103608 0)
(-0.0464654 -0.0775399 0)
(-0.0330111 -0.0541785 0)
(-0.0222435 -0.0340679 0)
(-0.0139964 -0.0175744 0)
(-0.00801035 -0.00493087 0)
(-0.003968 0.00371114 0)
(-0.00151874 0.00823178 0)
(-0.000301687 0.00850523 0)
(2.19383e-05 0.0043726 0)
(-0.275078 -0.08233 0)
(-0.276076 -0.0934272 0)
(-0.277193 -0.104633 0)
(-0.278443 -0.115967 0)
(-0.279839 -0.127449 0)
(-0.281394 -0.1391 0)
(-0.283116 -0.150945 0)
(-0.285011 -0.163007 0)
(-0.287073 -0.175305 0)
(-0.289287 -0.187855 0)
(-0.291622 -0.20066 0)
(-0.294026 -0.21371 0)
(-0.296419 -0.226968 0)
(-0.298688 -0.240364 0)
(-0.300684 -0.253786 0)
(-0.302212 -0.267062 0)
(-0.303032 -0.279956 0)
(-0.302861 -0.292152 0)
(-0.301377 -0.303251 0)
(-0.298229 -0.312772 0)
(-0.293064 -0.320158 0)
(-0.285546 -0.324803 0)
(-0.275399 -0.326085 0)
(-0.262442 -0.323421 0)
(-0.246634 -0.316328 0)
(-0.228109 -0.304502 0)
(-0.207202 -0.287885 0)