/*--------------------------------*- C++ -*----------------------------------*\
  =========                 |
  \\      /  F ield         | OpenFOAM: The Open Source CFD Toolbox
   \\    /   O peration     | Website:  https://openfoam.org
    \\  /    A nd           | Version:  9
     \\/     M anipulation  |
\*---------------------------------------------------------------------------*/
FoamFile
{
    format      ascii;
    class       volVectorField;
    location    "0.75";
    object      U;
}
// * * * * * * * * * * * * * * * * * * * * * * * * * * * * * * * * * * * * * //

dimensions      [0 1 -1 0 0 0 0];

internalField   nonuniform List<vector> 
1250
(
(-5.96937e-05 0.00817795 0)
(-0.000413934 0.0219433 0)
(-5.68338e-05 0.00838784 0)
(-0.000397252 0.022514 0)
(-0.00112278 0.0343007 0)
(-0.0021334 0.0440469 0)
(-0.00338151 0.0520372 0)
(-0.00483472 0.0585374 0)
(-0.00646213 0.0637903 0)
(-0.00823687 0.0680135 0)
(-0.0101369 0.0713983 0)
(-0.0121445 0.0741106 0)
(-0.0142459 0.0762916 0)
(-0.0164309 0.0780599 0)
(-0.0186928 0.0795135 0)
(-0.0210274 0.0807322 0)
(-0.0234333 0.0817807 0)
(-0.0259114 0.0827104 0)
(-0.0284646 0.0835625 0)
(-0.0310982 0.0843704 0)
(-0.0338194 0.0851623 0)
(-0.0366377 0.0859634 0)
(-0.0395653 0.0867992 0)
(-0.0426177 0.0876976 0)
(-0.0458139 0.0886923 0)
(-0.0491779 0.0898251 0)
(-0.0527388 0.0911484 0)
(-0.0565325 0.0927273 0)
(-0.0606015 0.0946397 0)
(-0.0649929 0.0969749 0)
(-0.0697624 0.0998311 0)
(-0.0749649 0.103295 0)
(-0.0806602 0.107446 0)
(-0.0869052 0.11235 0)
(-0.0937441 0.118029 0)
(-0.101215 0.124476 0)
(-5.37574e-05 0.00858837 0)
(-0.000379222 0.0230633 0)
(-0.00107631 0.0351511 0)
(-0.00205125 0.0451565 0)
(-0.00325957 0.0533687 0)
(-0.00467073 0.0600578 0)
(-0.00625524 0.0654713 0)
(-0.00798721 0.069831 0)
(-0.00984515 0.0733328 0)
(-0.0118117 0.0761464 0)
(-0.0138733 0.0784169 0)
(-0.0160198 0.0802662 0)
(-0.0182443 0.0817952 0)
(-0.0205429 0.0830867 0)
(-0.022914 0.0842077 0)
(-0.0253586 0.0852119 0)
(-0.0278798 0.0861427 0)
(-0.030483 0.0870357 0)
(-0.0331756 0.0879211 0)
(-0.0359676 0.088827 0)
(-0.0388716 0.0897817 0)
(-0.0419037 0.0908166 0)
(-0.0450836 0.0919698 0)
(-0.0484358 0.093288 0)
(-0.0519902 0.0948297 0)
(-0.0557829 0.0966661 0)
(-0.0598562 0.0988817 0)
(-0.0642577 0.101572 0)
(-0.0690389 0.104835 0)
(-0.0742541 0.108762 0)
(-0.0799594 0.113435 0)
(-0.0862058 0.118907 0)
(-0.0930322 0.125192 0)
(-0.100456 0.132243 0)
(-0.108487 0.139973 0)
(-0.117085 0.148184 0)
(-0.126197 0.15664 0)
(-0.135732 0.165048 0)
(-0.145572 0.173073 0)
(-0.155574 0.180364 0)
(-0.165577 0.186575 0)
(-0.175413 0.19139 0)
(-0.184924 0.194554 0)
(-5.05924e-05 0.00877905 0)
(-0.000360138 0.0235882 0)
(-0.00102667 0.0359681 0)
(-0.00196309 0.0462268 0)
(-0.00312824 0.0546573 0)
(-0.00449357 0.0615336 0)
(-0.00603111 0.0671072 0)
(-0.00771596 0.0716038 0)
(-0.00952727 0.0752233 0)
(-0.011448 0.0781394 0)
(-0.0134647 0.0805004 0)
(-0.0155673 0.0824317 0)
(-0.0177489 0.0840374 0)
(-0.0200053 0.0854027 0)
(-0.0223352 0.0865973 0)
(-0.0247393 0.0876771 0)
(-0.0272209 0.0886878 0)
(-0.0297854 0.0896672 0)
(-0.0324404 0.0906479 0)
(-0.0351961 0.0916606 0)
(-0.0380655 0.0927365 0)
(-0.0410649 0.093911 0)
(-0.0442144 0.095226 0)
(-0.0475389 0.0967336 0)
(-0.0510683 0.0984977 0)
(-0.0548384 0.100596 0)
(-0.0588905 0.103117 0)
(-0.0632708 0.106162 0)
(-0.0680287 0.109832 0)
(-0.0732155 0.11422 0)
(-0.0788819 0.119403 0)
(-0.085072 0.125428 0)
(-0.0918174 0.132292 0)
(-0.0991296 0.139932 0)
(-0.106996 0.148214 0)
(-0.11538 0.156937 0)
(-0.124214 0.165827 0)
(-0.133401 0.17456 0)
(-0.142817 0.182777 0)
(-0.152316 0.190108 0)
(-0.161741 0.196196 0)
(-0.170929 0.200726 0)
(-0.179723 0.203439 0)
(-0.187992 0.20417 0)
(-0.19561 0.202797 0)
(-0.202498 0.199326 0)
(-0.208611 0.193828 0)
(-0.213937 0.186444 0)
(-0.218491 0.177358 0)
(-4.72814e-05 0.00895947 0)
(-0.000340025 0.024088 0)
(-0.000974057 0.0367494 0)
(-0.00186925 0.0472545 0)
(-0.00298795 0.0558992 0)
(-0.00430376 0.0629606 0)
(-0.00579026 0.0686934 0)
(-0.00742363 0.0733269 0)
(-0.00918368 0.0770647 0)
(-0.0110537 0.0800838 0)
(-0.0130203 0.0825362 0)
(-0.0150736 0.0845503 0)
(-0.0172064 0.0862333 0)
(-0.0194145 0.0876731 0)
(-0.0216964 0.0889418 0)
(-0.0240528 0.0900978 0)
(-0.0264869 0.0911889 0)
(-0.029004 0.0922553 0)
(-0.0316119 0.093332 0)
(-0.0343207 0.0944524 0)
(-0.0371437 0.0956507 0)
(-0.0400972 0.096966 0)
(-0.0432014 0.0984444 0)
(-0.0464809 0.100143 0)
(-0.0499654 0.10213 0)
(-0.0536896 0.10449 0)
(-0.0576934 0.107316 0)
(-0.0620206 0.110712 0)
(-0.0667179 0.114781 0)
(-0.0718326 0.119618 0)
(-0.0774095 0.125294 0)
(-0.0834854 0.131845 0)
(-0.0900834 0.139253 0)
(-0.0972076 0.147433 0)
(-0.104837 0.156229 0)
(-0.112926 0.165406 0)
(-0.1214 0.174663 0)
(-0.130156 0.18365 0)
(-0.139068 0.191984 0)
(-0.147993 0.199282 0)
(-0.156778 0.205181 0)
(-0.165271 0.209368 0)
(-0.173329 0.211601 0)
(-0.180828 0.211718 0)
(-0.187675 0.209657 0)
(-0.193809 0.205442 0)
(-0.1992 0.199181 0)
(-0.20386 0.191049 0)
(-0.207819 0.18126 0)
(-4.37959e-05 0.00912903 0)
(-0.000318839 0.024561 0)
(-0.000918539 0.0374929 0)
(-0.00176998 0.0482372 0)
(-0.00283916 0.0570917 0)
(-0.00410189 0.0643356 0)
(-0.00553345 0.0702265 0)
(-0.00711113 0.0749967 0)
(-0.00881539 0.0788529 0)
(-0.0106299 0.0819756 0)
(-0.0125414 0.0845199 0)
(-0.0145398 0.0866173 0)
(-0.016618 0.0883779 0)
(-0.0187715 0.0898923 0)
(-0.0209986 0.0912352 0)
(-0.0232999 0.0924672 0)
(-0.0256785 0.0936387 0)
(-0.0281394 0.0947919 0)
(-0.0306904 0.0959644 0)
(-0.0333416 0.0971922 0)
(-0.036106 0.0985128 0)
(-0.0389999 0.0999685 0)
(-0.0420431 0.10161 0)
(-0.0452598 0.103498 0)
(-0.0486785 0.105707 0)
(-0.0523328 0.108324 0)
(-0.0562602 0.111449 0)
(-0.0605018 0.115188 0)
(-0.0651005 0.119645 0)
(-0.070099 0.124913 0)
(-0.0755355 0.131057 0)
(-0.0814397 0.138102 0)
(-0.0878267 0.146013 0)
(-0.0946928 0.154684 0)
(-0.102011 0.163933 0)
(-0.109727 0.173499 0)
(-0.117762 0.183054 0)
(-0.126013 0.192224 0)
(-0.134355 0.200609 0)
(-0.142649 0.207811 0)
(-0.150753 0.213468 0)
(-0.158525 0.217273 0)
(-0.165838 0.218999 0)
(-0.172589 0.218513 0)
(-0.178701 0.215778 0)
(-0.184133 0.210853 0)
(-0.188875 0.203882 0)
(-0.192956 0.195071 0)
(-0.196421 0.18466 0)
(-4.01525e-05 0.00928719 0)
(-0.000296659 0.025006 0)
(-0.000860315 0.0381965 0)
(-0.00166565 0.049172 0)
(-0.00268244 0.0582312 0)
(-0.00388878 0.0656549 0)
(-0.00526166 0.0717023 0)
(-0.00677959 0.0766087 0)
(-0.0084237 0.0805833 0)
(-0.010178 0.0838096 0)
(-0.0120293 0.086446 0)
(-0.0139675 0.0886268 0)
(-0.0159853 0.0904649 0)
(-0.018078 0.0920537 0)
(-0.0202436 0.0934702 0)
(-0.0224824 0.0947776 0)
(-0.0247973 0.0960284 0)
(-0.0271931 0.0972673 0)
(-0.0296774 0.0985344 0)
(-0.0322599 0.0998682 0)
(-0.0349534 0.101309 0)
(-0.0377736 0.102903 0)
(-0.0407399 0.104705 0)
(-0.0438754 0.106779 0)
(-0.0472073 0.109204 0)
(-0.0507671 0.112073 0)
(-0.0545897 0.115486 0)
(-0.0587128 0.119554 0)
(-0.0631749 0.124381 0)
(-0.0680131 0.130056 0)
(-0.0732594 0.136638 0)
(-0.078936 0.144138 0)
(-0.0850509 0.152507 0)
(-0.0915934 0.161616 0)
(-0.0985303 0.171259 0)
(-0.105805 0.181151 0)
(-0.113335 0.19094 0)
(-0.121019 0.20023 0)
(-0.128738 0.208606 0)
(-0.13636 0.215664 0)
(-0.143755 0.22104 0)
(-0.150796 0.22444 0)
(-0.157374 0.225656 0)
(-0.163403 0.224579 0)
(-0.168828 0.221204 0)
(-0.173622 0.215623 0)
(-0.177794 0.208011 0)
(-0.181387 0.198605 0)
(-0.184454 0.187665 0)
(-3.63783e-05 0.00943345 0)
(-0.000273614 0.0254214 0)
(-0.000799693 0.0388581 0)
(-0.0015568 0.0500565 0)
(-0.00251855 0.0593149 0)
(-0.0036654 0.0669148 0)
(-0.00497613 0.0731171 0)
(-0.00643044 0.0781586 0)
(-0.0080102 0.0822512 0)
(-0.00969972 0.0855811 0)
(-0.011486 0.0883094 0)
(-0.0133587 0.0905733 0)
(-0.0153104 0.0924884 0)
(-0.0173361 0.0941507 0)
(-0.0194335 0.0956397 0)
(-0.0216026 0.0970211 0)
(-0.0238457 0.0983495 0)
(-0.0261675 0.0996721 0)
(-0.0285751 0.101031 0)
(-0.0310779 0.102469 0)
(-0.033688 0.104027 0)
(-0.0364206 0.105756 0)
(-0.0392939 0.107712 0)
(-0.0423298 0.109966 0)
(-0.0455538 0.1126 0)
(-0.0489946 0.115708 0)
(-0.0526842 0.119397 0)
(-0.0566562 0.123776 0)
(-0.0609443 0.128948 0)
(-0.0655796 0.135 0)
(-0.0705876 0.141983 0)
(-0.0759837 0.149897 0)
(-0.0817693 0.158672 0)
(-0.087928 0.168164 0)
(-0.0944226 0.178142 0)
(-0.101194 0.188299 0)
(-0.108163 0.198262 0)
(-0.115231 0.207616 0)
(-0.122286 0.215937 0)
(-0.129208 0.222814 0)
(-0.13588 0.22789 0)
(-0.142194 0.23088 0)
(-0.148057 0.231598 0)
(-0.153402 0.229962 0)
(-0.15819 0.225997 0)
(-0.162413 0.219826 0)
(-0.166092 0.211654 0)
(-0.169278 0.20174 0)
(-0.172033 0.190366 0)
(-3.25014e-05 0.00956739 0)
(-0.000249852 0.0258064 0)
(-0.000737034 0.0394762 0)
(-0.00144404 0.0508882 0)
(-0.00234838 0.0603399 0)
(-0.00343292 0.0681124 0)
(-0.00467827 0.0744671 0)
(-0.00606537 0.0796425 0)
(-0.00757682 0.0838524 0)
(-0.00919728 0.0872853 0)
(-0.0109138 0.090105 0)
(-0.012716 0.0924513 0)
(-0.0145961 0.0944423 0)
(-0.0165488 0.0961769 0)
(-0.0185714 0.0977368 0)
(-0.0206635 0.09919 0)
(-0.0228269 0.100594 0)
(-0.025066 0.101997 0)
(-0.0273872 0.103445 0)
(-0.0297992 0.104981 0)
(-0.0323137 0.106652 0)
(-0.0349446 0.10851 0)
(-0.0377091 0.110615 0)
(-0.0406272 0.11304 0)
(-0.0437223 0.115871 0)
(-0.0470204 0.119205 0)
(-0.0505495 0.12315 0)
(-0.0543389 0.127817 0)
(-0.058417 0.133307 0)
(-0.062809 0.139703 0)
(-0.0675337 0.147045 0)
(-0.0726002 0.155323 0)
(-0.0780044 0.164453 0)
(-0.0837253 0.17427 0)
(-0.0897238 0.184524 0)
(-0.0959414 0.194887 0)
(-0.102302 0.20497 0)
(-0.108714 0.214343 0)
(-0.115076 0.222571 0)
(-0.121281 0.229246 0)
(-0.127229 0.234014 0)
(-0.132827 0.236607 0)
(-0.138002 0.236857 0)
(-0.142703 0.234709 0)
(-0.146909 0.230217 0)
(-0.150623 0.223532 0)
(-0.153877 0.214884 0)
(-0.156729 0.204555 0)
(-0.15924 0.192838 0)
(-2.85512e-05 0.0096887 0)
(-0.000225538 0.0261599 0)
(-0.000672743 0.0400492 0)
(-0.00132806 0.0516654 0)
(-0.00217295 0.0613038 0)
(-0.00319269 0.0692447 0)
(-0.00436975 0.0757493 0)
(-0.00568634 0.0810569 0)
(-0.00712579 0.085383 0)
(-0.00867314 0.088918 0)
(-0.0103155 0.0918281 0)
(-0.0120423 0.0942556 0)
(-0.0138455 0.0963212 0)
(-0.0157194 0.0981261 0)
(-0.0176609 0.0997545 0)
(-0.019669 0.101277 0)
(-0.0217451 0.102752 0)
(-0.0238928 0.104233 0)
(-0.026118 0.105765 0)
(-0.0284286 0.107395 0)
(-0.0308353 0.109173 0)
(-0.033351 0.111152 0)
(-0.0359912 0.113396 0)
(-0.038774 0.115981 0)
(-0.0417201 0.118994 0)
(-0.0448523 0.122537 0)
(-0.0481947 0.126718 0)
(-0.0517717 0.131646 0)
(-0.0556061 0.137422 0)
(-0.059717 0.144121 0)
(-0.0641173 0.151778 0)
(-0.06881 0.16037 0)
(-0.0737863 0.169799 0)
(-0.0790225 0.179883 0)
(-0.084479 0.190356 0)
(-0.0900999 0.200872 0)
(-0.0958148 0.211026 0)
(-0.101541 0.22038 0)
(-0.107191 0.228492 0)
(-0.112672 0.234955 0)
(-0.117899 0.239423 0)
(-0.122799 0.241644 0)
(-0.127315 0.241469 0)
(-0.131415 0.238868 0)
(-0.135088 0.23392 0)
(-0.13835 0.226803 0)
(-0.141237 0.217767 0)
(-0.14381 0.207111 0)
(-0.146129 0.195139 0)
(-2.4559e-05 0.00979712 0)
(-0.000200849 0.0264812 0)
(-0.000607272 0.0405759 0)
(-0.00120966 0.0523862 0)
(-0.0019934 0.0622045 0)
(-0.00294621 0.0703092 0)
(-0.00405244 0.0769606 0)
(-0.00529555 0.0823984 0)
(-0.00665967 0.0868391 0)
(-0.00813017 0.090475 0)
(-0.00969422 0.0934742 0)
(-0.0113411 0.0959813 0)
(-0.0130624 0.0981196 0)
(-0.014852 0.0999924 0)
(-0.0167063 0.101686 0)
(-0.0186237 0.103274 0)
(-0.020605 0.104818 0)
(-0.0226531 0.10637 0)
(-0.0247731 0.107981 0)
(-0.0269721 0.109699 0)
(-0.0292595 0.111575 0)
(-0.0316468 0.113667 0)
(-0.0341479 0.116039 0)
(-0.0367785 0.11877 0)
(-0.0395566 0.121951 0)
(-0.0425012 0.125682 0)
(-0.0456323 0.130072 0)
(-0.0489692 0.135232 0)
(-0.052529 0.141256 0)
(-0.056325 0.148217 0)
(-0.0603639 0.156142 0)
(-0.064644 0.164995 0)
(-0.0691524 0.174667 0)
(-0.0738641 0.184962 0)
(-0.0787405 0.195599 0)
(-0.0837304 0.206218 0)
(-0.088771 0.216403 0)
(-0.0937913 0.225707 0)
(-0.0987159 0.233689 0)
(-0.10347 0.239941 0)
(-0.107987 0.24413 0)
(-0.112208 0.246015 0)
(-0.116097 0.245469 0)
(-0.119632 0.242482 0)
(-0.122816 0.237156 0)
(-0.125671 0.229691 0)
(-0.128238 0.220354 0)
(-0.130574 0.209456 0)
(-0.132736 0.197307 0)
(-2.05578e-05 0.00989253 0)
(-0.000175978 0.0267699 0)
(-0.00054111 0.0410555 0)
(-0.00108967 0.0530495 0)
(-0.00181098 0.0630404 0)
(-0.00269515 0.0713037 0)
(-0.0037284 0.0780985 0)
(-0.0048955 0.083664 0)
(-0.00618132 0.0882175 0)
(-0.0075716 0.0919525 0)
(-0.00905356 0.095039 0)
(-0.0106163 0.0976238 0)
(-0.012251 0.0998323 0)
(-0.0139512 0.10177 0)
(-0.0157126 0.103526 0)
(-0.0175329 0.105176 0)
(-0.0194124 0.106782 0)
(-0.0213531 0.108401 0)
(-0.0233592 0.110084 0)
(-0.0254367 0.111882 0)
(-0.0275938 0.113848 0)
(-0.0298405 0.116041 0)
(-0.0321885 0.118529 0)
(-0.0346513 0.121391 0)
(-0.0372435 0.124719 0)
(-0.0399806 0.128615 0)
(-0.042878 0.133189 0)
(-0.0459497 0.138546 0)
(-0.0492074 0.144781 0)
(-0.0526585 0.151959 0)
(-0.0563043 0.160101 0)
(-0.0601385 0.169162 0)
(-0.0641456 0.179021 0)
(-0.0683002 0.189471 0)
(-0.0725664 0.200219 0)
(-0.0768987 0.210896 0)
(-0.081244 0.221078 0)
(-0.0855436 0.230313 0)
(-0.0897374 0.238158 0)
(-0.0937677 0.244212 0)
(-0.0975839 0.24815 0)
(-0.101147 0.249745 0)
(-0.104433 0.248887 0)
(-0.107435 0.245586 0)
(-0.110165 0.239963 0)
(-0.11265 0.232233 0)
(-0.11493 0.222678 0)
(-0.117056 0.211616 0)
(-0.11908 0.199362 0)
(-1.65821e-05 0.00997488 0)
(-0.000151129 0.0270258 0)
(-0.000474784 0.0414875 0)
(-0.000969041 0.0536544 0)
(-0.00162706 0.06381 0)
(-0.00244133 0.0722265 0)
(-0.00339993 0.0791608 0)
(-0.00448891 0.0848512 0)
(-0.00569391 0.0895152 0)
(-0.00700103 0.0933472 0)
(-0.00839753 0.0965189 0)
(-0.0098723 0.0991789 0)
(-0.0114162 0.101455 0)
(-0.0130222 0.103454 0)
(-0.0146853 0.105268 0)
(-0.0164028 0.106974 0)
(-0.0181739 0.108638 0)
(-0.0199999 0.110317 0)
(-0.0218839 0.112065 0)
(-0.0238309 0.113935 0)
(-0.0258475 0.11598 0)
(-0.027942 0.118262 0)
(-0.0301242 0.120851 0)
(-0.0324047 0.123827 0)
(-0.034795 0.127282 0)
(-0.0373065 0.131319 0)
(-0.0399502 0.136044 0)
(-0.0427348 0.141564 0)
(-0.0456666 0.147969 0)
(-0.0487473 0.155318 0)
(-0.0519733 0.163626 0)
(-0.0553346 0.172839 0)
(-0.0588136 0.18283 0)
(-0.0623857 0.193382 0)
(-0.0660186 0.204194 0)
(-0.0696742 0.214889 0)
(-0.0733097 0.225038 0)
(-0.0768801 0.234189 0)
(-0.0803411 0.2419 0)
(-0.0836522 0.247775 0)
(-0.0867804 0.251498 0)
(-0.0897027 0.252856 0)
(-0.0924109 0.251754 0)
(-0.0949073 0.248215 0)
(-1.2668e-05 0.0100442 0)
(-0.000126517 0.0272488 0)
(-0.000408853 0.0418717 0)
(-0.000848752 0.0542004 0)
(-0.00144311 0.0645127 0)
(-0.00218673 0.0730765 0)
(-0.0030695 0.0801459 0)
(-0.00407875 0.0859579 0)
(-0.0052009 0.0907296 0)
(-0.00642238 0.0946562 0)
(-0.00773051 0.0979104 0)
(-0.00911398 0.100643 0)
(-0.0105632 0.102982 0)
(-0.0120707 0.105039 0)
(-0.0136308 0.106907 0)
(-0.01524 0.108665 0)
(-0.0168967 0.110379 0)
(-0.0186012 0.112111 0)
(-0.0203557 0.113916 0)
(-0.0221638 0.115847 0)
(-0.0240306 0.11796 0)
(-0.0259627 0.120319 0)
(-0.0279674 0.122993 0)
(-0.0300527 0.126063 0)
(-0.0322268 0.129623 0)
(-0.0344971 0.133773 0)
(-0.0368698 0.13862 0)
(-0.0393488 0.144266 0)
(-0.0419348 0.150798 0)
(-0.0446245 0.15827 0)
(-0.0474096 0.166692 0)
(-0.0502768 0.176005 0)
(-0.0532076 0.186073 0)
(-0.0561785 0.196675 0)
(-0.0591622 0.207504 0)
(-0.0621283 0.218181 0)
(-0.0650454 0.228274 0)
(-0.0678825 0.237332 0)
(-0.0706117 0.244917 0)
(-0.0732097 0.250639 0)
(-0.0756603 0.25419 0)
(-0.0779564 0.255367 0)
(-0.0801027 0.254089 0)
(-0.0821108 0.250388 0)
(-8.85229e-06 0.0101008 0)
(-0.000102369 0.0274393 0)
(-0.000343908 0.0422083 0)
(-0.000729858 0.0546874 0)
(-0.0012607 0.065148 0)
(-0.00193345 0.0738529 0)
(-0.00273978 0.0810527 0)
(-0.00366825 0.0869825 0)
(-0.00470604 0.0918588 0)
(-0.00583994 0.0958769 0)
(-0.0070573 0.0992106 0)
(-0.0083466 0.102012 0)
(-0.0096979 0.104411 0)
(-0.011103 0.106522 0)
(-0.0125558 0.108438 0)
(-0.0140519 0.110241 0)
(-0.0155888 0.112 0)
(-0.0171659 0.113777 0)
(-0.0187841 0.115628 0)
(-0.0204458 0.11761 0)
(-0.0221546 0.11978 0)
(-0.0239149 0.1222 0)
(-0.025732 0.124942 0)
(-0.027611 0.128088 0)
(-0.0295566 0.131728 0)
(-0.0315723 0.135964 0)
(-0.0336599 0.140899 0)
(-0.0358182 0.146633 0)
(-0.0380429 0.153249 0)
(-0.0403256 0.160797 0)
(-0.0426541 0.169282 0)
(-0.0450124 0.17864 0)
(-0.0473812 0.188734 0)
(-0.0497391 0.199336 0)
(-0.0520639 0.21014 0)
(-0.0543337 0.220765 0)
(-0.0565286 0.230782 0)
(-0.0586322 0.239743 0)
(-0.0606324 0.247214 0)
(-0.0625229 0.252811 0)
(-0.064304 0.256235 0)
(-0.065983 0.257291 0)
(-0.0675762 0.255904 0)
(-0.0691027 0.252116 0)
(-5.17302e-06 0.0101449 0)
(-7.89188e-05 0.0275979 0)
(-0.000280568 0.042498 0)
(-0.000613468 0.0551162 0)
(-0.00108149 0.0657163 0)
(-0.00168375 0.0745555 0)
(-0.00241361 0.0818806 0)
(-0.00326084 0.0879241 0)
(-0.00421335 0.0929013 0)
(-0.00525828 0.0970075 0)
(-0.00638303 0.100417 0)
(-0.00757586 0.103283 0)
(-0.00882644 0.105739 0)
(-0.010126 0.107898 0)
(-0.0114678 0.109856 0)
(-0.0128465 0.111698 0)
(-0.0142589 0.113494 0)
(-0.0157033 0.115307 0)
(-0.0171793 0.117196 0)
(-0.0186881 0.119218 0)
(-0.0202315 0.12143 0)
(-0.0218122 0.123897 0)
(-0.023433 0.12669 0)
(-0.0250962 0.12989 0)
(-0.0268033 0.133587 0)
(-0.0285538 0.137879 0)
(-0.030345 0.142869 0)
(-0.0321713 0.148653 0)
(-0.0340232 0.155309 0)
(-0.035888 0.162886 0)
(-0.0377498 0.171383 0)
(-0.0395901 0.180735 0)
(-0.0413895 0.190801 0)
(-0.0431288 0.201357 0)
(-0.0447911 0.212095 0)
(-0.0463632 0.222639 0)
(-0.0478368 0.232563 0)
(-0.0492093 0.241424 0)
(-0.0504845 0.248794 0)
(-0.0516725 0.254298 0)
(-0.052789 0.25764 0)
(-0.0538551 0.258632 0)
(-0.0548972 0.257205 0)
(-0.0559417 0.253401 0)
(-1.66879e-06 0.010177 0)
(-5.64087e-05 0.0277256 0)
(-0.000219476 0.042742 0)
(-0.000500742 0.0554876 0)
(-0.000907221 0.0662184 0)
(-0.00143999 0.075185 0)
(-0.002094 0.0826297 0)
(-0.00286018 0.0887823 0)
(-0.00372711 0.0938562 0)
(-0.00468231 0.0980466 0)
(-0.0057132 0.101528 0)
(-0.00680785 0.104455 0)
(-0.00795553 0.106962 0)
(-0.00914697 0.109163 0)
(-0.0103746 0.111159 0)
(-0.0116324 0.113032 0)
(-0.0129162 0.114857 0)
(-0.0142233 0.116698 0)
(-0.0155522 0.118614 0)
(-0.0169025 0.120663 0)
(-0.0182745 0.122905 0)
(-0.019669 0.125403 0)
(-0.0210864 0.128228 0)
(-0.0225263 0.13146 0)
(-0.0239869 0.135188 0)
(-0.0254641 0.139509 0)
(-0.026951 0.14452 0)
(-0.0284374 0.150315 0)
(-0.0299095 0.15697 0)
(-0.0313504 0.164528 0)
(-0.0327405 0.172988 0)
(-0.0340596 0.182283 0)
(-0.035288 0.192274 0)
(-0.0364091 0.202737 0)
(-0.0374112 0.213371 0)
(-0.0382892 0.223804 0)
(-0.0390461 0.233619 0)
(-0.0396927 0.242379 0)
(-0.0402479 0.249664 0)
(-0.0407373 0.255103 0)
(-0.0411917 0.258408 0)
(-0.0416445 0.259392 0)
(-0.042132 0.257987 0)
(-0.0426871 0.254235 0)
(1.62121e-06 0.0101976 0)
(-3.50882e-05 0.0278235 0)
(-0.0001613 0.0429419 0)
(-0.000392889 0.0558035 0)
(-0.000739729 0.0666556 0)
(-0.00120468 0.0757423 0)
(-0.00178414 0.0833007 0)
(-0.00247011 0.0895572 0)
(-0.00325184 0.0947234 0)
(-0.00411719 0.0989937 0)
(-0.00505362 0.102543 0)
(-0.00604901 0.105526 0)
(-0.00709223 0.108078 0)
(-0.00817349 0.110317 0)
(-0.00928452 0.112342 0)
(-0.0104186 0.11424 0)
(-0.0115706 0.116085 0)
(-0.0127366 0.117944 0)
(-0.0139142 0.119876 0)
(-0.0151015 0.121941 0)
(-0.0162973 0.124198 0)
(-0.0175003 0.12671 0)
(-0.0187088 0.129549 0)
(-0.0199198 0.132792 0)
(-0.0211283 0.136527 0)
(-0.0223267 0.140846 0)
(-0.0235044 0.145846 0)
(-0.0246468 0.151615 0)
(-0.025736 0.158226 0)
(-0.0267513 0.165721 0)
(-0.0276701 0.174096 0)
(-0.0284702 0.183285 0)
(-0.029132 0.193152 0)
(-0.0296409 0.203479 0)
(-0.0299902 0.213972 0)
(-0.0301826 0.224267 0)
(-0.0302313 0.233957 0)
(-0.0301598 0.242614 0)
(-0.0300011 0.249826 0)
(-0.0297955 0.25523 0)
(-0.0295875 0.258538 0)
(-0.029423 0.259566 0)
(-0.0293473 0.258244 0)
(-0.0293998 0.254608 0)
(4.65754e-06 0.0102074 0)
(-1.52141e-05 0.0278935 0)
(-0.000106731 0.0430996 0)
(-0.000291165 0.0560658 0)
(-0.000580918 0.0670302 0)
(-0.000980402 0.0762294 0)
(-0.00148734 0.0838951 0)
(-0.00209468 0.09025 0)
(-0.00279232 0.0955034 0)
(-0.00356839 0.0998485 0)
(-0.00441042 0.10346 0)
(-0.00530611 0.106494 0)
(-0.00624398 0.109087 0)
(-0.00721372 0.111356 0)
(-0.00820639 0.113404 0)
(-0.00921454 0.115319 0)
(-0.0102321 0.117175 0)
(-0.0112543 0.119042 0)
(-0.0122773 0.120979 0)
(-0.0132981 0.123047 0)
(-0.0143139 0.125305 0)
(-0.0153216 0.127816 0)
(-0.0163173 0.130649 0)
(-0.0172956 0.133881 0)
(-0.0182485 0.137598 0)
(-0.0191654 0.141888 0)
(-0.0200318 0.146843 0)
(-0.0208294 0.15255 0)
(-0.0215368 0.159078 0)
(-0.0221294 0.166466 0)
(-0.0225819 0.17471 0)
(-0.0228704 0.183748 0)
(-0.0229751 0.193446 0)
(-0.0228833 0.203594 0)
(-0.0225926 0.213909 0)
(-0.0221125 0.224038 0)
(-0.0214654 0.233587 0)
(-0.0206863 0.242137 0)
(-0.0198213 0.249287 0)
(-0.0189241 0.254678 0)
(-0.0180524 0.258026 0)
(-0.0172636 0.259146 0)
(-0.016612 0.25796 0)
(-0.0161438 0.2545 0)
(7.40133e-06 0.0102073 0)
(2.94838e-06 0.0279372 0)
(-5.64845e-05 0.0432179 0)
(-0.000196871 0.0562776 0)
(-0.000432771 0.0673449 0)
(-0.000769891 0.0766488 0)
(-0.00120708 0.084415 0)
(-0.00173814 0.0908622 0)
(-0.00235351 0.0961972 0)
(-0.00304161 0.100612 0)
(-0.00379 0.104281 0)
(-0.00458626 0.10736 0)
(-0.00541854 0.109986 0)
(-0.00627607 0.11228 0)
(-0.0071493 0.114343 0)
(-0.00803005 0.116266 0)
(-0.00891142 0.118125 0)
(-0.00978764 0.119989 0)
(-0.0106538 0.121921 0)
(-0.0115057 0.123978 0)
(-0.0123389 0.126222 0)
(-0.0131488 0.128715 0)
(-0.0139294 0.131524 0)
(-0.0146729 0.134725 0)
(-0.015369 0.138399 0)
(-0.0160038 0.142632 0)
(-0.0165597 0.147513 0)
(-0.0170152 0.153124 0)
(-0.0173451 0.15953 0)
(-0.017522 0.16677 0)
(-0.0175178 0.17484 0)
(-0.0173069 0.183681 0)
(-0.0168691 0.193167 0)
(-0.0161932 0.203096 0)
(-0.0152802 0.213197 0)
(-0.0141452 0.223133 0)
(-0.0128187 0.232521 0)
(-0.0113458 0.240959 0)
(-0.00978413 0.248052 0)
(-0.00819966 0.253449 0)
(-0.0066624 0.256868 0)
(-0.00524072 0.25812 0)
(-0.00399804 0.25712 0)
(-0.00298717 0.253888 0)
(9.81374e-06 0.0101982 0)
(1.91292e-05 0.0279572 0)
(-1.13002e-05 0.0432998 0)
(-0.000111361 0.0564423 0)
(-0.000297351 0.0676033 0)
(-0.000575975 0.0770037 0)
(-0.000946987 0.0848634 0)
(-0.0014049 0.0913965 0)
(-0.00194062 0.0968069 0)
(-0.0025428 0.101285 0)
(-0.00319906 0.105005 0)
(-0.00389683 0.108123 0)
(-0.00462398 0.110777 0)
(-0.00536929 0.113087 0)
(-0.00612268 0.115158 0)
(-0.00687527 0.117081 0)
(-0.00761938 0.118933 0)
(-0.00834837 0.120785 0)
(-0.00905633 0.122698 0)
(-0.00973774 0.124733 0)
(-0.010387 0.126949 0)
(-0.0109978 0.129407 0)
(-0.0115624 0.132174 0)
(-0.012071 0.135323 0)
(-0.0125108 0.138931 0)
(-0.0128654 0.143081 0)
(-0.0131143 0.147858 0)
(-0.013233 0.153339 0)
(-0.0131934 0.159589 0)
(-0.0129651 0.166643 0)
(-0.0125178 0.174499 0)
(-0.011824 0.183102 0)
(-0.010863 0.192333 0)
(-0.00962426 0.202005 0)
(-0.00811142 0.211858 0)
(-0.00634383 0.221571 0)
(-0.00435853 0.230779 0)
(-0.00220934 0.239092 0)
(3.66499e-05 0.246129 0)
(0.00230209 0.251545 0)
(0.00450577 0.255059 0)
(0.006569 0.256476 0)
(0.00841929 0.255703 0)
(0.00999644 0.252746 0)
(1.18386e-05 0.0101812 0)
(3.30745e-05 0.0279559 0)
(2.80862e-05 0.0433489 0)
(-3.60577e-05 0.0565641 0)
(-0.000176816 0.0678096 0)
(-0.000401612 0.0772985 0)
(-0.000710854 0.085244 0)
(-0.00109959 0.0918559 0)
(-0.00155907 0.0973352 0)
(-0.00207818 0.10187 0)
(-0.00264455 0.105635 0)
(-0.00324549 0.108785 0)
(-0.00386865 0.111459 0)
(-0.00450241 0.113779 0)
(-0.0051362 0.11585 0)
(-0.00576056 0.117763 0)
(-0.00636709 0.119599 0)
(-0.00694835 0.121427 0)
(-0.00749748 0.123311 0)
(-0.00800793 0.12531 0)
(-0.00847284 0.127483 0)
(-0.00888451 0.129892 0)
(-0.00923364 0.132599 0)
(-0.00950857 0.135675 0)
(-0.00969447 0.139195 0)
(-0.00977272 0.143238 0)
(-0.00972041 0.147884 0)
(-0.00951042 0.153206 0)
(-0.00911207 0.159266 0)
(-0.00849252 0.166098 0)
(-0.00761917 0.173703 0)
(-0.00646299 0.182029 0)
(-0.00500215 0.190968 0)
(-0.00322619 0.200344 0)
(-0.00114086 0.209914 0)
(0.00123236 0.219375 0)
(0.00385167 0.228379 0)
(0.00665557 0.236554 0)
(0.0095693 0.24353 0)
(0.0125062 0.248969 0)
(0.015375 0.252592 0)
(0.0180871 0.254201 0)
(0.0205608 0.253689 0)
(0.0227283 0.251047 0)
(1.34466e-05 0.0101577 0)
(4.44613e-05 0.0279366 0)
(6.08509e-05 0.0433696 0)
(2.75894e-05 0.0566477 0)
(-7.34141e-05 0.067969 0)
(-0.00024989 0.0775379 0)
(-0.000502631 0.0855615 0)
(-0.000827009 0.0922448 0)
(-0.00121452 0.0977856 0)
(-0.00165418 0.102371 0)
(-0.00213365 0.106172 0)
(-0.00264016 0.109347 0)
(-0.00316115 0.112034 0)
(-0.00368469 0.114355 0)
(-0.00419979 0.116417 0)
(-0.00469649 0.118312 0)
(-0.0051658 0.120122 0)
(-0.00559953 0.121916 0)
(-0.00599005 0.123758 0)
(-0.00632985 0.125709 0)
(-0.00661101 0.127826 0)
(-0.00682463 0.130169 0)
(-0.00696004 0.1328 0)
(-0.00700402 0.135785 0)
(-0.00694004 0.139197 0)
(-0.00674762 0.143109 0)
(-0.00640184 0.147598 0)
(-0.00587346 0.152734 0)
(-0.00512967 0.158574 0)
(-0.00413558 0.165153 0)
(-0.00285642 0.172472 0)
(-0.00126175 0.180487 0)
(0.000671635 0.189098 0)
(0.00295502 0.198142 0)
(0.00558248 0.207395 0)
(0.00852987 0.216574 0)
(0.0117524 0.225348 0)
(0.0151849 0.233365 0)
(0.0187455 0.240268 0)
(0.0223401 0.245728 0)
(0.0258688 0.249468 0)
(0.0292336 0.251284 0)
(0.0323444 0.251058 0)
(0.0351246 0.248763 0)
(1.45913e-05 0.0101289 0)
(5.29879e-05 0.0279027 0)
(8.61434e-05 0.0433666 0)
(7.80272e-05 0.056699 0)
(1.04939e-05 0.0680873 0)
(-0.000124057 0.0777278 0)
(-0.000326458 0.0858213 0)
(-0.000592196 0.092568 0)
(-0.000912853 0.0981625 0)
(-0.00127751 0.10279 0)
(-0.00167384 0.106621 0)
(-0.00208902 0.109812 0)
(-0.00251032 0.112504 0)
(-0.0029256 0.114817 0)
(-0.00332355 0.116862 0)
(-0.00369379 0.11873 0)
(-0.00402683 0.120502 0)
(-0.00431392 0.122252 0)
(-0.00454674 0.124041 0)
(-0.00471698 0.125931 0)
(-0.00481587 0.127979 0)
(-0.00483347 0.130242 0)
(-0.00475798 0.13278 0)
(-0.00457496 0.135657 0)
(-0.00426647 0.138941 0)
(-0.00381055 0.142702 0)
(-0.00318081 0.147012 0)
(-0.00234622 0.151937 0)
(-0.00127235 0.157531 0)
(7.71591e-05 0.163828 0)
(0.00173927 0.170832 0)
(0.00374627 0.178503 0)
(0.00612215 0.186753 0)
(0.00887947 0.195433 0)
(0.0120134 0.204337 0)
(0.0154992 0.213201 0)
(0.0192907 0.221717 0)
(0.0233201 0.229552 0)
(0.0275013 0.236364 0)
(0.0317343 0.241835 0)
(0.0359122 0.24569 0)
(0.0399288 0.247719 0)
(0.0436855 0.247793 0)
(0.0470971 0.245869 0)
(1.52211e-05 0.0100965 0)
(5.8326e-05 0.0278581 0)
(0.000103066 0.0433455 0)
(0.00011361 0.0567242 0)
(7.24004e-05 0.0681714 0)
(-2.75453e-05 0.0778751 0)
(-0.000186702 0.0860299 0)
(-0.00040043 0.0928314 0)
(-0.000660227 0.0984711 0)
(-0.00095515 0.103132 0)
(-0.00127287 0.106984 0)
(-0.0016005 0.110184 0)
(-0.00192526 0.112871 0)
(-0.00223484 0.115168 0)
(-0.00251773 0.117185 0)
(-0.00276325 0.119016 0)
(-0.00296157 0.120742 0)
(-0.00310347 0.122436 0)
(-0.00318011 0.124162 0)
(-0.00318258 0.125979 0)
(-0.00310139 0.127944 0)
(-0.00292582 0.130112 0)
(-0.0026432 0.132543 0)
(-0.00223815 0.135295 0)
(-0.00169164 0.138434 0)
(-0.000980656 0.142026 0)
(-7.78724e-05 0.146137 0)
(0.00104921 0.150829 0)
(0.00243632 0.156153 0)
(0.00412086 0.162144 0)
(0.00614116 0.168807 0)
(0.0085313 0.176107 0)
(0.011317 0.183966 0)
(0.0145122 0.192251 0)
(0.0181138 0.200774 0)
(0.0220981 0.209292 0)
(0.0264192 0.217521 0)
(0.0310086 0.225146 0)
(0.035778 0.231844 0)
(0.0406238 0.237307 0)
(0.0454336 0.241265 0)
(0.0500943 0.243504 0)
(0.0544994 0.243884 0)
(0.0585554 0.242344 0)
(1.52801e-05 0.0100623 0)
(6.01158e-05 0.0278071 0)
(0.000110643 0.0433124 0)
(0.000132544 0.0567305 0)
(0.00010964 0.0682287 0)
(3.60137e-05 0.0779873 0)
(-8.80102e-05 0.0861945 0)
(-0.000257292 0.0930417 0)
(-0.000463114 0.0987174 0)
(-0.000694397 0.103403 0)
(-0.000938766 0.107267 0)
(-0.00118333 0.110465 0)
(-0.00141529 0.113138 0)
(-0.00162229 0.11541 0)
(-0.00179273 0.11739 0)
(-0.00191579 0.119174 0)
(-0.00198139 0.120843 0)
(-0.00198005 0.122471 0)
(-0.00190256 0.124121 0)
(-0.00173957 0.125853 0)
(-0.00148112 0.127723 0)
(-0.0011159 0.129784 0)
(-0.000630648 0.132093 0)
(-9.40909e-06 0.134707 0)
(0.000767664 0.137685 0)
(0.00172437 0.14109 0)
(0.00288867 0.144984 0)
(0.00429355 0.149426 0)
(0.00597553 0.154462 0)
(0.00797321 0.160126 0)
(0.0103257 0.166424 0)
(0.0130686 0.17333 0)
(0.0162294 0.180773 0)
(0.0198242 0.188636 0)
(0.0238519 0.196749 0)
(0.0282912 0.204891 0)
(0.0330981 0.212801 0)
(0.0382053 0.220185 0)
(0.0435243 0.226739 0)
(0.04895 0.232169 0)
(0.0543664 0.23621 0)
(0.0596552 0.238646 0)
(0.0647032 0.239327 0)
(0.0694084 0.238174 0)
(1.47051e-05 0.0100282 0)
(5.79603e-05 0.0277547 0)
(0.000107816 0.0432742 0)
(0.000132909 0.0567261 0)
(0.000119283 0.0682682 0)
(6.26508e-05 0.0780731 0)
(-3.53419e-05 0.0863235 0)
(-0.00016872 0.0932068 0)
(-0.000328371 0.0989084 0)
(-0.000502931 0.103608 0)
(-0.000679953 0.107473 0)
(-0.00084657 0.11066 0)
(-0.000990035 0.11331 0)
(-0.00109808 0.115546 0)
(-0.00115913 0.117479 0)
(-0.00116236 0.119205 0)
(-0.00109766 0.120807 0)
(-0.000955423 0.122358 0)
(-0.000726237 0.123922 0)
(-0.00040054 0.125558 0)
(3.18779e-05 0.127321 0)
(0.000582696 0.129263 0)
(0.00126552 0.131437 0)
(0.00209664 0.133898 0)
(0.00309622 0.136702 0)
(0.00428848 0.139907 0)
(0.00570179 0.14357 0)
(0.00736914 0.147745 0)
(0.00932721 0.152477 0)
(0.0116153 0.157797 0)
(0.0142733 0.163714 0)
(0.0173377 0.170205 0)
(0.0208381 0.177212 0)
(0.0247925 0.184629 0)
(0.0292027 0.192305 0)
(0.0340507 0.200043 0)
(0.0392957 0.207601 0)
(0.0448732 0.214712 0)
(0.0506969 0.22109 0)
(0.056662 0.226455 0)
(0.0626514 0.23055 0)
(0.0685431 0.233159 0)
(0.0742184 0.234125 0)
(0.079568 0.233352 0)
(1.34356e-05 0.00999628 0)
(5.14418e-05 0.0277063 0)
(9.3429e-05 0.0432385 0)
(0.000112587 0.0567201 0)
(9.81181e-05 0.0682995 0)
(4.80748e-05 0.0781423 0)
(-3.40839e-05 0.0864265 0)
(-0.000141173 0.0933353 0)
(-0.000263389 0.099052 0)
(-0.00038897 0.103754 0)
(-0.000505363 0.10761 0)
(-0.000599761 0.110775 0)
(-0.000659568 0.11339 0)
(-0.000672711 0.11558 0)
(-0.000627806 0.117455 0)
(-0.000514202 0.119113 0)
(-0.000321893 0.120636 0)
(-4.13946e-05 0.1221 0)
(0.000336739 0.123567 0)
(0.000822117 0.125096 0)
(0.00142496 0.12674 0)
(0.00215701 0.128552 0)