/*--------------------------------*- C++ -*----------------------------------*\
  =========                 |
  \\      /  F ield         | OpenFOAM: The Open Source CFD Toolbox
   \\    /   O peration     | Website:  https://openfoam.org
    \\  /    A nd           | Version:  9
     \\/     M anipulation  |
\*---------------------------------------------------------------------------*/
FoamFile
{
    format      ascii;
    class       surfaceScalarField;
    location    "0.5";
    object      phi;
}
// * * * * * * * * * * * * * * * * * * * * * * * * * * * * * * * * * * * * * //

dimensions      [0 3 -1 0 0 0 0];

internalField   nonuniform List<scalar> 
2427
(
9.16868e-11
-9.17738e-11
9.78159e-11
-6.12853e-12
-4.7202e-11
1.45019e-10
-3.47878e-10
3.00678e-10
-7.87059e-10
4.39182e-10
-1.3402e-09
5.5314e-10
-1.98318e-09
6.42983e-10
-2.69494e-09
7.11759e-10
-3.45796e-09
7.63028e-10
-4.25812e-09
8.00157e-10
-5.08422e-09
8.26101e-10
-5.92757e-09
8.43349e-10
-6.78151e-09
8.53937e-10
-7.641e-09
8.59498e-10
-8.50232e-09
8.61315e-10
-9.36269e-09
8.60378e-10
-1.02201e-08
8.5743e-10
-1.10731e-08
8.53016e-10
-1.19207e-08
8.4752e-10
-1.27619e-08
8.41196e-10
-1.35961e-08
8.34201e-10
-1.44227e-08
8.26611e-10
-1.52411e-08
8.18443e-10
-1.60508e-08
8.09667e-10
-1.6851e-08
8.00222e-10
-1.7641e-08
7.9002e-10
-1.84199e-08
7.78919e-10
-1.91866e-08
7.6663e-10
7.52907e-10
7.07529e-12
-9.88484e-11
-2.23992e-10
2.24941e-10
-7.92803e-10
7.13832e-10
-1.70858e-09
1.21646e-09
-2.94329e-09
1.67389e-09
-4.45353e-09
2.06338e-09
-6.1915e-09
2.38095e-09
-8.11151e-09
2.63177e-09
-1.0173e-08
2.82448e-09
-1.23413e-08
2.96846e-09
-1.45878e-08
3.07265e-09
-1.68895e-08
3.14499e-09
-1.92278e-08
3.19227e-09
-2.15884e-08
3.2201e-09
-2.39601e-08
3.23301e-09
-2.63343e-08
3.23461e-09
-2.87045e-08
3.22764e-09
-3.10657e-08
3.2142e-09
-3.3414e-08
3.19579e-09
-3.57462e-08
3.17346e-09
-3.80599e-08
3.14789e-09
-4.03528e-08
3.11946e-09
-4.26227e-08
3.08832e-09
-4.48674e-08
3.05444e-09
-4.70849e-08
3.01765e-09
-4.92725e-08
2.97766e-09
-5.14276e-08
2.93405e-09
-5.35471e-08
2.88611e-09
2.83332e-09
-1.46515e-10
4.76677e-11
-7.22655e-10
8.01083e-10
-1.78362e-09
1.7748e-09
-3.32653e-09
2.75937e-09
-5.3145e-09
3.66187e-09
-7.69283e-09
4.44172e-09
-1.04005e-08
5.08865e-09
-1.33775e-08
5.60874e-09
-1.65685e-08
6.01554e-09
-1.99253e-08
6.32522e-09
-2.34066e-08
6.55395e-09
-2.69783e-08
6.71668e-09
-3.06125e-08
6.8265e-09
-3.42869e-08
6.89451e-09
-3.79838e-08
6.92988e-09
-4.16891e-08
6.93996e-09
-4.5392e-08
6.93052e-09
-4.90838e-08
6.90598e-09
-5.27576e-08
6.86961e-09
-5.64079e-08
6.82374e-09
-6.00299e-08
6.7699e-09
-6.36195e-08
6.70902e-09
-6.71727e-08
6.64155e-09
-7.06858e-08
6.56752e-09
-7.41548e-08
6.48666e-09
-7.75756e-08
6.39848e-09
-8.09438e-08
6.3022e-09
-8.42543e-08
6.1967e-09
6.08121e-09
-3.10751e-10
3.5842e-10
-1.2556e-09
1.74594e-09
-2.82684e-09
3.34604e-09
-4.99228e-09
4.92481e-09
-7.69834e-09
6.36793e-09
-1.0879e-08
7.62235e-09
-1.44635e-08
8.67316e-09
-1.83824e-08
9.52767e-09
-2.25713e-08
1.02044e-08
-2.69725e-08
1.07265e-08
-3.15364e-08
1.11178e-08
-3.62207e-08
1.1401e-08
-4.09905e-08
1.15963e-08
-4.58172e-08
1.17212e-08
-5.06776e-08
1.17903e-08
-5.55531e-08
1.18154e-08
-6.04288e-08
1.18062e-08
-6.52926e-08
1.17698e-08
-7.01349e-08
1.17119e-08
-7.49476e-08
1.16364e-08
-7.97237e-08
1.1546e-08
-8.44571e-08
1.14424e-08
-8.9142e-08
1.13265e-08
-9.37731e-08
1.11986e-08
-9.83446e-08
1.10582e-08
-1.02851e-07
1.09047e-08
-1.07286e-07
1.07369e-08
-1.11642e-07
1.05535e-08
1.03533e-08
-4.65334e-10
8.23755e-10
-1.76753e-09
3.04814e-09
-3.83583e-09
5.41434e-09
-6.60002e-09
7.689e-09
-9.98415e-09
9.75206e-09
-1.39083e-08
1.15465e-08
-1.82925e-08
1.30573e-08
-2.30596e-08
1.42948e-08
-2.81385e-08
1.52834e-08
-3.34656e-08
1.60535e-08
-3.8985e-08
1.66372e-08
-4.4649e-08
1.7065e-08
-5.04174e-08
1.73648e-08
-5.62569e-08
1.75607e-08
-6.214e-08
1.76734e-08
-6.80443e-08
1.77198e-08
-7.39516e-08
1.77134e-08
-7.98467e-08
1.7665e-08
-8.57175e-08
1.75827e-08
-9.15535e-08
1.74724e-08
-9.73457e-08
1.73382e-08
-1.03086e-07
1.71827e-08
-1.08767e-07
1.70075e-08
-1.14381e-07
1.68129e-08
-1.19922e-07
1.65988e-08
-1.25381e-07
1.63641e-08
-1.30752e-07
1.61075e-08
-1.36026e-07
1.58272e-08
1.55218e-08
-6.02706e-10
1.42646e-09
-2.2355e-09
4.68094e-09
-4.76955e-09
7.94838e-09
-8.09535e-09
1.10148e-08
-1.21116e-08
1.37683e-08
-1.67225e-08
1.61574e-08
-2.18373e-08
1.81722e-08
-2.73721e-08
1.98296e-08
-3.32501e-08
2.11613e-08
-3.94028e-08
2.22062e-08
-4.57702e-08
2.30046e-08
-5.23007e-08
2.35955e-08
-5.89503e-08
2.40143e-08
-6.56821e-08
2.42925e-08
-7.24654e-08
2.44568e-08
-7.92749e-08
2.45292e-08
-8.60895e-08
2.4528e-08
-9.28918e-08
2.44673e-08
-9.96672e-08
2.4358e-08
-1.06403e-07
2.42083e-08
-1.13089e-07
2.40237e-08
-1.19714e-07
2.38081e-08
-1.2627e-07
2.35636e-08
-1.32748e-07
2.32909e-08
-1.39139e-07
2.29899e-08
-1.45435e-07
2.26595e-08
-1.51625e-07
2.22981e-08
-1.57701e-07
2.19034e-08
2.14739e-08
-7.2234e-10
2.1488e-09
-2.65286e-09
6.61145e-09
-5.61273e-09
1.09083e-08
-9.45537e-09
1.48575e-08
-1.40537e-08
1.83667e-08
-1.92946e-08
2.13983e-08
-2.50762e-08
2.39538e-08
-3.13068e-08
2.60601e-08
-3.79042e-08
2.77588e-08
-4.47962e-08
2.90981e-08
-5.19192e-08
3.01277e-08
-5.92187e-08
3.0895e-08
-6.66481e-08
3.14437e-08
-7.41679e-08
3.18123e-08
-8.1745e-08
3.20339e-08
-8.93518e-08
3.2136e-08
-9.6965e-08
3.21412e-08
-1.04565e-07
3.20675e-08
-1.12136e-07
3.19288e-08
-1.19663e-07
3.17353e-08
-1.27134e-07
3.14944e-08
-1.34537e-07
3.12111e-08
-1.41861e-07
3.08882e-08
-1.49097e-07
3.05268e-08
-1.56234e-07
3.0127e-08
-1.63263e-07
2.96876e-08
-1.70171e-07
2.92068e-08
-1.7695e-07
2.86818e-08
2.8111e-08
-8.25935e-10
2.97474e-09
-3.02071e-09
8.80623e-09
-6.36388e-09
1.42514e-08
-1.06756e-08
1.91692e-08
-1.58042e-08
2.34953e-08
-2.16192e-08
2.72133e-08
-2.80068e-08
3.03414e-08
-3.48673e-08
3.29206e-08
-4.21133e-08
3.50048e-08
-4.96684e-08
3.66532e-08
-5.74663e-08
3.79256e-08
-6.54503e-08
3.88789e-08
-7.35714e-08
3.95649e-08
-8.17886e-08
4.00295e-08
-9.00669e-08
4.03122e-08
-9.83769e-08
4.0446e-08
-1.06694e-07
4.04581e-08
-1.14997e-07
4.03703e-08
-1.23267e-07
4.01994e-08
-1.3149e-07
3.9958e-08
-1.39651e-07
3.96553e-08
-1.47737e-07
3.92973e-08
-1.55737e-07
3.88878e-08
-1.63638e-07
3.84283e-08
-1.7143e-07
3.79189e-08
-1.79101e-07
3.73585e-08
-1.86639e-07
3.6745e-08
-1.94032e-07
3.60753e-08
3.53475e-08
-9.15588e-10
3.89033e-09
-3.34317e-09
1.12338e-08
-7.02797e-09
1.79362e-08
-1.17613e-08
2.39025e-08
-1.73688e-08
2.91028e-08
-2.37034e-08
3.35479e-08
-3.06395e-08
3.72775e-08
-3.80691e-08
4.03502e-08
-4.58992e-08
4.28349e-08
-5.40496e-08
4.48036e-08
-6.24513e-08
4.63274e-08
-7.10455e-08
4.74731e-08
-7.97817e-08
4.83012e-08
-8.86173e-08
4.88651e-08
-9.75161e-08
4.92109e-08
-1.06447e-07
4.93773e-08
-1.15385e-07
4.9396e-08
-1.24307e-07
4.92924e-08
-1.33195e-07
4.90866e-08
-1.4203e-07
4.87933e-08
-1.50798e-07
4.84236e-08
-1.59486e-07
4.79848e-08
-1.68079e-07
4.74812e-08
-1.76566e-07
4.6915e-08
-1.84933e-07
4.62865e-08
-1.93169e-07
4.55944e-08
-2.01261e-07
4.48364e-08
-2.09195e-07
4.40091e-08
4.31105e-08
-9.9328e-10
4.88361e-09
-3.62517e-09
1.38657e-08
-7.61261e-09
2.19237e-08
-1.27221e-08
2.9012e-08
-1.87594e-08
3.51401e-08
-2.55617e-08
4.03502e-08
-3.29921e-08
4.47078e-08
-4.09345e-08
4.82926e-08
-4.929e-08
5.11904e-08
-5.79748e-08
5.34883e-08
-6.69171e-08
5.52697e-08
-7.60561e-08
5.66121e-08
-8.53402e-08
5.75852e-08
-9.47253e-08
5.82503e-08
-1.04174e-07
5.86601e-08
-1.13656e-07
5.88588e-08
-1.23143e-07
5.8883e-08
-1.32612e-07
5.87618e-08
-1.42044e-07
5.85182e-08
-1.5142e-07
5.81693e-08
-1.60724e-07
5.7728e-08
-1.69942e-07
5.72026e-08
-1.79059e-07
5.65985e-08
-1.88063e-07
5.59182e-08
-1.96938e-07
5.51621e-08
-2.05673e-07
5.43289e-08
-2.14252e-07
5.34161e-08
-2.22663e-07
5.242e-08
5.13382e-08
-1.06075e-09
5.94436e-09
-3.87165e-09
1.66766e-08
-8.12622e-09
2.61782e-08
-1.357e-08
3.44558e-08
-1.99909e-08
4.15611e-08
-2.72124e-08
4.75717e-08
-3.50866e-08
5.25821e-08
-4.34897e-08
5.66956e-08
-5.23173e-08
6.0018e-08
-6.14815e-08
6.26525e-08
-7.0908e-08
6.46963e-08
-8.05341e-08
6.62382e-08
-9.03068e-08
6.73579e-08
-1.00181e-07
6.81248e-08
-1.1012e-07
6.85985e-08
-1.2009e-07
6.88289e-08
-1.30064e-07
6.88571e-08
-1.40018e-07
6.87162e-08
-1.49932e-07
6.8432e-08
-1.59787e-07
6.80242e-08
-1.69566e-07
6.75071e-08
-1.79254e-07
6.68903e-08
-1.88836e-07
6.61801e-08
-1.98297e-07
6.53792e-08
-2.07623e-07
6.44884e-08
-2.168e-07
6.35062e-08
-2.25814e-07
6.24299e-08
-2.34649e-07
6.12553e-08
5.99799e-08
-1.11948e-09
7.06384e-09
-4.08718e-09
1.96443e-08
-8.57708e-09
3.06681e-08
-1.43168e-08
4.01955e-08
-2.10792e-08
4.83234e-08
-2.8675e-08
5.51675e-08
-3.69467e-08
6.08538e-08
-4.57629e-08
6.55118e-08
-5.5014e-08
6.92691e-08
-6.46081e-08
7.22467e-08
-7.44685e-08
7.45566e-08
-8.45306e-08
7.63003e-08
-9.47401e-08
7.75675e-08
-1.05052e-07
7.84362e-08
-1.15426e-07
7.89731e-08
-1.25831e-07
7.92341e-08
-1.36239e-07
7.92648e-08
-1.46625e-07
7.91022e-08
-1.56968e-07
7.8775e-08
-1.67249e-07
7.83053e-08
-1.77451e-07
7.77089e-08
-1.87557e-07
7.69968e-08
-1.97553e-07
7.61757e-08
-2.07423e-07
7.52491e-08
-2.17152e-07
7.42177e-08
-2.26726e-07
7.308e-08
-2.36129e-07
7.18329e-08
-2.45346e-07
7.04719e-08
6.89943e-08
-1.17074e-09
8.23458e-09
-4.27587e-09
2.27494e-08
-8.97295e-09
3.53652e-08
-1.49745e-08
4.61971e-08
-2.204e-08
5.5389e-08
-2.99694e-08
6.30968e-08
-3.85962e-08
6.94806e-08
-4.77823e-08
7.4698e-08
-5.74129e-08
7.88998e-08
-6.73927e-08
8.22265e-08
-7.76421e-08
8.48061e-08
-8.8095e-08
8.67531e-08
-9.86958e-08
8.81683e-08
-1.09398e-07
8.91387e-08
-1.20163e-07
8.97381e-08
-1.30958e-07
9.00284e-08
-1.41753e-07
9.00602e-08
-1.52525e-07
8.98741e-08
-1.63252e-07
8.95019e-08
-1.73914e-07
8.89679e-08
-1.84495e-07
8.82895e-08
-1.94977e-07
8.7479e-08
-2.05345e-07
8.65437e-08
-2.15584e-07
8.54874e-08
-2.25677e-07
8.43109e-08
-2.35609e-07
8.30126e-08
-2.45366e-07
8.15892e-08
-2.54929e-07
8.00357e-08
7.83491e-08
-1.21561e-09
9.45019e-09
-4.44135e-09
2.59752e-08
-9.32088e-09
4.02448e-08
-1.55538e-08
5.243e-08
-2.28883e-08
6.27235e-08
-3.11145e-08
7.13231e-08
-4.00584e-08
7.84244e-08
-4.95754e-08
8.4215e-08
-5.95462e-08
8.88706e-08
-6.9872e-08
9.25522e-08
-8.04707e-08
9.54048e-08
-9.12744e-08
9.75569e-08
-1.02227e-07
9.91207e-08
-1.13281e-07
1.00192e-07
-1.24396e-07
1.00854e-07
-1.3554e-07
1.01172e-07
-1.46684e-07
1.01204e-07
-1.57803e-07
1.00993e-07
-1.68876e-07
1.00575e-07
-1.79883e-07
9.99748e-08
-1.90806e-07
9.92127e-08
-2.01629e-07
9.83016e-08
-2.12335e-07
9.72497e-08
-2.22908e-07
9.60611e-08
-2.33334e-07
9.47365e-08
-2.43596e-07
9.32743e-08
-2.53677e-07
9.16706e-08
-2.63562e-07
8.99201e-08
8.80198e-08
-1.25499e-09
1.07052e-08
-4.58683e-09
2.9307e-08
-9.62721e-09
4.52851e-08
-1.60647e-08
5.88675e-08
-2.36379e-08
7.02966e-08
-3.21284e-08
7.98136e-08
-4.13551e-08
8.76512e-08
-5.11683e-08
9.40282e-08
-6.14442e-08
9.91464e-08
-7.20806e-08
1.03189e-07
-8.29935e-08
1.06318e-07
-9.41132e-08
1.08677e-07
-1.05382e-07
1.1039e-07
-1.16753e-07
1.11563e-07
-1.28185e-07
1.12286e-07
-1.39645e-07
1.12633e-07
-1.51105e-07
1.12664e-07
-1.62539e-07
1.12427e-07
-1.73926e-07
1.11962e-07
-1.85246e-07
1.11295e-07
-1.96481e-07
1.10448e-07
-2.07616e-07
1.09436e-07
-2.18632e-07
1.08266e-07
-2.29515e-07
1.06944e-07
-2.40249e-07
1.0547e-07
-2.50816e-07
1.03842e-07
-2.61202e-07
1.02056e-07
-2.71388e-07
1.00106e-07
9.7989e-08
-1.2897e-09
1.19949e-08
-4.71507e-09
3.27324e-08
-9.89758e-09
5.04677e-08
-1.65163e-08
6.54863e-08
-2.43014e-08
7.80816e-08
-3.30273e-08
8.85395e-08
-4.25068e-08
9.71307e-08
-5.25853e-08
1.04107e-07
-6.31351e-08
1.09696e-07
-7.40512e-08
1.14105e-07
-8.52474e-08
1.17514e-07
-9.66525e-08
1.20082e-07
-1.08208e-07
1.21945e-07
-1.19866e-07
1.23221e-07
-1.31586e-07
1.24005e-07
-1.43333e-07
1.2438e-07
-1.5508e-07
1.24411e-07
-1.66802e-07
1.24149e-07
-1.78477e-07
1.23636e-07
-1.90085e-07
1.22903e-07
-2.01609e-07
1.21972e-07
-2.13032e-07
1.20859e-07
-2.24338e-07
1.19572e-07
-2.3551e-07
1.18116e-07
-2.46533e-07
1.16493e-07
-2.5739e-07
1.14699e-07
-2.68064e-07
1.1273e-07
-2.78538e-07
1.1058e-07
1.08245e-07
-1.32038e-09
1.33153e-08
-4.82852e-09
3.62405e-08
-1.01369e-08
5.57761e-08
-1.69166e-08
7.22659e-08
-2.48903e-08
8.60553e-08
-3.38262e-08
9.74755e-08
-4.35321e-08
1.06837e-07
-5.38487e-08
1.14423e-07
-6.4645e-08
1.20493e-07
-7.58135e-08
1.25273e-07
-8.7266e-08
1.28966e-07
-9.89301e-08
1.31746e-07
-1.10746e-07
1.33762e-07
-1.22666e-07
1.3514e-07
-1.34648e-07
1.35988e-07
-1.46659e-07
1.36391e-07
-1.58671e-07
1.36422e-07
-1.70658e-07
1.36136e-07
-1.82599e-07
1.35578e-07
-1.94476e-07
1.3478e-07
-2.06269e-07
1.33766e-07
-2.17963e-07
1.32553e-07
-2.29541e-07
1.3115e-07
-2.40988e-07
1.29563e-07
-2.52287e-07
1.27791e-07
-2.63421e-07
1.25833e-07
-2.74374e-07
1.23683e-07
-2.85128e-07
1.21334e-07
1.18783e-07
-1.34764e-09
1.46629e-08
-4.92929e-09
3.98222e-08
-1.03496e-08
6.11964e-08
-1.72726e-08
7.91888e-08
-2.54146e-08
9.41974e-08
-3.45386e-08
1.066e-07
-4.44476e-08
1.16746e-07
-5.49785e-08
1.24954e-07
-6.59976e-08
1.31512e-07
-7.73947e-08
1.3667e-07
-8.90801e-08
1.40652e-07
-1.0098e-07
1.43646e-07
-1.13035e-07
1.45816e-07
-1.25195e-07
1.473e-07
-1.37419e-07
1.48212e-07
-1.49673e-07
1.48646e-07
-1.6193e-07
1.48679e-07
-1.74164e-07
1.48371e-07
-1.86355e-07
1.47769e-07
-1.98483e-07
1.46908e-07
-2.10531e-07
1.45814e-07
-2.22483e-07
1.44504e-07
-2.34322e-07
1.42989e-07
-2.46032e-07
1.41273e-07
-2.57598e-07
1.39358e-07
-2.69003e-07
1.37238e-07
-2.8023e-07
1.3491e-07
-2.91262e-07
1.32365e-07
1.29602e-07
-1.37197e-09
1.60349e-08
-5.01918e-09
4.34694e-08
-1.05395e-08
6.67167e-08
-1.75905e-08
8.62399e-08
-2.58834e-08
1.0249e-07
-3.51764e-08
1.15892e-07
-4.52682e-08
1.26837e-07
-5.5993e-08
1.35679e-07
-6.72139e-08
1.42733e-07
-7.88191e-08
1.48276e-07
-9.07172e-08
1.5255e-07
-1.02834e-07
1.55762e-07
-1.15107e-07
1.5809e-07
-1.27489e-07
1.59682e-07
-1.39938e-07
1.6066e-07
-1.52419e-07
1.61128e-07
-1.64906e-07
1.61165e-07
-1.77373e-07
1.60838e-07
-1.89799e-07
1.60195e-07
-2.02167e-07
1.59276e-07
-2.14459e-07
1.58105e-07
-2.26658e-07
1.56703e-07
-2.38749e-07
1.5508e-07
-2.50717e-07
1.53241e-07
-2.62545e-07
1.51186e-07
-2.74218e-07
1.48911e-07
-2.85717e-07
1.4641e-07
-2.97025e-07
1.43673e-07
1.40704e-07
-1.39378e-09
1.74287e-08
-5.09977e-09
4.71754e-08
-1.07097e-08
7.23266e-08
-1.78758e-08
9.3406e-08
-2.63045e-08
1.10919e-07
-3.57497e-08
1.25338e-07
-4.60072e-08
1.37095e-07
-5.69078e-08
1.4658e-07
-6.83127e-08
1.54137e-07
-8.01082e-08
1.60071e-07
-9.22016e-08
1.64643e-07
-1.04517e-07
1.68078e-07
-1.16994e-07
1.70567e-07
-1.29583e-07
1.7227e-07
-1.42241e-07
1.73319e-07
-1.54936e-07
1.73823e-07
-1.67639e-07
1.73869e-07
-1.80328e-07
1.73526e-07
-1.9298e-07
1.72848e-07
-2.05578e-07
1.71874e-07
-2.18105e-07
1.70633e-07
-2.30546e-07
1.69144e-07
-2.42885e-07
1.67419e-07
-2.55106e-07
1.65462e-07
-2.67195e-07
1.63275e-07
-2.79135e-07
1.60851e-07
-2.90907e-07
1.58183e-07
-3.02499e-07
1.55265e-07
-1.41344e-09
1.88421e-08
-5.17236e-09
5.09343e-08
-1.0863e-08
7.80173e-08
-1.8133e-08
1.00676e-07
-2.66844e-08
1.1947e-07
-3.62678e-08
1.34921e-07
-4.66758e-08
1.47503e-07
-5.77368e-08
1.57641e-07
-6.93102e-08
1.65711e-07
-8.12807e-08
1.72042e-07
-9.35546e-08
1.76917e-07
-1.06056e-07
1.80579e-07
-1.18722e-07
1.83234e-07
-1.31504e-07
1.85052e-07
-1.4436e-07
1.86175e-07
-1.57258e-07
1.8672e-07
-1.70168e-07
1.86779e-07
-1.83068e-07
1.86426e-07
-1.95939e-07
1.85718e-07
-2.08761e-07
1.84696e-07
-2.21519e-07
1.83391e-07
-2.34197e-07
1.81822e-07
-2.46781e-07
1.80003e-07
-2.59256e-07
1.77937e-07
-2.71606e-07
1.75625e-07
-2.83816e-07
1.73061e-07
-2.9587e-07
1.70237e-07
1.67149e-07
-1.43124e-09
2.02734e-08
-5.23807e-09
5.47411e-08
-1.10019e-08
8.37811e-08
-1.8366e-08
1.0804e-07
-2.70289e-08
1.28133e-07
-3.67381e-08
1.4463e-07
-4.72837e-08
1.58048e-07
-5.84919e-08
1.68849e-07
-7.02205e-08
1.77439e-07
-8.23529e-08
1.84174e-07
-9.47945e-08
1.89359e-07
-1.07469e-07
1.93253e-07
-1.20313e-07
1.96078e-07
-1.33278e-07
1.98016e-07
-1.46322e-07
1.99219e-07
-1.59413e-07
1.99811e-07
-1.72523e-07
1.99889e-07
-1.85628e-07
1.99532e-07
-1.98711e-07
1.988e-07
-2.11753e-07
1.97738e-07
-2.24738e-07
1.96376e-07
-2.37653e-07
1.94737e-07
-2.50482e-07
1.92832e-07
-2.63212e-07
1.90667e-07
-2.75828e-07
1.88241e-07
-2.88316e-07
1.85549e-07
-3.0066e-07
1.82581e-07
1.79334e-07
-1.44742e-09
2.17208e-08
-5.29778e-09
5.85915e-08
-1.11281e-08
8.96115e-08
-1.85779e-08
1.1549e-07
-2.73427e-08
1.36898e-07
-3.71671e-08
1.54455e-07
-4.7839e-08
1.6872e-07
-5.9183e-08
1.80193e-07
-7.10552e-08
1.89312e-07
-8.33383e-08
1.96457e-07
-9.59368e-08
2.01957e-07
-1.08774e-07
2.0609e-07
-1.21786e-07
2.09091e-07
-1.34925e-07
2.11155e-07
-1.48149e-07
2.12444e-07
-1.61426e-07
2.13088e-07
-1.74729e-07
2.13192e-07
-1.88035e-07
2.12838e-07
-2.01326e-07
2.12091e-07
-2.14585e-07
2.10996e-07
-2.27797e-07
2.09588e-07
-2.40948e-07
2.07888e-07
-2.54025e-07
2.05909e-07
-2.67014e-07
2.03656e-07
-2.79902e-07
2.01129e-07
-2.92674e-07
1.98321e-07
-3.05316e-07
1.95222e-07
1.9183e-07
-1.46216e-09
2.31829e-08
-5.3522e-09
6.24815e-08
-1.12432e-08
9.55025e-08
-1.87715e-08
1.23018e-07
-2.76296e-08
1.45756e-07
-3.75599e-08
1.64385e-07
-4.83484e-08
1.79509e-07
-5.98181e-08
1.91663e-07
-7.18241e-08
2.01318e-07
-8.42481e-08
2.08881e-07
-9.6994e-08
2.14703e-07
-1.09985e-07
2.19081e-07
-1.23158e-07
2.22264e-07
-1.36463e-07
2.2446e-07
-1.4986e-07
2.25841e-07
-1.63318e-07
2.26545e-07
-1.76809e-07
2.26683e-07
-1.90311e-07
2.26341e-07
-2.03808e-07
2.25588e-07
-2.17283e-07
2.24471e-07
-2.30721e-07
2.23027e-07
-2.4411e-07
2.21277e-07
-2.57437e-07
2.19236e-07
-2.7069e-07
2.16909e-07
-2.83856e-07
2.14294e-07
-2.9692e-07
2.11385e-07
-3.09869e-07
2.08172e-07
2.04649e-07
-1.47561e-09
2.46585e-08
-5.40188e-09
6.64078e-08
-1.13485e-08
1.01449e-07
-1.89486e-08
1.30618e-07
-2.78925e-08
1.547e-07
-3.79206e-08
1.74413e-07
-4.88171e-08
1.90405e-07
-6.04038e-08
2.03249e-07
-7.25348e-08
2.13449e-07
-8.50911e-08
2.21437e-07
-9.79764e-08
2.27588e-07
-1.11113e-07
2.32218e-07
-1.24439e-07
2.3559e-07
-1.37904e-07
2.37926e-07
-1.5147e-07
2.39406e-07
-1.65103e-07
2.40178e-07
-1.78778e-07
2.40358e-07
-1.92475e-07
2.40038e-07
-2.06175e-07
2.39288e-07
-2.19865e-07
2.38161e-07
-2.33531e-07
2.36692e-07
-2.4716e-07
2.34907e-07
-2.60742e-07
2.32818e-07
-2.74264e-07
2.30431e-07
-2.87713e-07
2.27744e-07
-3.01079e-07
2.2475e-07
-3.14345e-07
2.21438e-07
2.17802e-07
-1.48785e-09
2.61464e-08
-5.44721e-09
7.03672e-08
-1.14446e-08
1.07447e-07
-1.91108e-08
1.38284e-07
-2.81338e-08
1.63723e-07
-3.82523e-08
1.84532e-07
-4.92491e-08
2.01402e-07
-6.0945e-08
2.14945e-07
-7.31932e-08
2.25697e-07
-8.58743e-08
2.34119e-07
-9.88917e-08
2.40606e-07
-1.12168e-07
2.45494e-07
-1.2564e-07
2.49063e-07
-1.3926e-07
2.51546e-07
-1.52988e-07
2.53134e-07
-1.66793e-07
2.53983e-07
-1.8065e-07
2.54214e-07
-1.94538e-07
2.53926e-07
-2.08442e-07
2.53192e-07
-2.22347e-07
2.52066e-07
-2.36241e-07
2.50587e-07
-2.50114e-07
2.48779e-07
-2.63953e-07
2.46657e-07
-2.7775e-07
2.44227e-07
-2.91491e-07
2.41486e-07
-3.05166e-07
2.38425e-07
-3.18761e-07
2.35034e-07
2.31304e-07
-1.49896e-09
2.76454e-08
-5.48844e-09
7.43566e-08
-1.15323e-08
1.1349e-07
-1.92591e-08
1.46011e-07
-2.8355e-08
1.72819e-07
-3.85571e-08
1.94734e-07
-4.96472e-08
2.12492e-07
-6.14451e-08
2.26743e-07
-7.38035e-08
2.38055e-07
-8.66025e-08
2.46918e-07
-9.97454e-08
2.53749e-07
-1.13155e-07
2.58903e-07
-1.26769e-07
2.62676e-07
-1.40538e-07
2.65315e-07
-1.54424e-07
2.6702e-07
-1.68397e-07
2.67955e-07
-1.82432e-07
2.6825e-07
-1.9651e-07
2.68005e-07
-2.10616e-07
2.67298e-07
-2.24737e-07
2.66187e-07
-2.38862e-07
2.64711e-07
-2.5298e-07
2.62897e-07
-2.67082e-07
2.6076e-07
-2.81158e-07
2.58303e-07
-2.95199e-07
2.55526e-07
-3.09193e-07
2.52419e-07
-3.23128e-07
2.48969e-07
2.45168e-07
-1.50896e-09
2.91543e-08
-5.52569e-09
7.83734e-08
-1.16118e-08
1.19577e-07
-1.9394e-08
1.53793e-07
-2.85569e-08
1.81982e-07
-3.88364e-08
2.05013e-07
-5.00132e-08
2.23669e-07
-6.19065e-08
2.38637e-07
-7.43684e-08
2.50517e-07
-8.72789e-08
2.59828e-07
-1.00541e-07
2.67011e-07
-1.14078e-07
2.7244e-07
-1.27828e-07
2.76426e-07
-1.41742e-07
2.79229e-07
-1.55782e-07
2.81061e-07
-1.6992e-07
2.82093e-07
-1.84131e-07
2.8246e-07
-1.98397e-07
2.82271e-07
-2.12704e-07
2.81605e-07
-2.27041e-07
2.80523e-07
-2.41397e-07
2.79067e-07
-2.55763e-07
2.77263e-07
-2.70131e-07
2.75128e-07
-2.84493e-07
2.72665e-07
-2.9884e-07
2.69873e-07
-3.13162e-07
2.66741e-07
-3.27448e-07
2.63255e-07
2.59406e-07
-1.51783e-09
3.06721e-08
-5.55898e-09
8.24145e-08
-1.16833e-08
1.25701e-07
-1.95158e-08
1.61626e-07
-2.874e-08
1.91206e-07
-3.90907e-08
2.15364e-07
-5.03478e-08
2.34926e-07
-6.23301e-08
2.50619e-07
-7.48892e-08
2.63076e-07
-8.7905e-08
2.72844e-07
-1.01281e-07
2.80387e-07
-1.14939e-07
2.86098e-07
-1.2882e-07
2.90306e-07
-1.42874e-07
2.93283e-07
-1.57065e-07
2.95252e-07
-1.71363e-07
2.96391e-07
-1.85747e-07
2.96845e-07
-2.002e-07
2.96723e-07
-2.14707e-07
2.96113e-07
-2.29259e-07
2.95076e-07
-2.43847e-07
2.93655e-07
-2.58464e-07
2.9188e-07
-2.73102e-07
2.89766e-07
-2.87754e-07
2.87318e-07
-3.02414e-07
2.84532e-07
-3.17072e-07
2.81399e-07
-3.31719e-07
2.77903e-07
2.74033e-07
-1.52555e-09
3.21977e-08
-5.58824e-09
8.64772e-08
-1.17465e-08
1.31859e-07
-1.96243e-08
1.69504e-07
-2.89041e-08
2.00486e-07
-3.932e-08
2.2578e-07
-5.06512e-08
2.46257e-07
-6.27161e-08
2.62684e-07
-7.53661e-08
2.75726e-07
-8.8481e-08
2.85959e-07
-1.01964e-07
2.9387e-07
-1.15739e-07
2.99873e-07
-1.29745e-07
3.04312e-07
-1.43934e-07
3.07473e-07
-1.58271e-07
3.09588e-07
-1.72726e-07
3.10847e-07
-1.8728e-07
3.11398e-07
-2.01916e-07
3.1136e-07
-2.16623e-07
3.10819e-07
-2.3139e-07
3.09843e-07
-2.4621e-07
3.08476e-07
-2.61078e-07
3.06748e-07
-2.75989e-07
3.04676e-07
-2.90935e-07
3.02265e-07
-3.05913e-07
2.9951e-07
-3.20915e-07
2.96401e-07
-3.35933e-07
2.92921e-07
2.89059e-07
-1.53207e-09
3.37298e-08
-5.6133e-09
9.05585e-08
-1.18013e-08
1.38047e-07
-1.97192e-08
1.77422e-07
-2.90488e-08
2.09815e-07
-3.95237e-08
2.36255e-07
-5.09227e-08
2.57656e-07
-6.30637e-08
2.74825e-07
-7.57982e-08
2.88461e-07
-8.9006e-08
2.99166e-07
-1.02591e-07
3.07455e-07
-1.16476e-07
3.13758e-07
-1.30601e-07
3.18438e-07
-1.44921e-07
3.21792e-07
-1.59398e-07
3.24066e-07
-1.74007e-07
3.25456e-07
-1.88727e-07
3.26119e-07
-2.03544e-07
3.26176e-07
-2.18446e-07
3.25721e-07
-2.33426e-07
3.24823e-07
-2.48478e-07
3.23528e-07
-2.63599e-07
3.21868e-07
-2.78783e-07
3.1986e-07
-2.94027e-07
3.17509e-07
-3.09327e-07
3.1481e-07
-3.24679e-07
3.11753e-07
-3.40076e-07
3.08318e-07
3.04496e-07
-1.53732e-09
3.52671e-08
-5.63395e-09
9.46551e-08
-1.18472e-08
1.4426e-07
-1.97998e-08
1.85374e-07
-2.91733e-08
2.19189e-07
-3.97008e-08
2.46782e-07
-5.11609e-08
2.69116e-07
-6.33714e-08
2.87035e-07
-7.61837e-08
3.01273e-07
-8.94777e-08
3.1246e-07
-1.03157e-07
3.21134e-07
-1.17146e-07
3.27747e-07
-1.31386e-07
3.32677e-07
-1.45829e-07
3.36236e-07
-1.60443e-07
3.38679e-07
-1.752e-07
3.40213e-07
-1.90081e-07
3.41e-07
-2.05074e-07
3.41169e-07
-2.20169e-07
3.40816e-07
-2.3536e-07
3.40013e-07
-2.50642e-07
3.3881e-07
-2.66014e-07
3.37239e-07
-2.81472e-07
3.35318e-07
-2.97015e-07
3.33052e-07
-3.12641e-07
3.30436e-07
-3.28347e-07
3.27459e-07
-3.4413e-07
3.24101e-07
3.20351e-07
-1.5412e-09
3.68083e-08
-5.6499e-09
9.87638e-08
-1.18836e-08
1.50494e-07
-1.98653e-08
1.93356e-07
-2.92763e-08
2.286e-07
-3.98497e-08
2.57356e-07
-5.13641e-08
2.80631e-07
-6.36371e-08
2.99308e-07
-7.65202e-08
3.14156e-07
-8.98934e-08
3.25834e-07
-1.03661e-07
3.34902e-07
-1.17747e-07
3.41834e-07
-1.32094e-07
3.47023e-07
-1.46656e-07
3.50797e-07
-1.61398e-07
3.53422e-07
-1.76297e-07
3.55112e-07
-1.91335e-07
3.56038e-07
-2.065e-07
3.56333e-07
-2.21783e-07
3.561e-07
-2.3718e-07
3.55411e-07
-2.52689e-07
3.5432e-07
-2.68309e-07
3.52859e-07
-2.8404e-07
3.51049e-07
-2.99882e-07
3.48894e-07
-3.15835e-07
3.46389e-07
-3.31898e-07
3.43523e-07
-3.48071e-07
3.40273e-07
3.36631e-07
-1.54364e-09
3.83519e-08
-5.66084e-09
1.02881e-07
-1.19101e-08
1.56743e-07
-1.99147e-08
2.01361e-07
-2.93566e-08
2.38042e-07
-3.99688e-08
2.67968e-07
-5.15301e-08
2.92192e-07
-6.38581e-08
3.11636e-07
-7.68044e-08
3.27102e-07
-9.02493e-08
3.39279e-07
-1.04098e-07
3.4875e-07
-1.18274e-07
3.5601e-07
-1.3272e-07
3.6147e-07
-1.47393e-07
3.6547e-07
-1.62258e-07
3.68287e-07
-1.77292e-07
3.70146e-07
-1.9248e-07
3.71225e-07
-2.07809e-07
3.71663e-07
-2.23275e-07
3.71565e-07
-2.38873e-07
3.71009e-07
-2.54604e-07
3.70051e-07
-2.70469e-07
3.68724e-07
-2.86469e-07
3.67049e-07
-3.02607e-07
3.65032e-07
-3.18886e-07
3.62668e-07
-3.35308e-07
3.59944e-07
-3.51873e-07
3.56839e-07
3.5334e-07
-1.54451e-09
3.98965e-08
-5.66643e-09
1.07003e-07
-1.19258e-08
1.63003e-07
-1.99471e-08
2.09382e-07
-2.94126e-08
2.47507e-07
-4.00561e-08
2.78612e-07
-5.16564e-08
3.03792e-07
-6.40314e-08
3.24011e-07
-7.70329e-08
3.40104e-07
-9.05414e-08
3.52787e-07
-1.04462e-07
3.62671e-07
-1.1872e-07
3.70268e-07
-1.33258e-07
3.76008e-07
-1.48033e-07
3.80244e-07
-1.63013e-07
3.83267e-07
-1.78175e-07
3.85308e-07
-1.93504e-07
3.86555e-07
-2.08991e-07
3.8715e-07
-2.24632e-07
3.87206e-07
-2.40424e-07
3.86802e-07
-2.56371e-07
3.85997e-07
-2.72474e-07
3.84827e-07
-2.88738e-07
3.83313e-07
-3.05169e-07
3.81462e-07
-3.2177e-07
3.7927e-07
-3.38547e-07
3.76721e-07
-3.55504e-07
3.73796e-07
3.70481e-07
-1.54372e-09
4.14402e-08
-5.66632e-09
1.11126e-07
-1.19301e-08
1.69266e-07
-1.99611e-08
2.17413e-07
-2.94428e-08
2.56989e-07
-4.01095e-08
2.89278e-07
-5.17404e-08
3.15423e-07
-6.41538e-08
3.36425e-07
-7.72017e-08
3.53152e-07
-9.0765e-08
3.6635e-07
-1.04749e-07
3.76655e-07
-1.1908e-07
3.84599e-07
-1.33701e-07
3.90629e-07
-1.48569e-07
3.95113e-07
-1.63654e-07
3.98352e-07
-1.78934e-07
4.00588e-07
-1.94396e-07
4.02016e-07
-2.10032e-07
4.02786e-07
-2.25838e-07
4.03012e-07
-2.41816e-07
4.0278e-07
-2.5797e-07
4.0215e-07
-2.74303e-07
4.01161e-07
-2.90824e-07
3.99834e-07
-3.0754e-07
3.98178e-07
-3.24458e-07
3.96188e-07
-3.41587e-07
3.9385e-07
-3.58932e-07
3.91142e-07
3.88052e-07
-1.54117e-09
4.29814e-08
-5.66014e-09
1.15244e-07
-1.19223e-08
1.75529e-07
-1.99558e-08
2.25447e-07
-2.94455e-08
2.66479e-07
-4.01268e-08
2.9996e-07
-5.17793e-08
3.27076e-07
-6.42219e-08
3.48867e-07
-7.73068e-08
3.66237e-07
-9.09153e-08
3.79959e-07
-1.04953e-07
3.90693e-07
-1.19347e-07
3.98993e-07
-1.34041e-07
4.05322e-07
-1.48992e-07
4.10065e-07
-1.64172e-07
4.13532e-07
-1.7956e-07
4.15976e-07
-1.95144e-07
4.176e-07
-2.10917e-07
4.18559e-07
-2.26879e-07
4.18974e-07
-2.43032e-07
4.18933e-07
-2.59381e-07
4.18499e-07
-2.75935e-07
4.17714e-07
-2.92702e-07
4.16602e-07
-3.09694e-07
4.15169e-07
-3.2692e-07
4.13414e-07
-3.44392e-07
4.11322e-07
-3.6212e-07
4.0887e-07
4.06047e-07
-1.53675e-09
4.45181e-08
-5.64756e-09
1.19355e-07
-1.19016e-08
1.81783e-07
-1.99299e-08
2.33475e-07
-2.94191e-08
2.75968e-07
-4.01058e-08
3.10646e-07
-5.17704e-08
3.3874e-07
-6.42322e-08
3.61329e-07
-7.7344e-08
3.79349e-07
-9.09874e-08
3.93602e-07
-1.05069e-07
4.04774e-07
-1.19514e-07
4.13439e-07
-1.3427e-07
4.20078e-07
-1.49293e-07
4.25088e-07
-1.64557e-07
4.28795e-07
-1.80041e-07
4.3146e-07
-1.95734e-07
4.33293e-07
-2.11633e-07
4.34458e-07
-2.27737e-07
4.35078e-07
-2.44051e-07
4.35247e-07
-2.60584e-07
4.35032e-07
-2.77344e-07
4.34475e-07
-2.94346e-07
4.33603e-07
-3.116e-07
4.32424e-07
-3.29122e-07
4.30936e-07
-3.46927e-07
4.29126e-07
-3.65027e-07
4.2697e-07
4.24459e-07
-1.5304e-09
4.60485e-08
-5.62824e-09
1.23453e-07
-1.18674e-08
1.88022e-07
-1.98824e-08
2.4149e-07
-2.9362e-08
2.85447e-07
-4.00442e-08
3.21328e-07
-5.17108e-08
3.50407e-07
-6.41813e-08
3.738e-07
-7.73092e-08
3.92476e-07
-9.09763e-08
4.07269e-07
-1.05089e-07
4.18887e-07
-1.19576e-07
4.27925e-07
-1.3438e-07
4.34883e-07
-1.49464e-07
4.40171e-07
-1.64797e-07
4.44129e-07
-1.80364e-07
4.47027e-07
-1.96153e-07
4.49083e-07
-2.12162e-07
4.50467e-07
-2.28394e-07
4.5131e-07
-2.44855e-07
4.51708e-07
-2.61556e-07
4.51732e-07
-2.78508e-07
4.51428e-07
-2.95727e-07
4.50822e-07
-3.13229e-07
4.49926e-07
-3.31032e-07
4.48739e-07
-3.49153e-07
4.47247e-07
-3.67611e-07
4.45428e-07
4.43273e-07
-1.52205e-09
4.75706e-08
-5.6019e-09
1.27533e-07
-1.18191e-08
1.94239e-07
-1.98121e-08
2.49483e-07
-2.92725e-08
2.94908e-07
-3.99401e-08
3.31996e-07
-5.15977e-08
3.62064e-07
-6.40659e-08
3.86268e-07
-7.71982e-08
4.05609e-07
-9.08771e-08
4.20948e-07
-1.0501e-07
4.33019e-07
-1.19523e-07
4.42439e-07
-1.34365e-07
4.49724e-07
-1.49494e-07
4.553e-07
-1.64883e-07
4.59518e-07
-1.80517e-07
4.62661e-07
-1.96387e-07
4.64953e-07
-2.12491e-07
4.66571e-07
-2.28834e-07
4.67653e-07
-2.45425e-07
4.68299e-07
-2.62275e-07
4.68582e-07
-2.794e-07
4.68553e-07
-2.96818e-07
4.6824e-07
-3.14549e-07
4.67657e-07
-3.32613e-07
4.66803e-07
-3.51032e-07
4.65666e-07
-3.6983e-07
4.64225e-07
4.62472e-07
-1.51175e-09
4.90823e-08
-5.56835e-09
1.3159e-07
-1.17561e-08
2.00427e-07
-1.97181e-08
2.57445e-07
-2.91492e-08
3.04339e-07
-3.97914e-08
3.42638e-07
-5.14287e-08
3.73702e-07
-6.38825e-08
3.98722e-07
-7.70071e-08
4.18733e-07
-9.06851e-08
4.34626e-07
-1.04824e-07
4.47158e-07
-1.19352e-07
4.56967e-07
-1.34215e-07
4.64587e-07
-1.49375e-07
4.7046e-07
-1.64805e-07
4.74949e-07
-1.8049e-07
4.78346e-07
-1.96423e-07
4.80886e-07
-2.12604e-07
4.82752e-07
-2.29039e-07
4.84088e-07
-2.45738e-07
4.84999e-07
-2.62718e-07
4.85562e-07
-2.79995e-07
4.8583e-07
-2.9759e-07
4.85835e-07
-3.15526e-07
4.85593e-07
-3.33828e-07
4.85105e-07
-3.52522e-07
4.84361e-07
-3.71635e-07
4.83339e-07
4.82033e-07
-1.49948e-09
5.05818e-08
-5.52766e-09
1.35618e-07
-1.16778e-08
2.06577e-07
-1.95993e-08
2.65366e-07
-2.89906e-08
3.1373e-07
-3.95959e-08
3.53244e-07
-5.1201e-08
3.85307e-07
-6.36281e-08
4.11149e-07
-7.67319e-08
4.31837e-07
-9.03956e-08
4.4829e-07
-1.04527e-07
4.61289e-07
-1.19054e-07
4.71494e-07
-1.33923e-07
4.79457e-07
-1.49098e-07
4.85634e-07
-1.64551e-07
4.90402e-07
-1.80269e-07
4.94064e-07
-1.96246e-07
4.96863e-07
-2.12484e-07
4.9899e-07
-2.28989e-07
5.00593e-07
-2.45776e-07
5.01785e-07
-2.62861e-07
5.02647e-07
-2.80265e-07
5.03233e-07
-2.98011e-07
5.03581e-07
-3.16126e-07
5.03708e-07
-3.34638e-07
5.03617e-07
-3.53579e-07
5.03301e-07
-3.7298e-07
5.0274e-07
5.01928e-07
-1.48457e-09
-5.47878e-09
-1.15835e-08
2.12682e-07
-1.94544e-08
2.73237e-07
-2.87948e-08
3.2307e-07
-3.93515e-08
3.638e-07
-5.09119e-08
3.96867e-07
-6.32993e-08
4.23536e-07
-7.63688e-08
4.44907e-07
-9.00039e-08
4.61925e-07
-1.04112e-07
4.75397e-07
-1.18623e-07