/*--------------------------------*- C++ -*----------------------------------*\
  =========                 |
  \\      /  F ield         | OpenFOAM: The Open Source CFD Toolbox
   \\    /   O peration     | Website:  https://openfoam.org
    \\  /    A nd           | Version:  9
     \\/     M anipulation  |
\*---------------------------------------------------------------------------*/
FoamFile
{
    format      ascii;
    class       volVectorField;
    location    "0.5";
    object      U;
}
// * * * * * * * * * * * * * * * * * * * * * * * * * * * * * * * * * * * * * //

dimensions      [0 1 -1 0 0 0 0];

internalField   nonuniform List<vector> 
1250
(
(5.7687e-06 -5.76468e-06 0)
(1.22849e-05 -3.82341e-06 0)
(5.91116e-06 1.64322e-06 0)
(-1.64924e-05 7.12016e-06 0)
(-5.39793e-05 1.18024e-05 0)
(-0.000104081 1.54576e-05 0)
(-0.000164348 1.81823e-05 0)
(-0.000232496 2.01544e-05 0)
(-0.000306583 2.15416e-05 0)
(-0.000385027 2.2483e-05 0)
(-0.000466569 2.30901e-05 0)
(-0.000550222 2.34503e-05 0)
(-0.000635227 2.36309e-05 0)
(-0.000721006 2.36834e-05 0)
(-0.000807128 2.36464e-05 0)
(-0.000893274 2.35483e-05 0)
(-0.000979211 2.34097e-05 0)
(-0.00106477 2.32448e-05 0)
(-0.00114982 2.30629e-05 0)
(-0.00123428 2.28697e-05 0)
(-0.00131807 2.26681e-05 0)
(-0.00140112 2.24588e-05 0)
(-0.00148339 2.2241e-05 0)
(-0.00156482 2.20128e-05 0)
(-0.00164533 2.17718e-05 0)
(-0.00172486 2.15148e-05 0)
(-0.00180334 2.12365e-05 0)
(-0.00188065 2.09234e-05 0)
(-0.00195664 2.05634e-05 0)
(3.90534e-06 -1.23603e-05 0)
(-3.17442e-06 3.2273e-06 0)
(-4.25982e-05 3.0987e-05 0)
(-0.000117151 5.96317e-05 0)
(-0.000225506 8.53915e-05 0)
(-0.00036382 0.000106903 0)
(-0.00052733 0.00012409 0)
(-0.000711247 0.000137398 0)
(-0.000911212 0.000147425 0)
(-0.00112345 0.000154764 0)
(-0.00134482 0.000159955 0)
(-0.00157273 0.000163459 0)
(-0.00180512 0.000165659 0)
(-0.00204038 0.000166867 0)
(-0.00227724 0.000167329 0)
(-0.00251472 0.000167235 0)
(-0.00275209 0.000166733 0)
(-0.00298877 0.000165928 0)
(-0.00322433 0.000164897 0)
(-0.00345843 0.000163692 0)
(-0.00369079 0.000162345 0)
(-0.00392117 0.000160872 0)
(-0.00414937 0.000159278 0)
(-0.00437515 0.000157559 0)
(-0.00459832 0.000155703 0)
(-0.00481864 0.000153695 0)
(-0.00503586 0.000151507 0)
(-0.00524967 0.000149092 0)
(-0.00545972 0.000146412 0)
(-1.59625e-06 -6.06805e-06 0)
(-3.14433e-05 4.27336e-05 0)
(-0.000113123 0.000111851 0)
(-0.000244175 0.000182808 0)
(-0.000421852 0.000247805 0)
(-0.000641572 0.000303606 0)
(-0.000897355 0.000349492 0)
(-0.00118299 0.000386029 0)
(-0.00149265 0.000414321 0)
(-0.00182114 0.000435627 0)
(-0.00216396 0.000451177 0)
(-0.00251736 0.000462085 0)
(-0.00287827 0.000469312 0)
(-0.0032442 0.000473661 0)
(-0.00361315 0.000475788 0)
(-0.00398357 0.000476215 0)
(-0.00435422 0.000475345 0)
(-0.00472415 0.000473487 0)
(-0.00509258 0.000470865 0)
(-0.00545892 0.000467634 0)
(-0.00582264 0.000463899 0)
(-0.00618332 0.000459719 0)
(-0.00654056 0.000455119 0)
(-0.00689397 0.000450098 0)
(-0.00724317 0.000444634 0)
(-0.00758777 0.000438686 0)
(-0.00792735 0.000432195 0)
(-0.00826141 0.000425072 0)
(-0.00858942 0.000417251 0)
(-7.32621e-06 1.67645e-05 0)
(-6.1755e-05 0.000118736 0)
(-0.000188423 0.000243768 0)
(-0.000376962 0.0003692 0)
(-0.000622025 0.00048428 0)
(-0.000918026 0.000584133 0)
(-0.00125802 0.000667408 0)
(-0.00163485 0.00073474 0)
(-0.00204175 0.000787715 0)
(-0.00247257 0.00082829 0)
(-0.00292196 0.000858459 0)
(-0.00338532 0.000880088 0)
(-0.00385881 0.000894828 0)
(-0.00433927 0.000904092 0)
(-0.00482414 0.000909053 0)
(-0.00531135 0.000910657 0)
(-0.00579924 0.000909655 0)
(-0.00628649 0.000906622 0)
(-0.00677201 0.000901987 0)
(-0.00725495 0.000896057 0)
(-0.00773455 0.000889038 0)
(-0.00821017 0.000881057 0)
(-0.00868123 0.000872174 0)
(-0.00914717 0.000862401 0)
(-0.00960744 0.000851708 0)
(-0.0100615 0.000840032 0)
(-0.0105087 0.00082728 0)
(-0.0109484 0.000813321 0)
(-0.01138 0.000798062 0)
(-1.2524e-05 5.59106e-05 0)
(-9.05558e-05 0.000231527 0)
(-0.000261191 0.000426309 0)
(-0.000505517 0.000616454 0)
(-0.000814864 0.000789864 0)
(-0.00118222 0.000940805 0)
(-0.0015996 0.00106764 0)
(-0.00205901 0.00117118 0)
(-0.00255298 0.00125355 0)
(-0.00307476 0.00131739 0)
(-0.00361837 0.0013655 0)
(-0.00417862 0.00140053 0)
(-0.00475116 0.00142487 0)
(-0.00533231 0.0014406 0)
(-0.00591905 0.00144947 0)
(-0.00650893 0.00145291 0)
(-0.00709992 0.00145207 0)
(-0.00769037 0.00144784 0)
(-0.00827895 0.00144089 0)
(-0.00886453 0.00143172 0)
(-0.00944615 0.00142066 0)
(-0.010023 0.00140793 0)
(-0.0105942 0.00139363 0)
(-0.0111592 0.00137781 0)
(-0.0117171 0.00136042 0)
(-0.0122673 0.00134139 0)
(-0.012809 0.00132059 0)
(-0.0133414 0.00129785 0)
(-0.0138636 0.00127305 0)
(-1.69466e-05 0.000109654 0)
(-0.000116465 0.000378971 0)
(-0.000328167 0.000657291 0)
(-0.000624898 0.000921951 0)
(-0.000994433 0.00116104 0)
(-0.00142804 0.00136892 0)
(-0.00191651 0.00154417 0)
(-0.002451 0.00168809 0)
(-0.00302345 0.00180342 0)
(-0.00362658 0.0018936 0)
(-0.00425397 0.00196222 0)
(-0.00490006 0.00201276 0)
(-0.00556006 0.00204838 0)
(-0.00622997 0.00207185 0)
(-0.00690642 0.00208553 0)
(-0.00758664 0.00209137 0)
(-0.00826832 0.00209095 0)
(-0.00894957 0.0020855 0)
(-0.00962878 0.00207599 0)
(-0.0103046 0.0020631 0)
(-0.010976 0.00204732 0)
(-0.0116418 0.00202897 0)
(-0.0123011 0.00200822 0)
(-0.012953 0.00198513 0)
(-0.0135966 0.00195968 0)
(-0.0142312 0.00193177 0)
(-0.0148558 0.00190126 0)
(-0.0154693 0.00186792 0)
(-0.0160709 0.00183163 0)
(-2.06516e-05 0.000176244 0)
(-0.000139239 0.000557915 0)
(-0.000388265 0.000932999 0)
(-0.000733124 0.00128153 0)
(-0.00115813 0.00159305 0)
(-0.00165268 0.00186292 0)
(-0.00220622 0.00209056 0)
(-0.002809 0.00227808 0)
(-0.00345233 0.00242907 0)
(-0.00412849 0.00254786 0)
(-0.00483071 0.00263891 0)
(-0.0055531 0.00270653 0)
(-0.00629061 0.00275469 0)
(-0.00703897 0.00278686 0)
(-0.00779458 0.00280604 0)
(-0.0085544 0.0028147 0)
(-0.00931593 0.00281488 0)
(-0.0100771 0.00280818 0)
(-0.010836 0.00279585 0)
(-0.0115912 0.00277879 0)
(-0.0123414 0.00275767 0)
(-0.0130853 0.0027329 0)
(-0.013822 0.00270475 0)
(-0.0145503 0.00267329 0)
(-0.0152692 0.00263853 0)
(-0.0159777 0.00260036 0)
(-0.0166749 0.00255859 0)
(-0.0173595 0.00251299 0)
(-0.0180304 0.00246339 0)
(-2.37648e-05 0.000253974 0)
(-0.000159084 0.000764943 0)
(-0.000441491 0.00124918 0)
(-0.000829878 0.00169043 0)
(-0.00130536 0.00208069 0)
(-0.00185547 0.0024171 0)
(-0.00246827 0.00270051 0)
(-0.00313302 0.00293422 0)
(-0.00384039 0.00312294 0)
(-0.00458222 0.00327201 0)
(-0.00535141 0.00338686 0)
(-0.00614182 0.00347269 0)
(-0.0069482 0.00353428 0)
(-0.00776606 0.00357583 0)
(-0.00859163 0.00360097 0)
(-0.00942172 0.00361273 0)
(-0.0102536 0.0036136 0)
(-0.0110851 0.00360556 0)
(-0.0119142 0.00359015 0)
(-0.0127392 0.00356851 0)
(-0.0135587 0.00354146 0)
(-0.0143714 0.00350956 0)
(-0.015176 0.00347313 0)
(-0.0159713 0.00343232 0)
(-0.0167563 0.00338711 0)
(-0.0175297 0.00333741 0)
(-0.0182905 0.003283 0)
(-0.0190374 0.0032236 0)
(-0.019769 0.00315905 0)
(-2.64003e-05 0.000341332 0)
(-0.00017633 0.000996768 0)
(-0.000488315 0.00160156 0)
(-0.000915668 0.00214383 0)
(-0.00143666 0.00261875 0)
(-0.00203704 0.0030259 0)
(-0.00270349 0.00336809 0)
(-0.00342429 0.00365019 0)
(-0.00418943 0.00387828 0)
(-0.00499032 0.00405889 0)
(-0.00581952 0.00419852 0)
(-0.00667069 0.00430333 0)
(-0.00753837 0.00437894 0)
(-0.00841794 0.00443031 0)
(-0.0093055 0.0044617 0)
(-0.0101977 0.0044767 0)
(-0.0110918 0.00447826 0)
(-0.0119853 0.00446874 0)
(-0.0128762 0.00444997 0)
(-0.0137627 0.00442333 0)
(-0.0146433 0.00438984 0)
(-0.0155164 0.00435014 0)
(-0.0163808 0.00430466 0)
(-0.0172351 0.00425358 0)
(-0.0180781 0.00419691 0)
(-0.0189086 0.00413453 0)
(-0.0197253 0.00406623 0)
(-0.0205269 0.00399168 0)
(-0.0213119 0.00391069 0)
(-2.86486e-05 0.000437021 0)
(-0.000191316 0.00125038 0)
(-0.000529372 0.00198607 0)
(-0.000991373 0.00263704 0)
(-0.0015531 0.00320217 0)
(-0.00219868 0.003684 0)
(-0.00291347 0.00408771 0)
(-0.00368479 0.00442014 0)
(-0.00450197 0.00468896 0)
(-0.00535593 0.00490208 0)
(-0.00623894 0.00506721 0)
(-0.00714441 0.00519152 0)
(-0.00806676 0.00528152 0)
(-0.00900123 0.00534295 0)
(-0.0099438 0.00538072 0)
(-0.0108911 0.00539899 0)
(-0.0118401 0.00540116 0)
(-0.0127885 0.00538998 0)
(-0.013734 0.00536757 0)
(-0.0146748 0.00533556 0)
(-0.0156092 0.00529512 0)
(-0.0165357 0.00524704 0)
(-0.0174528 0.0051918 0)
(-0.0183591 0.00512965 0)
(-0.0192534 0.00506061 0)
(-0.0201342 0.00498457 0)
(-0.0210004 0.00490126 0)
(-0.0218502 0.00481036 0)
(-0.0226823 0.00471161 0)
(-3.05798e-05 0.000539937 0)
(-0.000204353 0.00152309 0)
(-0.000565324 0.00239899 0)
(-0.001058 0.00316569 0)
(-0.00165601 0.00382617 0)
(-0.00234203 0.00438635 0)
(-0.0031002 0.00485414 0)
(-0.00391693 0.00523864 0)
(-0.00478086 0.00554939 0)
(-0.00568247 0.00579583 0)
(-0.00661372 0.00598698 0)
(-0.0075678 0.00613113 0)
(-0.00853896 0.00623574 0)
(-0.00952236 0.00630733 0)
(-0.0105139 0.00635151 0)
(-0.0115101 0.006373 0)
(-0.0125079 0.00637565 0)
(-0.0135049 0.0063626 0)
(-0.0144988 0.00633627 0)
(-0.0154877 0.00629852 0)
(-0.0164698 0.00625069 0)
(-0.0174435 0.0061937 0)
(-0.0184073 0.00612811 0)
(-0.0193598 0.00605419 0)
(-0.0202995 0.00597201 0)
(-0.0212251 0.00588142 0)
(-0.0221351 0.00578217 0)
(-0.0230278 0.00567385 0)
(-0.0239019 0.00555623 0)
(-3.22484e-05 0.000649133 0)
(-0.000215714 0.00181251 0)
(-0.000596805 0.00283694 0)
(-0.00111657 0.00372575 0)
(-0.0017468 0.00448633 0)
(-0.00246887 0.00512827 0)
(-0.00326585 0.00566254 0)
(-0.00412326 0.00610073 0)
(-0.00502914 0.00645447 0)
(-0.0059735 0.00673491 0)
(-0.006948 0.0069525 0)
(-0.0079456 0.00711673 0)
(-0.00896043 0.00723606 0)
(-0.00998753 0.00731785 0)
(-0.0110227 0.00736839 0)
(-0.0120625 0.00739299 0)
(-0.0131038 0.00739597 0)
(-0.014144 0.00738084 0)
(-0.015181 0.00735034 0)
(-0.0162126 0.00730652 0)
(-0.0172372 0.00725092 0)
(-0.018253 0.00718457 0)
(-0.0192585 0.00710811 0)
(-0.0202521 0.00702185 0)
(-0.0212324 0.00692587 0)
(-0.022198 0.00682002 0)
(-0.0231473 0.006704 0)
(-0.0240786 0.0065774 0)
(-0.0249904 0.00643994 0)
(-3.36976e-05 0.000763804 0)
(-0.000225637 0.00211659 0)
(-0.000624392 0.00329693 0)
(-0.00116806 0.00431361 0)
(-0.00182683 0.00517861 0)
(-0.00258098 0.00590548 0)
(-0.00341259 0.00650846 0)
(-0.0043064 0.00700187 0)
(-0.00524986 0.00739958 0)
(-0.00623256 0.00771465 0)
(-0.00724584 0.00795904 0)
(-0.00828248 0.00814353 0)
(-0.00933643 0.00827764 0)
(-0.0104027 0.0083696 0)
(-0.0114769 0.00842643 0)
(-0.0125557 0.00845402 0)
(-0.0136358 0.00845718 0)
(-0.0147148 0.00843978 0)
(-0.0157902 0.00840486 0)
(-0.0168602 0.00835472 0)
(-0.0179227 0.00829104 0)
(-0.0189763 0.00821497 0)
(-0.0200192 0.00812723 0)
(-0.0210499 0.00802817 0)
(-0.0220668 0.00791787 0)
(-0.0230685 0.00779617 0)
(-0.0240535 0.00766276 0)
(-0.0250198 0.00751717 0)
(-0.0259659 0.0073591 0)
(-3.49621e-05 0.000883259 0)
(-0.000234324 0.00243351 0)
(-0.000648602 0.00377633 0)
(-0.00121334 0.00492603 0)
(-0.00189739 0.00589941 0)
(-0.00268005 0.00671411 0)
(-0.00354253 0.00738788 0)
(-0.00446887 0.00793794 0)
(-0.00544599 0.00838058 0)
(-0.00646308 0.00873085 0)
(-0.00751117 0.00900237 0)
(-0.00858285 0.00920729 0)
(-0.00967195 0.00935622 0)
(-0.0107733 0.00945833 0)
(-0.0118827 0.00952138 0)
(-0.0129965 0.00955185 0)
(-0.0141115 0.00955504 0)
(-0.0152253 0.00953522 0)
(-0.0163354 0.00949571 0)
(-0.0174398 0.00943904 0)
(-0.0185368 0.00936705 0)
(-0.0196245 0.009281 0)
(-0.0207013 0.00918169 0)
(-0.0217657 0.00906949 0)
(-0.022816 0.0089445 0)
(-0.0238508 0.00880654 0)
(-0.0248685 0.00865526 0)
(-0.0258671 0.00849015 0)
(-0.0268451 0.0083109 0)
(-3.60704e-05 0.00100691 0)
(-0.000241953 0.00276171 0)
(-0.000669893 0.00427281 0)
(-0.00125324 0.00556016 0)
(-0.00195967 0.00664549 0)
(-0.00276766 0.00755071 0)
(-0.00365766 0.0082972 0)
(-0.00461308 0.00890526 0)
(-0.00562035 0.00939373 0)
(-0.00666829 0.00977978 0)
(-0.00774768 0.0100788 0)
(-0.0088509 0.0103043 0)
(-0.00997165 0.0104681 0)
(-0.0111047 0.0105803 0)
(-0.0122458 0.0106495 0)
(-0.0133912 0.0106828 0)
(-0.0145378 0.010686 0)
(-0.0156831 0.0106636 0)
(-0.0168246 0.0106194 0)
(-0.0179605 0.0105561 0)
(-0.0190887 0.0104757 0)
(-0.0202076 0.0103795 0)
(-0.0213156 0.0102684 0)
(-0.0224109 0.0101429 0)
(-0.0234921 0.010003 0)
(-0.0245576 0.00984849 0)
(-0.0256058 0.00967904 0)
(-0.0266347 0.00949406 0)
(-0.0276426 0.00929324 0)
(-3.70461e-05 0.00113424 0)
(-0.000248673 0.00309985 0)
(-0.000688668 0.00478438 0)
(-0.00128847 0.00621351 0)
(-0.00201475 0.00741401 0)
(-0.00284527 0.0084122 0)
(-0.00375982 0.00923322 0)
(-0.00474125 0.00990056 0)
(-0.00577557 0.0104357 0)
(-0.00685125 0.0108581 0)
(-0.00795883 0.0111849 0)
(-0.00909051 0.0114312 0)
(-0.0102399 0.01161 0)
(-0.0114017 0.0117324 0)
(-0.0125715 0.0118078 0)
(-0.0137456 0.0118439 0)
(-0.014921 0.0118469 0)
(-0.016095 0.011822 0)
(-0.0172654 0.0117731 0)
(-0.01843 0.0117031 0)
(-0.0195871 0.0116142 0)
(-0.0207348 0.0115079 0)
(-0.0218717 0.011385 0)
(-0.022996 0.0112461 0)
(-0.0241061 0.0110912 0)
(-0.0252005 0.0109201 0)
(-0.0262776 0.0107323 0)
(-0.0273353 0.0105273 0)
(-0.028372 0.0103047 0)
(-3.7909e-05 0.00126483 0)
(-0.000254616 0.00344677 0)
(-0.000705279 0.0053093 0)
(-0.00131967 0.0068839 0)
(-0.0020636 0.00820248 0)
(-0.00291419 0.00929587 0)
(-0.00385067 0.0101931 0)
(-0.00485543 0.0109209 0)
(-0.00591405 0.0115037 0)
(-0.00701474 0.011963 0)
(-0.0081478 0.012318 0)
(-0.00930527 0.0125853 0)
(-0.0104806 0.0127792 0)
(-0.0116686 0.0129119 0)
(-0.0128646 0.0129935 0)
(-0.014065 0.0130323 0)
(-0.0152668 0.0130354 0)
(-0.0164673 0.013008 0)
(-0.0176643 0.0129544 0)
(-0.0188556 0.0128778 0)
(-0.0200395 0.0127805 0)
(-0.0212143 0.0126641 0)
(-0.0223783 0.0125296 0)
(-0.02353 0.0123773 0)
(-0.0246676 0.0122075 0)
(-0.0257897 0.0120199 0)
(-0.0268947 0.0118139 0)
(-0.0279804 0.0115889 0)
(-0.0290451 0.0113445 0)
(-3.86759e-05 0.00139831 0)
(-0.000259893 0.00380147 0)
(-0.000720033 0.00584605 0)
(-0.0013474 0.00756943 0)
(-0.00210706 0.00900873 0)
(-0.00297559 0.0101994 0)
(-0.00393174 0.0111744 0)
(-0.00495745 0.0119639 0)
(-0.006038 0.012595 0)
(-0.0071613 0.0130918 0)
(-0.00831747 0.0134754 0)
(-0.00949842 0.013764 0)
(-0.0106975 0.0139733 0)
(-0.0119094 0.0141163 0)
(-0.0131295 0.0142043 0)
(-0.0143542 0.0142461 0)
(-0.0155804 0.0142492 0)
(-0.0168056 0.0142194 0)
(-0.0180273 0.0141613 0)
(-0.0192437 0.0140783 0)
(-0.020453 0.0139729 0)
(-0.0216533 0.0138466 0)
(-0.0228432 0.0137007 0)
(-0.0240211 0.0135354 0)
(-0.0251853 0.0133509 0)
(-0.0263343 0.013147 0)
(-0.0274665 0.012923 0)
(-0.0285798 0.0126782 0)
(-0.0296724 0.0124123 0)
(-3.9361e-05 0.00153435 0)
(-0.000264601 0.00416309 0)
(-0.000733195 0.00639335 0)
(-0.00137216 0.00826847 0)
(-0.00214589 0.00983088 0)
(-0.00303052 0.0111207 0)
(-0.00400434 0.0121749 0)
(-0.00504897 0.0130271 0)
(-0.00614935 0.0137075 0)
(-0.0072932 0.0142424 0)
(-0.00847044 0.0146551 0)
(-0.00967286 0.0149653 0)
(-0.0108938 0.0151901 0)
(-0.0121277 0.0153438 0)
(-0.0133701 0.0154383 0)
(-0.0146174 0.0154833 0)
(-0.0158664 0.0154867 0)
(-0.0171147 0.0154548 0)
(-0.0183599 0.0153925 0)
(-0.0196 0.0153034 0)
(-0.0208334 0.0151901 0)
(-0.0220583 0.0150544 0)
(-0.0232733 0.0148973 0)
(-0.0244766 0.0147194 0)
(-0.0256668 0.0145207 0)
(-0.0268423 0.0143009 0)
(-0.0280015 0.0140593 0)
(-0.0291421 0.0137951 0)
(-0.0302627 0.0135082 0)
(-3.99761e-05 0.0016727 0)
(-0.000268822 0.0045309 0)
(-0.000744994 0.0069501 0)
(-0.00139435 0.00897962 0)
(-0.00218073 0.0106673 0)
(-0.00307986 0.0120579 0)
(-0.00406967 0.0131927 0)
(-0.00513142 0.0141088 0)
(-0.00624985 0.0148392 0)
(-0.00741245 0.0154129 0)
(-0.008609 0.015855 0)
(-0.00983118 0.0161873 0)
(-0.0110722 0.016428 0)
(-0.0123266 0.0165927 0)
(-0.0135899 0.016694 0)
(-0.0148583 0.0167424 0)
(-0.0161289 0.0167465 0)
(-0.017399 0.0167129 0)
(-0.0186665 0.0166467 0)
(-0.0199295 0.0165519 0)
(-0.0211862 0.0164312 0)
(-0.0224349 0.0162865 0)
(-0.0236743 0.0161189 0)
(-0.0249027 0.0159289 0)
(-0.0261186 0.0157166 0)
(-0.0273205 0.0154815 0)
(-0.0285067 0.0152228 0)
(-0.0296748 0.0149398 0)
(-0.0308247 0.014633 0)
(-4.0531e-05 0.0018131 0)
(-0.000272624 0.00490427 0)
(-0.000755622 0.00751533 0)
(-0.00141436 0.00970168 0)
(-0.00221216 0.0115166 0)
(-0.00312441 0.0130097 0)
(-0.00412872 0.0142263 0)
(-0.00520608 0.0152072 0)
(-0.006341 0.0159884 0)
(-0.00752081 0.0166015 0)
(-0.00873515 0.0170737 0)
(-0.00997563 0.0174285 0)
(-0.0112354 0.0176855 0)
(-0.012509 0.0178614 0)
(-0.0137918 0.01797 0)
(-0.0150802 0.0180223 0)
(-0.0163713 0.0180274 0)
(-0.0176624 0.0179925 0)
(-0.0189514 0.017923 0)
(-0.0202364 0.017823 0)
(-0.0215158 0.0176955 0)
(-0.022788 0.0175425 0)
(-0.0240514 0.017365 0)
(-0.0253047 0.0171637 0)
(-0.0265464 0.0169385 0)
(-0.0277749 0.0166889 0)
(-0.0289885 0.016414 0)
(-0.0301856 0.0161134 0)
(-4.10339e-05 0.00195538 0)
(-0.000276066 0.00528267 0)
(-0.000765241 0.00808822 0)
(-0.00143247 0.0104336 0)
(-0.00224064 0.0123776 0)
(-0.00316483 0.0139746 0)
(-0.00418236 0.0152743 0)
(-0.00527401 0.016321 0)
(-0.00642409 0.0171538 0)
(-0.00761977 0.0178069 0)
(-0.00885062 0.0183098 0)
(-0.0101081 0.0186875 0)
(-0.0113855 0.0189613 0)
(-0.0126771 0.019149 0)
(-0.0139785 0.0192652 0)
(-0.015286 0.0193219 0)
(-0.0165966 0.0193286 0)
(-0.0179079 0.0192929 0)
(-0.0192178 0.0192207 0)
(-0.0205244 0.0191163 0)
(-0.0218261 0.0189828 0)
(-0.0231215 0.0188221 0)
(-0.0244091 0.0186357 0)
(-0.0256874 0.0184239 0)
(-0.0269551 0.0181867 0)
(-0.0282108 0.0179236 0)
(-0.0294527 0.0176337 0)
(-0.0306792 0.0173166 0)
(-4.14912e-05 0.00209935 0)
(-0.000279193 0.00566563 0)
(-0.000773981 0.00866808 0)
(-0.00144894 0.0111745 0)
(-0.00226656 0.0132492 0)
(-0.00320166 0.0149515 0)
(-0.00423132 0.0163354 0)
(-0.00533611 0.0174489 0)
(-0.00650019 0.0183341 0)
(-0.00771062 0.019028 0)
(-0.00895685 0.019562 0)
(-0.0102304 0.0199633 0)
(-0.0115242 0.0202544 0)
(-0.012833 0.0204544 0)
(-0.014152 0.0205788 0)
(-0.0154778 0.0206404 0)
(-0.0168074 0.0206493 0)
(-0.0181384 0.0206136 0)
(-0.0194687 0.0205395 0)
(-0.0207965 0.0204314 0)
(-0.0221204 0.0202926 0)
(-0.0234389 0.0201254 0)
(-0.0247507 0.0199309 0)
(-0.0260543 0.0197097 0)
(-0.0273485 0.0194617 0)
(-0.028632 0.0191864 0)
(-0.029903 0.0188827 0)
(-0.03116 0.0185504 0)
(-4.19078e-05 0.00224486 0)
(-0.000282043 0.00605274 0)
(-0.00078195 0.00925428 0)
(-0.00146397 0.0119236 0)
(-0.00229024 0.0141305 0)
(-0.00323535 0.0159395 0)
(-0.00427618 0.0174087 0)
(-0.00539313 0.0185898 0)
(-0.0065702 0.0195283 0)
(-0.00779438 0.0202635 0)
(-0.00905504 0.0208295 0)
(-0.0103436 0.0212549 0)
(-0.0116532 0.0215639 0)
(-0.0129782 0.0217768 0)
(-0.0143143 0.02191 0)
(-0.0156578 0.0219772 0)
(-0.0170058 0.0219891 0)
(-0.0183559 0.0219542 0)
(-0.0197063 0.0218789 0)
(-0.0210553 0.0217681 0)
(-0.0224013 0.0216251 0)
(-0.023743 0.0214524 0)
(-0.0250791 0.0212511 0)
(-0.0264084 0.0210217 0)
(-0.0277297 0.0207642 0)
(-0.0290417 0.020478 0)
(-0.0303426 0.020162 0)
(-0.0316311 0.0198159 0)
(-4.22872e-05 0.00239177 0)
(-0.000284641 0.00644363 0)
(-0.000789225 0.00984628 0)
(-0.00147771 0.0126801 0)
(-0.00231192 0.0150208 0)
(-0.00326626 0.0169376 0)
(-0.00431741 0.0184931 0)
(-0.00544563 0.0197428 0)
(-0.00663483 0.0207353 0)
(-0.00787189 0.0215128 0)
(-0.00914614 0.0221112 0)
(-0.010449 0.0225614 0)
(-0.0117735 0.022889 0)
(-0.0131142 0.0231154 0)
(-0.0144666 0.0232583 0)
(-0.0158273 0.0233319 0)
(-0.0171933 0.0233475 0)
(-0.0185623 0.0233142 0)
(-0.0199326 0.0232388 0)
(-0.0213025 0.0231263 0)
(-0.0226706 0.0229803 0)
(-0.0240356 0.0228033 0)
(-0.0253965 0.0225964 0)
(-0.0267519 0.0223603 0)
(-0.0281008 0.0220948 0)
(-0.0294421 0.0217993 0)
(-0.0307739 0.0214726 0)
(-0.032095 0.0211142 0)
(-4.26319e-05 0.00253997 0)
(-0.000287009 0.00683798 0)
(-0.000795867 0.0104436 0)
(-0.00149027 0.0134436 0)
(-0.00233179 0.0159193 0)
(-0.00329464 0.0179451 0)
(-0.00435536 0.019588 0)
(-0.00549408 0.0209071 0)
(-0.00669461 0.0219545 0)
(-0.00794378 0.0227748 0)
(-0.00923089 0.0234065 0)
(-0.0105473 0.0238822 0)
(-0.0118861 0.0242291 0)
(-0.0132419 0.0244698 0)
(-0.0146102 0.0246231 0)
(-0.0159875 0.0247038 0)
(-0.0173711 0.0247242 0)
(-0.0187588 0.0246935 0)
(-0.0201488 0.024619 0)
(-0.0215396 0.024506 0)
(-0.0229298 0.0243583 0)
(-0.0243185 0.0241783 0)
(-0.0257043 0.0239674 0)
(-0.0270864 0.0237261 0)
(-0.0284636 0.0234542 0)
(-0.0298349 0.0231511 0)
(-0.0311986 0.0228154 0)
(-0.0325535 0.0224466 0)
(-4.29429e-05 0.00268934 0)
(-0.000289157 0.00723549 0)
(-0.000801912 0.0110458 0)
(-0.00150174 0.0142134 0)
(-0.00234997 0.0168254 0)
(-0.00332068 0.0189613 0)
(-0.00439027 0.0206925 0)
(-0.00553878 0.022082 0)
(-0.00674994 0.023185 0)
(-0.00801052 0.024049 0)
(-0.00930979 0.0247147 0)
(-0.0106391 0.0252166 0)
(-0.0119917 0.0255835 0)
(-0.0133619 0.0258394 0)
(-0.0147456 0.0260039 0)
(-0.0161392 0.0260928 0)
(-0.0175402 0.0261188 0)
(-0.0189463 0.0260919 0)
(-0.0203558 0.0260195 0)
(-0.0217675 0.0259073 0)
(-0.02318 0.0257592 0)
(-0.0245924 0.0255777 0)
(-0.0260036 0.0253643 0)
(-0.0274128 0.0251196 0)
(-0.0288189 0.0248432 0)
(-0.0302211 0.0245343 0)
(-0.0316177 0.0241916 0)
(-0.0330077 0.0238145 0)
(-4.32206e-05 0.00283976 0)
(-0.000291092 0.00763587 0)
(-0.000807379 0.0116524 0)
(-0.00151215 0.0149889 0)
(-0.00236654 0.0177384 0)
(-0.00334449 0.0199855 0)
(-0.00442231 0.021806 0)
(-0.00557993 0.0232667 0)
(-0.00680105 0.0244261 0)
(-0.00807238 0.0253346 0)
(-0.0093832 0.0260351 0)
(-0.0107249 0.026564 0)
(-0.0120906 0.0269518 0)
(-0.0134749 0.0272237 0)
(-0.0148734 0.0274003 0)
(-0.016283 0.0274984 0)
(-0.0177009 0.0275312 0)
(-0.0191252 0.0275092 0)
(-0.0205542 0.0274402 0)
(-0.0219867 0.0273302 0)
(-0.0234216 0.0271832 0)
(-0.0248579 0.0270019 0)
(-0.0262948 0.0267878 0)
(-0.0277315 0.0265413 0)
(-0.0291672 0.0262623 0)
(-0.0306011 0.0259499 0)
(-0.0320316 0.0256024 0)
(-0.0334578 0.0252193 0)
(-4.34643e-05 0.00299113 0)
(-0.000292812 0.00803883 0)
(-0.000812274 0.012263 0)
(-0.00152153 0.0157698 0)
(-0.00238152 0.0186579 0)
(-0.00336612 0.0210172 0)
(-0.00445153 0.0229278 0)
(-0.00561764 0.0244606 0)
(-0.00684807 0.0256773 0)
(-0.00812953 0.0266311 0)
(-0.00945128 0.0273672 0)
(-0.0108047 0.0279239 0)
(-0.012183 0.0283335 0)
(-0.0135808 0.0286222 0)
(-0.0149939 0.028812 0)
(-0.016419 0.0289203 0)
(-0.0178536 0.028961 0)
(-0.0192958 0.0289452 0)
(-0.0207441 0.028881 0)
(-0.0221974 0.0287746 0)
(-0.0236546 0.0286304 0)
(-0.025115 0.028451 0)
(-0.0265779 0.028238 0)
(-0.0280426 0.0279919 0)
(-0.0295084 0.0277125 0)
(-0.0309746 0.0273987 0)
(-0.03244 0.0270489 0)
(-0.0339036 0.0266623 0)
(-4.36725e-05 0.00314332 0)
(-0.000294312 0.0084441 0)
(-0.000816586 0.0128772 0)
(-0.00152984 0.0165554 0)
(-0.0023949 0.0195833 0)
(-0.00338556 0.0220557 0)
(-0.00447795 0.0240574 0)
(-0.0056519 0.0256632 0)
(-0.00689101 0.0269379 0)
(-0.00818197 0.0279377 0)
(-0.00951404 0.0287103 0)
(-0.0108787 0.0292957 0)
(-0.012269 0.0297279 0)
(-0.0136798 0.0300345 0)
(-0.0151069 0.0302385 0)
(-0.0165472 0.0303581 0)
(-0.0179981 0.030408 0)
(-0.019458 0.0303997 0)
(-0.0209254 0.0303417 0)
(-0.0223992 0.0302406 0)
(-0.0238788 0.0301008 0)
(-0.0253634 0.0299252 0)
(-0.0268524 0.0297154 0)
(-0.0283454 0.0294718 0)
(-0.0298418 0.0291942 0)
(-0.0313411 0.0288815 0)
(-0.0328422 0.0285319 0)
(-0.0343443 0.0281447 0)
(-4.38433e-05 0.00329623 0)
(-0.000295583 0.00885136 0)
(-0.000820294 0.0134946 0)
(-0.00153707 0.0173453 0)
(-0.00240665 0.0205139 0)
(-0.00340275 0.0231004 0)
(-0.00450149 0.0251941 0)
(-0.00568264 0.0268736 0)
(-0.00692979 0.0282073 0)
(-0.00822961 0.029254 0)
(-0.00957139 0.0300638 0)
(-0.0109466 0.0306789 0)
(-0.0123484 0.0311346 0)
(-0.0137717 0.0314601 0)
(-0.0152124 0.0316793 0)
(-0.0166673 0.0318114 0)
(-0.0181341 0.0318718 0)
(-0.0196113 0.0318724 0)
(-0.0210975 0.0318222 0)
(-0.0225918 0.031728 0)
(-0.0240935 0.0315945 0)
(-0.0256023 0.0314246 0)
(-0.0271176 0.03122 0)
(-0.0286391 0.0309813 0)
(-0.0301664 0.030708 0)
(-0.0316993 0.030399 0)
(-0.0332368 0.0300525 0)
(-0.0347783 0.0296676 0)
(-4.39741e-05 0.00344973 0)
(-0.000296612 0.00926033 0)
(-0.000823365 0.0141148 0)
(-0.00154316 0.018139 0)
(-0.00241667 0.0214492 0)
(-0.00341761 0.0241506 0)
(-0.00452204 0.0263372 0)
(-0.00570973 0.0280914 0)
(-0.00696424 0.0294848 0)
(-0.00827226 0.0305793 0)
(-0.00962309 0.0314272 0)
(-0.0110082 0.0320727 0)
(-0.012421 0.032553 0)
(-0.0138561 0.0328984 0)
(-0.0153097 0.033134 0)
(-0.0167788 0.0332798 0)
(-0.0182611 0.033352 0)
(-0.0197551 0.0333629 0)
(-0.0212597 0.0333222 0)
(-0.0227742 0.0332367 0)
(-0.0242979 0.0331113 0)
(-0.0258306 0.0329492 0)
(-0.0273722 0.0327522 0)
(-0.0289223 0.0325207 0)
(-0.0304808 0.0322543 0)
(-0.0320477 0.0319518 0)
(-0.0336221 0.0316114 0)
(-0.0352037 0.0312319 0)
(-4.4062e-05 0.00360369 0)
(-0.000297382 0.00967068 0)
(-0.000825762 0.0147373 0)
(-0.00154804 0.0189359 0)
(-0.00242488 0.0223886 0)
(-0.00343 0.0252058 0)
(-0.00453944 0.0274861 0)
(-0.00573297 0.0293157 0)
(-0.00699413 0.0307698 0)
(-0.00830965 0.0319128 0)
(-0.00966884 0.0327997 0)
(-0.0110632 0.0334767 0)
(-0.0124862 0.0339824 0)
(-0.0139326 0.0343488 0)
(-0.0153985 0.0346019 0)
(-0.0168811 0.0347628 0)
(-0.0183784 0.0348481 0)
(-0.0198887 0.034871 0)
(-0.0214113 0.0348412 0)
(-0.0229454 0.0347662 0)
(-0.0244907 0.0346509 0)
(-0.0260472 0.0344988 0)
(-0.0276147 0.0343116 0)
(-0.0291933 0.0340899 0)
(-0.0307831 0.0338332 0)
(-0.0323841 0.0335403 0)
(-0.0339958 0.0332091 0)
(-0.0356181 0.0328385 0)
(-4.41037e-05 0.00375796 0)
(-0.000297876 0.0100821 0)
(-0.000827439 0.0153615 0)
(-0.00155164 0.0197353 0)
(-0.00243117 0.0233314 0)
(-0.00343977 0.0262653 0)
(-0.00455349 0.02864 0)
(-0.00575211 0.0305459 0)
(-0.00701918 0.0320614 0)
(-0.00834144 0.0332539 0)
(-0.00970823 0.0341807 0)
(-0.0111111 0.03489 0)
(-0.0125436 0.0354223 0)
(-0.0140005 0.0358107 0)
(-0.015478 0.0360825 0)
(-0.0169735 0.0362596 0)
(-0.018485 0.0363595 0)
(-0.020011 0.0363958 0)
(-0.0215509 0.0363788 0)
(-0.0231041 0.0363161 0)
(-0.0246706 0.0362131 0)
(-0.0262504 0.0360732 0)
(-0.0278435 0.0358983 0)
(-0.0294504 0.035689 0)
(-0.0310712 0.0354449 0)
(-0.0327064 0.0351645 0)
(-0.0343555 0.0348459 0)
(-0.0360188 0.0344879 0)
(-4.40958e-05 0.0039124 0)
(-0.000298075 0.0104941 0)
(-0.000828347 0.0159871 0)
(-0.00155386 0.0205368 0)
(-0.0024354 0.0242769 0)
(-0.00344674 0.0273283 0)
(-0.00456398 0.0297983 0)
(-0.00576689 0.0317813 0)
(-0.00703906 0.033359 0)
(-0.00836725 0.0346018 0)
(-0.00974084 0.0355693 0)
(-0.0111514 0.036312 0)
(-0.0125925 0.0368717 0)
(-0.0140591 0.0372832 0)
(-0.0155475 0.0375749 0)
(-0.0170551 0.0377697 0)
(-0.0185799 0.0378856 0)
(-0.0201209 0.0379369 0)
(-0.0216774 0.0379343 0)
(-0.023249 0.0378859 0)
(-0.0248359 0.0377971 0)
(-0.0264383 0.0376717 0)
(-0.0280566 0.0375116 0)
(-0.0296912 0.0373175 0)
(-0.0313427 0.037089 0)
(-0.0330117 0.0368245 0)
(-0.0346982 0.0365221 0)
(-0.0364026 0.0361805 0)
(-4.40351e-05 0.00406685 0)
(-0.000297958 0.0109064 0)
(-0.000828436 0.0166134 0)
(-0.00155463 0.0213396 0)
(-0.00243744 0.0252245 0)
(-0.00345073 0.028394 0)
(-0.00457065 0.0309601 0)
(-0.00577701 0.0330209 0)
(-0.00705342 0.0346617 0)
(-0.00838666 0.0359556 0)
(-0.00976615 0.0369648 0)
(-0.0111835 0.0377416 0)
(-0.0126324 0.0383299 0)
(-0.0141078 0.0387656 0)
(-0.0156061 0.0390784 0)
(-0.0171248 0.039292 0)
(-0.0186621 0.0394254 0)
(-0.0202171 0.0394932 0)
(-0.0217893 0.0395069 0)
(-0.0233785 0.0394746 0)
(-0.0249849 0.0394023 0)
(-0.0266091 0.0392938 0)
(-0.0282517 0.0391511 0)
(-0.0299133 0.038975 0)
(-0.0315948 0.0387651 0)
(-0.0332972 0.03852 0)
(-0.0350205 0.0382373 0)
(-0.0367658 0.0379161 0)
(-4.39182e-05 0.00422114 0)
(-0.000297506 0.0113186 0)
(-0.000827655 0.0172398 0)
(-0.00155384 0.022143 0)
(-0.00243715 0.0261732 0)
(-0.00345156 0.0294616 0)
(-0.00457328 0.0321245 0)
(-0.00578217 0.0342639 0)
(-0.00706188 0.0359686 0)
(-0.00839922 0.0373144 0)
(-0.00978365 0.0383661 0)
(-0.0112069 0.0391781 0)
(-0.0126625 0.0397959 0)
(-0.0141456 0.0402569 0)
(-0.0156528 0.0405919 0)
(-0.0171816 0.0408257 0)
(-0.0187305 0.0409779 0)
(-0.0202984 0.0410639 0)
(-0.0218851 0.0410956 0)
(-0.0234907 0.0410815 0)
(-0.0251157 0.0410277 0)
(-0.0267606 0.0409384 0)
(-0.0284264 0.0408158 0)
(-0.0301141 0.0406607 0)
(-0.0318247 0.0404726 0)
(-0.0335596 0.0402502 0)
(-0.0353191 0.0399912 0)
(-0.0371046 0.0396946 0)
(-4.37423e-05 0.00437508 0)
(-0.000296701 0.0117302 0)
(-0.000825953 0.0178658 0)
(-0.00155141 0.0229463 0)
(-0.0024344 0.0271224 0)
(-0.00344902 0.0305302 0)
(-0.0045716 0.0332906 0)
(-0.00578205 0.0355094 0)
(-0.00706407 0.0372787 0)
(-0.00840448 0.0386773 0)
(-0.0097928 0.0397723 0)
(-0.0112208 0.0406204 0)
(-0.012682 0.0412686 0)
(-0.0141719 0.041756 0)
(-0.0156868 0.0421144 0)
(-0.0172245 0.0423696 0)
(-0.0187836 0.0425421 0)
(-0.0203633 0.0426479 0)
(-0.0219633 0.0426992 0)
(-0.0235841 0.0427051 0)
(-0.0252262 0.0426722 0)
(-0.0268906 0.0426045 0)
(-0.0285784 0.0425046 0)
(-0.0302908 0.0423733 0)
(-0.0320293 0.0422103 0)
(-0.0337955 0.0420143 0)
(-0.0355902 0.0417829 0)
(-0.037415 0.0415151 0)
(-4.35054e-05 0.00452848 0)
(-0.000295527 0.0121408 0)
(-0.000823283 0.0184906 0)
(-0.00154725 0.0237486 0)
(-0.00242904 0.0280711 0)
(-0.00344294 0.0315989 0)
(-0.00456538 0.0344574 0)
(-0.00577635 0.0367563 0)
(-0.00705959 0.0385909 0)
(-0.00840199 0.0400431 0)
(-0.00979307 0.0411823 0)
(-0.0112246 0.0420673 0)
(-0.0126904 0.0427469 0)
(-0.0141856 0.0432616 0)
(-0.0157071 0.0436446 0)
(-0.0172524 0.0439224 0)
(-0.0188203 0.0441166 0)
(-0.0204103 0.0442436 0)
(-0.0220223 0.0443164 0)
(-0.0236567 0.0443443 0)
(-0.0253145 0.0443342 0)
(-0.0269968 0.0442906 0)
(-0.028705 0.044216 0)
(-0.0304406 0.0441115 0)
(-0.0322054 0.043977 0)
(-0.0340014 0.043811 0)
(-0.0358297 0.0436112 0)
(-0.0376924 0.0433768 0)
(-4.32079e-05 0.00468114 0)
(-0.000293969 0.0125498 0)
(-0.000819601 0.0191136 0)
(-0.00154127 0.0245492 0)
(-0.00242095 0.0290183 0)
(-0.00343313 0.0326667 0)
(-0.00455437 0.0356239 0)
(-0.00576475 0.0380035 0)
(-0.00704809 0.0399042 0)
(-0.00839129 0.0414107 0)
(-0.00978393 0.0425949 0)
(-0.0112178 0.0435176 0)
(-0.0126868 0.0442295 0)
(-0.0141861 0.0447726 0)
(-0.0157126 0.0451811 0)
(-0.0172641 0.0454828 0)
(-0.0188394 0.0456999 0)