/*--------------------------------*- C++ -*----------------------------------*\
  =========                 |
  \\      /  F ield         | OpenFOAM: The Open Source CFD Toolbox
   \\    /   O peration     | Website:  https://openfoam.org
    \\  /    A nd           | Version:  9
     \\/     M anipulation  |
\*---------------------------------------------------------------------------*/
FoamFile
{
    format      ascii;
    class       volScalarField;
    location    "1.25";
    object      p;
}
// * * * * * * * * * * * * * * * * * * * * * * * * * * * * * * * * * * * * * //

dimensions      [0 2 -2 0 0 0 0];

internalField   nonuniform List<scalar> 
1250
(
2.17865e-08
-3.26563e-07
-6.61676e-06
-1.78418e-05
-3.25877e-05
-4.96767e-05
-6.81769e-05
-8.73999e-05
-0.000106894
-0.000126397
-0.000145783
-0.000165022
-0.000184144
-0.000203206
-0.000222271
-0.000241393
-0.0002606
-0.00027989
-0.000299228
-0.000318538
-0.000337707
-0.000356585
-0.000374985
-0.000392688
-0.000409444
-0.000424973
-0.000438972
-0.000451111
-0.000461047
3.4901e-07
-3.65636e-08
-5.54745e-06
-1.50785e-05
-2.75322e-05
-4.21478e-05
-5.82219e-05
-7.52232e-05
-9.27666e-05
-0.000110601
-0.00012858
-0.000146636
-0.00016475
-0.000182929
-0.000201191
-0.000219548
-0.000237994
-0.000256502
-0.000275016
-0.000293447
-0.000311675
-0.00032955
-0.000346889
-0.000363481
-0.000379091
-0.000393454
-0.000406287
-0.000417282
-0.000426117
6.76902e-06
5.38818e-06
-2.85824e-07
-9.34468e-06
-2.07854e-05
-3.41474e-05
-4.88686e-05
-6.45158e-05
-8.07765e-05
-9.74382e-05
-0.000114369
-0.000131498
-0.000148792
-0.000166242
-0.000183842
-0.000201584
-0.000219445
-0.00023738
-0.000255321
-0.000273172
-0.000290806
-0.000308072
-0.000324789
-0.000340753
-0.000355733
-0.000369479
-0.000381721
-0.000392161
-0.000400489
1.85056e-05
1.49895e-05
8.39892e-06
-9.04198e-07
-1.21788e-05
-2.4987e-05
-3.89232e-05
-5.36663e-05
-6.8983e-05
-8.47154e-05
-0.000100766
-0.000117081
-0.000133637
-0.000150419
-0.00016742
-0.000184619
-0.000201985
-0.000219464
-0.000236978
-0.000254424
-0.000271675
-0.000288575
-0.000304947
-0.000320589
-0.000335275
-0.000348765
-0.0003608
-0.000371086
-0.000379319
3.43712e-05
2.77294e-05
1.95195e-05
9.52552e-06
-1.99321e-06
-1.46434e-05
-2.81267e-05
-4.22303e-05
-5.68053e-05
-7.17574e-05
-8.70348e-05
-0.000102615
-0.00011849
-0.000134659
-0.000151114
-0.000167836
-0.000184787
-0.000201907
-0.000219117
-0.000236308
-0.00025335
-0.000270088
-0.000286345
-0.00030192
-0.000316597
-0.00033014
-0.000342301
-0.000352788
-0.000361297
5.31857e-05
4.2832e-05
3.2561e-05
2.14235e-05
9.28413e-06
-3.54389e-06
-1.68633e-05
-3.05686e-05
-4.45987e-05
-5.89283e-05
-7.35595e-05
-8.85085e-05
-0.000103796
-0.000119439
-0.000135438
-0.000151779
-0.000168428
-0.000185323
-0.000202384
-0.0002195
-0.000236541
-0.000253351
-0.000269756
-0.00028556
-0.000300549
-0.000314498
-0.000327166
-0.000338258
-0.000347471
7.39104e-05
5.94073e-05
4.67481e-05
3.41533e-05
2.11011e-05
7.82923e-06
-5.56245e-06
-1.90751e-05
-3.27375e-05
-4.65972e-05
-6.07149e-05
-7.51526e-05
-8.99645e-05
-0.000105191
-0.00012085
-0.000136938
-0.000153425
-0.000170256
-0.00018735
-0.0002046
-0.000221875
-0.000239024
-0.000255875
-0.000272235
-0.0002879
-0.00030265
-0.000316256
-0.000328414
-0.000338816
9.54733e-05
7.65636e-05
6.1285e-05
4.70155e-05
3.28428e-05
1.89332e-05
5.2905e-06
-8.19313e-06
-2.16376e-05
-3.51658e-05
-4.88999e-05
-6.29516e-05
-7.74124e-05
-9.23507e-05
-0.000107806
-0.000123789
-0.000140281
-0.000157232
-0.000174569
-0.000192187
-0.000209961
-0.000227745
-0.000245372
-0.000262657
-0.000279402
-0.0002954
-0.000310431
-0.000324182
-0.000336339
0.000116922
9.34121e-05
7.53548e-05
5.92639e-05
4.38285e-05
2.91444e-05
1.51186e-05
1.53554e-06
-1.18172e-05
-2.51395e-05
-3.86167e-05
-5.24117e-05
-6.6657e-05
-8.14514e-05
-9.68583e-05
-0.000112907
-0.000129592
-0.000146875
-0.00016469
-0.000182942
-0.000201514
-0.000220267
-0.000239043
-0.000257669
-0.000275957
-0.000293715
-0.000310733
-0.00032669
-0.000341265
0.0001373
0.000109052
8.8111e-05
7.01047e-05
5.33147e-05
3.7764e-05
2.32603e-05
9.47724e-06
-3.89064e-06
-1.71216e-05
-3.04658e-05
-4.41378e-05
-5.83119e-05
-7.31206e-05
-8.86535e-05
-0.00010496
-0.000122052
-0.000139905
-0.000158466
-0.000177652
-0.00019736
-0.000217462
-0.000237815
-0.000258261
-0.000278626
-0.000298738
-0.000318406
-0.000337294
-0.000355082
0.00015565
0.000122564
9.86729e-05
7.86969e-05
6.04989e-05
4.40237e-05
2.89759e-05
1.49153e-05
1.44016e-06
-1.18058e-05
-2.5138e-05
-3.88243e-05
-5.30815e-05
-6.80761e-05
-8.39261e-05
-0.000100705
-0.000118443
-0.000137135
-0.000156745
-0.000177208
-0.000198437
-0.000220325
-0.000242749
-0.00026557
-0.000288639
-0.00031181
-0.000334914
-0.000357607
-0.000379572
0.000171004
0.000133006
0.000106124
8.41525e-05
6.45213e-05
4.70897e-05
3.14528e-05
1.7053e-05
3.39051e-06
-9.97122e-06
-2.34128e-05
-3.7255e-05
-5.17583e-05
-6.7125e-05
-8.35027e-05
-0.00010099
-0.000119643
-0.000139478
-0.000160481
-0.000182611
-0.000205807
-0.000229988
-0.000255059
-0.000280911
-0.000307428
-0.0003345
-0.000361991
-0.000389549
-0.000416873
0.000182367
0.000139399
0.000109507
8.55358e-05
6.44664e-05
4.60646e-05
2.98088e-05
1.50193e-05
1.09562e-06
-1.24798e-05
-2.61536e-05
-4.03004e-05
-5.52244e-05
-7.1165e-05
-8.83017e-05
-0.000106763
-0.000126632
-0.000147954
-0.000170744
-0.000194993
-0.000220673
-0.000247739
-0.000276138
-0.000305801
-0.000336656
-0.000368646
-0.000401677
-0.000435402
-0.000469547
0.000188709
0.00014073
0.000107824
8.18638e-05
5.93657e-05
3.99915e-05
2.30961e-05
7.87222e-06
-6.38381e-06
-2.02724e-05
-3.43068e-05
-4.8916e-05
-6.44493e-05
-8.11849e-05
-9.93372e-05
-0.000119068
-0.000140494
-0.000163697
-0.000188728
-0.00021562
-0.00024439
-0.000275044
-0.00030758
-0.000341988
-0.000378258
-0.000416397
-0.00045638
-0.000497869
-0.000540644
0.000188963
0.000135949
0.000100036
7.21078e-05
4.81992e-05
2.78573e-05
1.03054e-05
-5.39631e-06
-2.0058e-05
-3.43644e-05
-4.88968e-05
-6.41397e-05
-8.04891e-05
-9.82646e-05
-0.00011772
-0.000139055
-0.000162428
-0.000187964
-0.000215763
-0.000245912
-0.000278489
-0.000313564
-0.000351207
-0.000391485
-0.000434471
-0.000480263
-0.00052892
-0.00058014
-0.000633782
0.000182025
0.000123963
8.50619e-05
5.51951e-05
2.98995e-05
8.59678e-06
-9.62921e-06
-2.58557e-05
-4.10028e-05
-5.58417e-05
-7.10232e-05
-8.70892e-05
-0.000104485
-0.000123575
-0.000144658
-0.000167979
-0.000193747
-0.000222142
-0.000253327
-0.000287458
-0.00032469
-0.00036518
-0.000409094
-0.000456601
-0.00050788
-0.000563151
-0.000622586
-0.000685945
-0.000753202
0.00016675
0.000103645
6.1784e-05
3.00123e-05
3.35448e-06
-1.89039e-05
-3.7826e-05
-5.46322e-05
-7.03556e-05
-8.58564e-05
-0.000101857
-0.00011896
-0.000137662
-0.000158379
-0.00018146
-0.000207207
-0.000235889
-0.000267756
-0.000303052
-0.000342021
-0.000384918
-0.000432015
-0.000483597
-0.000539966
-0.000601447
-0.000668411
-0.000741178
-0.000819603
-0.000903831
0.000141961
7.38344e-05
2.90483e-05
-4.59116e-06
-3.25871e-05
-5.58007e-05
-7.54498e-05
-9.29027e-05
-0.00010931
-0.000125622
-0.000142637
-0.000161019
-0.000181324
-0.000204025
-0.000229532
-0.000258213
-0.000290415
-0.000326475
-0.000366736
-0.000411556
-0.00046132
-0.000516441
-0.000577363
-0.000644559
-0.000718536
-0.000799859
-0.000889029
-0.000986046
-0.0010913
0.000106445
3.33377e-05
-1.43286e-05
-4.97973e-05
-7.91103e-05
-0.000103287
-0.000123706
-0.00014189
-0.000159108
-0.000176407
-0.000194661
-0.000214603
-0.000236854
-0.000261952
-0.000290379
-0.000322588
-0.000359017
-0.000400113
-0.000446344
-0.000498214
-0.000556267
-0.000621099
-0.000693352
-0.000773716
-0.000862933
-0.000961801
-0.00107104
-0.00119084
-0.00132201
5.89666e-05
-1.90608e-05
-6.95541e-05
-0.000106812
-0.000137427
-0.000162584
-0.000183833
-0.000202853
-0.000221037
-0.000239528
-0.000259283
-0.00028111
-0.000305703
-0.000333676
-0.0003656
-0.000402025
-0.000443506
-0.000490626
-0.000544009
-0.000604337
-0.000672358
-0.000748892
-0.000834831
-0.000931136
-0.00103885
-0.00115905
-0.00129267
-0.00144024
-0.00160296
-1.72917e-06
-8.4592e-05
-0.00013785
-0.000176859
-0.000208766
-0.000234938
-0.000257096
-0.000277082
-0.000296415
-0.000316341
-0.000337905
-0.000361995
-0.000389388
-0.000420792
-0.000456879
-0.000498321
-0.000545816
-0.000600111
-0.000662025
-0.000732459
-0.00081241
-0.000902977
-0.00100536
-0.00112085
-0.00125088
-0.00139686
-0.00155977
-0.00174094
-7.69057e-05
-0.000164493
-0.000220444
-0.000261165
-0.000294368
-0.000321602
-0.000344773
-0.000365884
-0.000386587
-0.000408233
-0.000431962
-0.000458753
-0.000489479
-0.000524955
-0.000565976
-0.000613362
-0.000667983
-0.000730789
-0.000802832
-0.000885281
-0.000979438
-0.00108674
-0.00120875
-0.00134716
-0.00150385
-0.00168064
-0.00187875
-0.00209996
-0.000167824
-0.000259997
-0.000318559
-0.000360957
-0.000395467
-0.000423832
-0.000448144
-0.000470574
-0.000492907
-0.000516607
-0.000542916
-0.000572915
-0.000607586
-0.000647871
-0.000694713
-0.000749108
-0.000812134
-0.000884985
-0.000968994
-0.00106565
-0.00117663
-0.00130375
-0.00144903
-0.00161463
-0.00180291
-0.00201618
-0.00225604
-0.00252472
-0.000275729
-0.000372318
-0.0004334
-0.000477442
-0.000513284
-0.00054287
-0.00056848
-0.000592458
-0.000616728
-0.00064287
-0.000672236
-0.000706022
-0.00074534
-0.000791276
-0.000844951
-0.00090757
-0.000980458
-0.0010651
-0.00116317
-0.00127653
-0.00140728
-0.00155773
-0.00173038
-0.00192796
-0.00215338
-0.0024095
-0.00269834
-0.00302269
-0.00040184
-0.000502641
-0.000566139
-0.000611797
-0.000649009
-0.000679928
-0.000707027
-0.000732824
-0.000759383
-0.000788411
-0.00082138
-0.000859615
-0.000904373
-0.000956914
-0.00101857
-0.00109078
-0.00117518
-0.00127358
-0.00138805
-0.00152091
-0.00167476
-0.00185244
-0.00205704
-0.0022919
-0.00256057
-0.00286647
-0.00321216
-0.00360094
-0.00054733
-0.000652103
-0.000717903
-0.00076515
-0.000803785
-0.000836174
-0.000864987
-0.000892915
-0.00092217
-0.000954589
-0.000991776
-0.0010352
-0.00108629
-0.00114651
-0.00121742
-0.00130077
-0.0013985
-0.00151286
-0.00164635
-0.00180181
-0.0019824
-0.0021916
-0.00243316
-0.00271107
-0.00302955
-0.00339268
-0.00380352
-0.00426588
-0.000713312
-0.000821779
-0.000889754
-0.000938568
-0.000978695
-0.00101272
-0.0010435
-0.00107392
-0.00110632
-0.0011427
-0.0011848
-0.00123424
-0.00129266
-0.00136174
-0.00144332
-0.00153949
-0.00165259
-0.0017853
-0.00194067
-0.00212211
-0.00233343
-0.00257879
-0.00286266
-0.00318976
-0.00356502
-0.00399314
-0.00447772
-0.00502299
-0.000900816
-0.00101266
-0.00108267
-0.00113303
-0.00117474
-0.00121058
-0.00124363
-0.00127693
-0.001313
-0.00135397
-0.00140173
-0.00145811
-0.00152494
-0.00160418
-0.00169799
-0.00180882
-0.00193948
-0.00209315
-0.00227348
-0.00248454
-0.00273083
-0.00301728
-0.00334912
-0.00373183
-0.00417105
-0.00467211
-0.00523906
-0.00587647
-0.00111078
-0.00122564
-0.00129753
-0.00134942
-0.0013928
-0.00143068
-0.00146633
-0.00150296
-0.00154325
-0.00158949
-0.00164375
-0.00170806
-0.00178448
-0.00187529
-0.00198299
-0.00211047
-0.00226104
-0.00243846
-0.00264703
-0.00289153
-0.00317726
-0.00350992
-0.00389556
-0.00434043
-0.00485087
-0.00543274
-0.00609051
-0.00682888
-0.00134401
-0.00146148
-0.00153508
-0.0015885
-0.00163367
-0.00167382
-0.00171242
-0.00175287
-0.00179799
-0.00185025
-0.0019119
-0.0019852
-0.00207248
-0.00217634
-0.00229971
-0.00244594
-0.0026189
-0.00282299
-0.00306322
-0.00334515
-0.00367489
-0.004059
-0.00450433
-0.00501789
-0.00560665
-0.00627695
-0.00703349
-0.00788094
-0.00160118
-0.00172082
-0.00179595
-0.00185089
-0.00189796
-0.00194065
-0.00198259
-0.00202737
-0.00207798
-0.00213704
-0.00220704
-0.00229045
-0.00238992
-0.00250842
-0.00264931
-0.00281648
-0.00301439
-0.00324817
-0.00352356
-0.00384696
-0.00422535
-0.00466611
-0.00517692
-0.0057655
-0.00643935
-0.00720515
-0.00806766
-0.00903129
-0.0018828
-0.00200413
-0.00208059
-0.00213703
-0.00218615
-0.00223164
-0.00227734
-0.00232699
-0.00238377
-0.00245048
-0.00252981
-0.00262451
-0.00273755
-0.00287231
-0.00303264
-0.00322298
-0.00344848
-0.00371498
-0.00402906
-0.00439796
-0.00482953
-0.00533202
-0.00591386
-0.00658339
-0.00734854
-0.00821613
-0.00919082
-0.0102764
-0.0021892
-0.0023117
-0.00238927
-0.00244719
-0.00249851
-0.00254709
-0.00259698
-0.00265208
-0.00271574
-0.00279095
-0.00288063
-0.00298782
-0.00311585
-0.00326852
-0.00345021
-0.00366599
-0.00392169
-0.00422394
-0.00458015
-0.00499847
-0.00548759
-0.00605658
-0.00671457
-0.00747042
-0.00833231
-0.00930701
-0.0103988
-0.0116107
-0.00252053
-0.00264362
-0.00272207
-0.00278146
-0.00283511
-0.00288709
-0.0029416
-0.00300274
-0.003074
-0.00315859
-0.00325965
-0.00338054
-0.00352498
-0.00369721
-0.00390218
-0.00414561
-0.00443407
-0.00477498
-0.00517665
-0.00564806
-0.00619878
-0.00683863
-0.00757733
-0.00842413
-0.00938725
-0.0104732
-0.0116857
-0.0130264
-0.00287668
-0.00299976
-0.00307885
-0.00313969
-0.00319581
-0.00325148
-0.00331107
-0.00337882
-0.00345841
-0.00355324
-0.00366672
-0.00380251
-0.00396474
-0.00415815
-0.00438826
-0.00466148
-0.00498512
-0.00536746
-0.00581765
-0.00634554
-0.00696148
-0.00767599
-0.00849926
-0.00944072
-0.0105085
-0.0117085
-0.0130436
-0.0145141
-0.00325734
-0.00337979
-0.00345925
-0.0035215
-0.00358022
-0.00363987
-0.00370498
-0.00377992
-0.00386856
-0.00397448
-0.00410137
-0.00425322
-0.00443458
-0.00465071
-0.00490772
-0.00521272
-0.00557381
-0.00600009
-0.00650155
-0.00708887
-0.00777314
-0.00856543
-0.00947627
-0.0105151
-0.0116897
-0.0130053
-0.0144634
-0.0160627
-0.00366196
-0.00378311
-0.00386266
-0.00392629
-0.00398773
-0.00405163
-0.00412267
-0.00420537
-0.00430373
-0.00442156
-0.00456281
-0.00473182
-0.00493357
-0.00517383
-0.00545936
-0.00579795
-0.0061985
-0.00667091
-0.007226
-0.00787521
-0.00863027
-0.00950269
-0.0105032
-0.0116411
-0.0129234
-0.0143545
-0.0159345
-0.0176601
-0.00408972
-0.0042089
-0.00428824
-0.00435318
-0.00441745
-0.00448586
-0.00456323
-0.00465419
-0.00476291
-0.00489341
-0.0050499
-0.00523707
-0.00546034
-0.00572602
-0.0060415
-0.00641526
-0.00685697
-0.00737734
-0.00798793
-0.00870091
-0.00952852
-0.0104826
-0.0115739
-0.0128112
-0.014201
-0.0157462
-0.0174454
-0.0192933
-0.00453956
-0.00465608
-0.00473491
-0.00480107
-0.00486824
-0.00494139
-0.00502543
-0.00512513
-0.0052448
-0.00538865
-0.00556116
-0.00576738
-0.00601316
-0.00630536
-0.00665198
-0.0070622
-0.00754643
-0.00811614
-0.0087836
-0.00956156
-0.0104627
-0.0114991
-0.0126812
-0.0140173
-0.0155129
-0.0171695
-0.018984
-0.0209487
-0.00501018
-0.00512333
-0.00520132
-0.0052686
-0.00533872
-0.00541678
-0.0055078
-0.00561665
-0.00574776
-0.00590554
-0.00609475
-0.00632077
-0.00658989
-0.00690949
-0.00728818
-0.00773583
-0.00826354
-0.00888348
-0.00960859
-0.0104521
-0.011427
-0.0125453
-0.0138173
-0.0152505
-0.0168491
-0.0186132
-0.0205377
-0.0226128
-0.0055
-0.00560909
-0.0056859
-0.00575417
-0.00582726
-0.00591037
-0.0060086
-0.00612692
-0.00626989
-0.00644209
-0.00664852
-0.00689492
-0.00718799
-0.00753563
-0.00794704
-0.00843272
-0.00900445
-0.00967502
-0.0104579
-0.0113668
-0.0124149
-0.013614
-0.0149739
-0.0165013
-0.0181991
-0.0200657
-0.022094
-0.0242721
-0.00600726
-0.00611157
-0.00618683
-0.00625595
-0.00633197
-0.0064202
-0.00652583
-0.00665387
-0.006809
-0.00699596
-0.00722001
-0.00748718
-0.00780461
-0.00818066
-0.0086251
-0.00914904
-0.00976485
-0.0104859
-0.0113262
-0.0122996
-0.0134194
-0.0146972
-0.0161422
-0.01776
-0.0195522
-0.0215154
-0.0236406
-0.0259137
-0.00652998
-0.00662885
-0.00670219
-0.00677193
-0.00685079
-0.00694415
-0.00705726
-0.00719516
-0.00736263
-0.00756457
-0.00780644
-0.00809459
-0.00843653
-0.00884109
-0.00931854
-0.00988056
-0.0105401
-0.0113109
-0.0122075
-0.0132439
-0.0144332
-0.0157869
-0.0173133
-0.0190169
-0.0208979
-0.022951
-0.0251656
-0.0275254
-0.00722989
-0.00730003
-0.00738158
-0.00748002
-0.0076006
-0.00774841
-0.00792828
-0.00814525
-0.00840497
-0.00871406
-0.0090804
-0.00951322
-0.0100233
-0.0106227
-0.011325
-0.0121444
-0.0130955
-0.0141925
-0.0154486
-0.0168744
-0.0184776
-0.0202618
-0.0222253
-0.0243614
-0.0266575
-0.0290955
)
;

boundaryField
{
    movingWall
    {
        type            zeroGradient;
    }
    fixedWalls
    {
        type            zeroGradient;
    }
    frontAndBack
    {
        type            empty;
    }
    procBoundary0to1
    {
        type            processor;
        value           nonuniform List<scalar> 
45
(
-0.000468442
-0.000432481
-0.000406416
-0.000385239
-0.0003676
-0.000354608
-0.000347309
-0.00034679
-0.000354394
-0.000371761
-0.000400872
-0.00044412
-0.000504383
-0.000585116
-0.000690424
-0.000825145
-0.000994902
-0.00120613
-0.00146607
-0.0017828
-0.00194193
-0.00194193
-0.00234675
-0.00282556
-0.00338649
-0.00403727
-0.00478464
-0.00563412
-0.0065896
-0.00765302
-0.00882408
-0.0101001
-0.011476
-0.0129443
-0.0144954
-0.016118
-0.0177992
-0.019525
-0.021281
-0.0230524
-0.0248246
-0.0265837
-0.0283163
-0.0300099
-0.031653
)
;
    }
    procBoundary0to3
    {
        type            processor;
        value           nonuniform List<scalar> 
29
(
-0.00706606
-0.00715881
-0.00715881
-0.00776755
-0.00783794
-0.00792208
-0.00802553
-0.00815356
-0.00831126
-0.00850352
-0.00873549
-0.00901298
-0.00934287
-0.00973333
-0.010194
-0.010736
-0.0113719
-0.0121157
-0.0129818
-0.0139851
-0.0151399
-0.016459
-0.0179526
-0.0196275
-0.021486
-0.0235252
-0.0257367
-0.0281061
-0.0306138
)
;
    }
}


// ************************************************************************* //
