/*--------------------------------*- C++ -*----------------------------------*\
  =========                 |
  \\      /  F ield         | OpenFOAM: The Open Source CFD Toolbox
   \\    /   O peration     | Website:  https://openfoam.org
    \\  /    A nd           | Version:  9
     \\/     M anipulation  |
\*---------------------------------------------------------------------------*/
FoamFile
{
    format      ascii;
    class       volVectorField;
    location    "1.25";
    object      U;
}
// * * * * * * * * * * * * * * * * * * * * * * * * * * * * * * * * * * * * * //

dimensions      [0 1 -1 0 0 0 0];

internalField   nonuniform List<vector> 
1250
(
(6.19782e-06 -6.14737e-06 0)
(2.4334e-05 -1.07093e-05 0)
(4.5146e-05 -9.35337e-06 0)
(5.62503e-05 -5.27988e-06 0)
(5.32848e-05 -5.14154e-07 0)
(3.57258e-05 4.0471e-06 0)
(4.59629e-06 7.99174e-06 0)
(-3.83683e-05 1.12145e-05 0)
(-9.12097e-05 1.37442e-05 0)
(-0.00015206 1.56724e-05 0)
(-0.000219297 1.71192e-05 0)
(-0.000291608 1.82088e-05 0)
(-0.000368009 1.90568e-05 0)
(-0.000447829 1.97645e-05 0)
(-0.000530681 2.04167e-05 0)
(-0.000616415 2.10811e-05 0)
(-0.000705072 2.18093e-05 0)
(-0.000796842 2.26382e-05 0)
(-0.00089202 2.3592e-05 0)
(-0.000990971 2.46843e-05 0)
(-0.0010941 2.59196e-05 0)
(-0.0012018 2.72953e-05 0)
(-0.00131449 2.88026e-05 0)
(-0.0014325 3.04274e-05 0)
(-0.00155615 3.21514e-05 0)
(-0.00168567 3.39519e-05 0)
(-0.0018212 3.58006e-05 0)
(-0.00196277 3.76608e-05 0)
(-0.00211029 3.95003e-05 0)
(1.10309e-05 -2.45047e-05 0)
(3.71182e-05 -3.66458e-05 0)
(5.79747e-05 -2.55776e-05 0)
(5.40072e-05 -2.93177e-06 0)
(1.71057e-05 2.36715e-05 0)
(-5.44711e-05 5.01182e-05 0)
(-0.000159329 7.41886e-05 0)
(-0.000294205 9.49438e-05 0)
(-0.000455067 0.000112207 0)
(-0.0006378 0.000126231 0)
(-0.000838644 0.000137499 0)
(-0.00105442 0.00014659 0)
(-0.00128265 0.000154096 0)
(-0.00152154 0.00016057 0)
(-0.00176996 0.000166501 0)
(-0.00202735 0.000172296 0)
(-0.00229362 0.00017828 0)
(-0.00256908 0.000184697 0)
(-0.0028543 0.000191715 0)
(-0.00315006 0.000199438 0)
(-0.00345723 0.00020791 0)
(-0.00377672 0.000217129 0)
(-0.0041094 0.000227044 0)
(-0.00445607 0.000237569 0)
(-0.00481735 0.000248585 0)
(-0.00519372 0.000259939 0)
(-0.0055854 0.000271445 0)
(-0.00599231 0.000282881 0)
(-0.00641409 0.000294033 0)
(9.95018e-06 -4.6059e-05 0)
(2.61751e-05 -5.77587e-05 0)
(2.20898e-05 -2.27124e-05 0)
(-2.19875e-05 3.66196e-05 0)
(-0.000114601 0.000105461 0)
(-0.000257527 0.00017454 0)
(-0.000449007 0.000238563 0)
(-0.000684805 0.000294962 0)
(-0.00095958 0.000342972 0)
(-0.00126778 0.000382945 0)
(-0.00160423 0.000415883 0)
(-0.00196447 0.000443109 0)
(-0.00234492 0.000466044 0)
(-0.00274296 0.000486066 0)
(-0.00315683 0.000504422 0)
(-0.00358561 0.000522174 0)
(-0.00402904 0.000540189 0)
(-0.00448743 0.000559128 0)
(-0.00496149 0.000579461 0)
(-0.00545221 0.000601483 0)
(-0.00596076 0.000625333 0)
(-0.00648836 0.000651007 0)
(-0.00703618 0.000678384 0)
(-0.00760525 0.000707228 0)
(-0.00819639 0.000737206 0)
(-0.00881013 0.000767895 0)
(-0.00944666 0.000798779 0)
(-0.0101057 0.000829251 0)
(-0.0107864 0.000858715 0)
(5.80017e-06 -5.77322e-05 0)
(1.3302e-06 -5.22329e-05 0)
(-4.46226e-05 2.26833e-05 0)
(-0.000146822 0.000133879 0)
(-0.000312167 0.000259665 0)
(-0.000541488 0.000385496 0)
(-0.000831924 0.000502755 0)
(-0.00117822 0.000607059 0)
(-0.001574 0.000696931 0)
(-0.00201266 0.000772794 0)
(-0.00248805 0.000836229 0)
(-0.00299483 0.000889429 0)
(-0.00352867 0.000934819 0)
(-0.00408634 0.000974793 0)
(-0.00466568 0.00101155 0)
(-0.00526548 0.00104698 0)
(-0.00588536 0.00108266 0)
(-0.00652561 0.00111979 0)
(-0.00718704 0.00115924 0)
(-0.00787079 0.00120157 0)
(-0.00857824 0.00124704 0)
(-0.0093108 0.00129565 0)
(-0.0100699 0.00134718 0)
(-0.0108566 0.00140119 0)
(-0.0116719 0.00145704 0)
(-0.0125163 0.00151393 0)
(-0.0133898 0.00157088 0)
(-0.0142919 0.00162674 0)
(-0.0152214 0.00168038 0)
(3.54572e-07 -5.34965e-05 0)
(-3.12283e-05 -7.80231e-06 0)
(-0.000130843 0.000125531 0)
(-0.000304689 0.00030429 0)
(-0.000556142 0.000500451 0)
(-0.000884255 0.00069497 0)
(-0.00128449 0.000876212 0)
(-0.00175026 0.00103814 0)
(-0.00227411 0.00117866 0)
(-0.00284857 0.00129836 0)
(-0.00346673 0.00139949 0)
(-0.0041226 0.00148522 0)
(-0.00481139 0.0015591 0)
(-0.00552949 0.00162467 0)
(-0.00627448 0.00168519 0)
(-0.00704501 0.00174353 0)
(-0.00784067 0.00180205 0)
(-0.0086618 0.00186259 0)
(-0.00950931 0.00192649 0)
(-0.0103845 0.00199461 0)
(-0.011289 0.00206736 0)
(-0.0122243 0.00214473 0)
(-0.013192 0.00222636 0)
(-0.0141934 0.00231157 0)
(-0.0152294 0.00239933 0)
(-0.0163007 0.00248836 0)
(-0.0174069 0.0025771 0)
(-0.0185473 0.00266371 0)
(-0.0197202 0.00274636 0)
(-5.72261e-06 -3.05073e-05 0)
(-6.83471e-05 8.28635e-05 0)
(-0.000229503 0.000295825 0)
(-0.000484761 0.000559127 0)
(-0.000832692 0.00083943 0)
(-0.00126964 0.00111402 0)
(-0.00178884 0.00136889 0)
(-0.002382 0.00159679 0)
(-0.00304046 0.00179532 0)
(-0.00375584 0.00196545 0)
(-0.00452058 0.00211027 0)
(-0.00532826 0.00223407 0)
(-0.00617374 0.00234166 0)
(-0.00705324 0.00243781 0)
(-0.00796425 0.00252698 0)
(-0.00890544 0.00261308 0)
(-0.00987647 0.00269934 0)
(-0.0108778 0.00278831 0)
(-0.0119106 0.00288184 0)
(-0.0129764 0.00298111 0)
(-0.0140769 0.00308668 0)
(-0.015214 0.00319854 0)
(-0.0163894 0.00331616 0)
(-0.0176045 0.00343853 0)
(-0.0188605 0.00356418 0)
(-0.0201578 0.00369123 0)
(-0.0214961 0.00381741 0)
(-0.0228743 0.00394006 0)
(-0.0242903 0.00405655 0)
(-1.20633e-05 1.28952e-05 0)
(-0.000108182 0.000224786 0)
(-0.000336309 0.000540986 0)
(-0.000680052 0.000906992 0)
(-0.00113231 0.00128556 0)
(-0.00168603 0.00165131 0)
(-0.00233166 0.00198869 0)
(-0.00305889 0.00228986 0)
(-0.00385762 0.00255258 0)
(-0.00471851 0.00277854 0)
(-0.00563339 0.00297194 0)
(-0.00659545 0.00313839 0)
(-0.00759939 0.00328407 0)
(-0.00864138 0.00341516 0)
(-0.009719 0.00353736 0)
(-0.0108311 0.00365571 0)
(-0.0119775 0.00377439 0)
(-0.013159 0.00389668 0)
(-0.0143769 0.00402498 0)
(-0.0156333 0.00416082 0)
(-0.0169301 0.00430489 0)
(-0.0182696 0.00445717 0)
(-0.0196537 0.0046169 0)
(-0.021084 0.00478268 0)
(-0.0225619 0.00495253 0)
(-0.0240878 0.00512386 0)
(-0.0256614 0.00529357 0)
(-0.0272813 0.00545805 0)
(-0.0289451 0.0056137 0)
(-1.85892e-05 7.77453e-05 0)
(-0.000149841 0.000421311 0)
(-0.0004487 0.000866198 0)
(-0.000886064 0.00135424 0)
(-0.00144855 0.00184566 0)
(-0.00212515 0.0023136 0)
(-0.00290315 0.00274191 0)
(-0.00376985 0.00312289 0)
(-0.00471354 0.00345509 0)
(-0.00572384 0.00374135 0)
(-0.00679193 0.00398733 0)
(-0.00791071 0.00420018 0)
(-0.00907479 0.00438769 0)
(-0.0102805 0.00455751 0)
(-0.0115255 0.00471675 0)
(-0.012809 0.00487163 0)
(-0.0141313 0.00502731 0)
(-0.0154936 0.00518788 0)
(-0.0168977 0.00535628 0)
(-0.0183459 0.00553439 0)
(-0.0198408 0.00572306 0)
(-0.021385 0.00592218 0)
(-0.0229809 0.00613075 0)
(-0.0246305 0.00634692 0)
(-0.0263353 0.00656806 0)
(-0.0280959 0.00679082 0)
(-0.029912 0.00701111 0)
(-0.0317822 0.00722423 0)
(-0.0337037 0.0074255 0)
(-2.52382e-05 0.000164701 0)
(-0.000192794 0.000674771 0)
(-0.000565114 0.00127519 0)
(-0.00109987 0.00190555 0)
(-0.00177696 0.00252492 0)
(-0.00258109 0.00310614 0)
(-0.00349601 0.00363351 0)
(-0.00450641 0.00410037 0)
(-0.0055988 0.00450669 0)
(-0.00676165 0.00485705 0)
(-0.00798553 0.00515891 0)
(-0.00926304 0.00542134 0)
(-0.0105888 0.0056539 0)
(-0.0119594 0.00586593 0)
(-0.0133729 0.00606601 0)
(-0.014829 0.00626163 0)
(-0.0163284 0.00645903 0)
(-0.0178729 0.0066631 0)
(-0.0194651 0.00687737 0)
(-0.0211078 0.00710406 0)
(-0.0228043 0.00734414 0)
(-0.0245578 0.00759742 0)
(-0.0263711 0.00786257 0)
(-0.0282468 0.00813723 0)
(-0.0301867 0.00841803 0)
(-0.0321918 0.00870072 0)
(-0.034262 0.00898012 0)
(-0.0363956 0.00925026 0)
(-0.0385899 0.00950527 0)
(-3.19995e-05 0.000274332 0)
(-0.000236764 0.000986911 0)
(-0.000684583 0.0017707 0)
(-0.00131952 0.00256439 0)
(-0.00211447 0.0033272 0)
(-0.00304957 0.00403289 0)
(-0.00410481 0.00466732 0)
(-0.00526209 0.00522577 0)
(-0.00650601 0.00571042 0)
(-0.00782386 0.00612816 0)
(-0.00920557 0.00648879 0)
(-0.0106435 0.00680357 0)
(-0.0121325 0.00708413 0)
(-0.0136694 0.00734166 0)
(-0.0152527 0.00758639 0)
(-0.0168829 0.00782716 0)
(-0.0185614 0.00807134 0)
(-0.0202907 0.00832466 0)
(-0.0220743 0.00859126 0)
(-0.0239157 0.00887372 0)
(-0.0258192 0.00917311 0)
(-0.0277885 0.0094891 0)
(-0.0298275 0.00981996 0)
(-0.0319391 0.0101627 0)
(-0.0341258 0.0105133 0)
(-0.036389 0.0108662 0)
(-0.0387289 0.0112152 0)
(-0.0411437 0.0115528 0)
(-0.043631 0.0118718 0)
(-3.88786e-05 0.00040711 0)
(-0.000281594 0.00135908 0)
(-0.000806477 0.00235481 0)
(-0.00154366 0.00333333 0)
(-0.00245884 0.00425531 0)
(-0.00352739 0.00509673 0)
(-0.00472539 0.0058461 0)
(-0.00603182 0.00650163 0)
(-0.00742933 0.00706854 0)
(-0.008904 0.00755667 0)
(-0.0104451 0.00797865 0)
(-0.012045 0.00834836 0)
(-0.0136986 0.00867979 0)
(-0.0154032 0.00898621 0)
(-0.0171583 0.00927961 0)
(-0.0189647 0.00957034 0)
(-0.0208251 0.00986694 0)
(-0.0227429 0.0101761 0)
(-0.0247224 0.0105025 0)
(-0.0267686 0.0108491 0)
(-0.0288863 0.0112171 0)
(-0.0310806 0.0116059 0)
(-0.033356 0.0120133 0)
(-0.0357164 0.0124358 0)
(-0.0381649 0.0128682 0)
(-0.0407035 0.0133039 0)
(-0.0433328 0.0137352 0)
(-0.0460512 0.0141531 0)
(-0.0488563 0.014549 0)
(-4.58806e-05 0.000563447 0)
(-0.000327178 0.00179235 0)
(-0.000930346 0.00302906 0)
(-0.00177132 0.00421423 0)
(-0.0028084 0.00531129 0)
(-0.0040121 0.00629969 0)
(-0.0053545 0.00717179 0)
(-0.00681162 0.00792975 0)
(-0.00836411 0.00858265 0)
(-0.00999688 0.00914402 0)
(-0.0116987 0.00962986 0)
(-0.0134617 0.0100571 0)
(-0.0152813 0.0104424 0)
(-0.0171555 0.0108014 0)
(-0.0190843 0.0111479 0)
(-0.0210699 0.0114941 0)
(-0.0231159 0.0118496 0)
(-0.025227 0.0122221 0)
(-0.0274088 0.0126171 0)
(-0.0296672 0.0130377 0)
(-0.0320087 0.0134853 0)
(-0.0344392 0.0139589 0)
(-0.0369645 0.014456 0)
(-0.0395895 0.0149719 0)
(-0.042318 0.0155006 0)
(-0.0451529 0.0160342 0)
(-0.0480951 0.0165633 0)
(-0.0511435 0.0170772 0)
(-0.0542956 0.0175656 0)
(-5.30059e-05 0.000743719 0)
(-0.000373424 0.00228761 0)
(-0.00105583 0.00379466 0)
(-0.00200169 0.00520842 0)
(-0.0031618 0.00649649 0)
(-0.00450172 0.00764309 0)
(-0.00598951 0.00864562 0)
(-0.00759821 0.00951125 0)
(-0.00930653 0.0102538 0)
(-0.0110982 0.0108913 0)
(-0.0129616 0.0114435 0)
(-0.014889 0.0119311 0)
(-0.0168761 0.0123736 0)
(-0.0189217 0.0127892 0)
(-0.0210271 0.0131941 0)
(-0.0231954 0.013602 0)
(-0.0254318 0.0140241 0)
(-0.0277422 0.014469 0)
(-0.0301337 0.0149428 0)
(-0.0326139 0.0154491 0)
(-0.0351904 0.0159892 0)
(-0.0378708 0.0165619 0)
(-0.040662 0.0171638 0)
(-0.04357 0.0177897 0)
(-0.0465998 0.0184319 0)
(-0.0497549 0.0190811 0)
(-0.053037 0.0197263 0)
(-0.0564449 0.0203547 0)
(-0.0599768 0.0209542 0)
(-6.02496e-05 0.000948263 0)
(-0.000420238 0.00284556 0)
(-0.00118259 0.00465245 0)
(-0.00223408 0.00631679 0)
(-0.00351787 0.00781174 0)
(-0.00499457 0.00912767 0)
(-0.00662819 0.0102683 0)
(-0.00838886 0.0112467 0)
(-0.0102534 0.0120827 0)
(-0.0122045 0.0127991 0)
(-0.0142302 0.0134206 0)
(-0.0163229 0.0139716 0)
(-0.0184791 0.0144752 0)
(-0.0206985 0.0149524 0)
(-0.0229836 0.0154217 0)
(-0.025339 0.0158988 0)
(-0.0277713 0.0163964 0)
(-0.0302883 0.0169242 0)
(-0.0328986 0.0174889 0)
(-0.0356115 0.0180946 0)
(-0.0384364 0.0187424 0)
(-0.0413823 0.0194307 0)
(-0.0444575 0.0201555 0)
(-0.0476695 0.0209101 0)
(-0.0510242 0.0216858 0)
(-0.054526 0.0224715 0)
(-0.0581773 0.0232539 0)
(-0.0619771 0.0240183 0)
(-0.0659238 0.0247504 0)
(-6.76015e-05 0.00117737 0)
(-0.000467517 0.00346673 0)
(-0.0013103 0.00560302 0)
(-0.00246782 0.00753985 0)
(-0.00387554 0.00925742 0)
(-0.0054891 0.0107537 0)
(-0.00726853 0.0120399 0)
(-0.0091811 0.0131364 0)
(-0.0112019 0.0140695 0)
(-0.0133126 0.0148681 0)
(-0.0155012 0.0155619 0)
(-0.0177603 0.01618 0)
(-0.0200873 0.0167492 0)
(-0.0224831 0.0172937 0)
(-0.0249516 0.0178347 0)
(-0.0274991 0.0183898 0)
(-0.0301339 0.0189734 0)
(-0.0328657 0.0195964 0)
(-0.0357051 0.0202662 0)
(-0.0386633 0.0209871 0)
(-0.0417513 0.0217602 0)
(-0.0449801 0.0225833 0)
(-0.0483594 0.0234514 0)
(-0.0518981 0.0243568 0)
(-0.0556032 0.0252887 0)
(-0.0594799 0.0262343 0)
(-0.0635314 0.0271781 0)
(-0.0677565 0.0281026 0)
(-0.0721541 0.0289915 0)
(-7.50463e-05 0.00143127 0)
(-0.000515141 0.00415151 0)
(-0.00143862 0.00664667 0)
(-0.00270224 0.00887772 0)
(-0.00423376 0.0108335 0)
(-0.00598385 0.0125209 0)
(-0.00790866 0.0139602 0)
(-0.00997269 0.01518 0)
(-0.0121494 0.0162141 0)
(-0.0144197 0.0170984 0)
(-0.0167715 0.0178683 0)
(-0.0191982 0.0185578 0)
(-0.0216979 0.019198 0)
(-0.024273 0.0198167 0)
(-0.0269291 0.0204378 0)
(-0.0296743 0.0210812 0)
(-0.032519 0.0217631 0)
(-0.0354749 0.0224955 0)
(-0.0385547 0.0232867 0)
(-0.0417717 0.024141 0)
(-0.045139 0.0250594 0)
(-0.0486692 0.0260391 0)
(-0.0523738 0.0270738 0)
(-0.056263 0.0281543 0)
(-0.0603449 0.0292681 0)
(-0.0646256 0.0303997 0)
(-0.0691085 0.0315314 0)
(-0.0737925 0.0326427 0)
(-0.0786764 0.0337146 0)
(-8.2563e-05 0.00171013 0)
(-0.000562966 0.00490007 0)
(-0.00156714 0.00778343 0)
(-0.00293663 0.0103302 0)
(-0.00459143 0.0125395 0)
(-0.00647734 0.0144288 0)
(-0.00854669 0.0160285 0)
(-0.0107614 0.017377 0)
(-0.0130934 0.0185164 0)
(-0.0155231 0.0194902 0)
(-0.0180385 0.0203403 0)
(-0.0206337 0.0211064 0)
(-0.0233081 0.0218241 0)
(-0.0260657 0.022525 0)
(-0.0289139 0.0232361 0)
(-0.031863 0.0239798 0)
(-0.0349255 0.0247742 0)
(-0.0381155 0.0256323 0)
(-0.0414479 0.0265633 0)
(-0.0449381 0.0275717 0)
(-0.0486015 0.0286579 0)
(-0.0524524 0.0298184 0)
(-0.056504 0.0310456 0)
(-0.0607678 0.0323283 0)
(-0.0652529 0.0336518 0)
(-0.0699659 0.0349979 0)
(-0.0749105 0.0363459 0)
(-0.0800851 0.0376723 0)
(-0.0854882 0.0389551 0)
(-9.01257e-05 0.00201404 0)
(-0.00061083 0.00571241 0)
(-0.00169544 0.00901304 0)
(-0.00317021 0.0118968 0)
(-0.00494739 0.0143747 0)
(-0.006968 0.0164764 0)
(-0.00918069 0.018244 0)
(-0.0115449 0.0197265 0)
(-0.0140313 0.0209757 0)
(-0.01662 0.0220434 0)
(-0.0192992 0.0229788 0)
(-0.0220639 0.0238274 0)
(-0.0249152 0.0246301 0)
(-0.0278586 0.0254225 0)
(-0.0309038 0.0262351 0)
(-0.0340632 0.027093 0)
(-0.0373519 0.0280157 0)
(-0.0407862 0.0290181 0)
(-0.0443836 0.0301096 0)
(-0.0481619 0.0312949 0)
(-0.0521383 0.0325739 0)
(-0.0563291 0.0339419 0)
(-0.060749 0.0353897 0)
(-0.0654107 0.0369037 0)
(-0.070324 0.0384666 0)
(-0.0754959 0.0400574 0)
(-0.0809297 0.0416516 0)
(-0.086623 0.0432223 0)
(-0.0925736 0.0447441 0)
(-9.77027e-05 0.002343 0)
(-0.000658543 0.00658827 0)
(-0.00182302 0.0103349 0)
(-0.0034021 0.0135765 0)
(-0.00530037 0.0163378 0)
(-0.00745417 0.0186624 0)
(-0.00980862 0.0206053 0)
(-0.0123209 0.0222274 0)
(-0.0149606 0.0235913 0)
(-0.0177075 0.0247579 0)
(-0.0205505 0.0257842 0)
(-0.0234857 0.0267224 0)
(-0.0265158 0.0276188 0)
(-0.0296485 0.0285136 0)
(-0.0328955 0.0294408 0)
(-0.0362719 0.0304281 0)
(-0.0397951 0.0314973 0)
(-0.0434842 0.0326643 0)
(-0.0473591 0.0339392 0)
(-0.0514397 0.0353266 0)
(-0.0557455 0.0368254 0)
(-0.0602945 0.0384296 0)
(-0.0651028 0.0401277 0)
(-0.0701837 0.0419039 0)
(-0.0755476 0.0437374 0)
(-0.0812014 0.0456036 0)
(-0.0871474 0.0474742 0)
(-0.0933817 0.0493182 0)
(-0.0999014 0.0511064 0)
(-0.000105257 0.00269689 0)
(-0.000705886 0.00752716 0)
(-0.00194933 0.0117481 0)
(-0.00363135 0.0153679 0)
(-0.00564898 0.0184272 0)
(-0.00793401 0.0209849 0)
(-0.0104282 0.0231105 0)
(-0.0130868 0.0248782 0)
(-0.0158782 0.0263621 0)
(-0.0187824 0.0276331 0)
(-0.0217889 0.0287569 0)
(-0.0248955 0.0297927 0)
(-0.0281064 0.0307929 0)
(-0.0314315 0.0318022 0)
(-0.034885 0.0328586 0)
(-0.0384848 0.0339927 0)
(-0.0422507 0.0352282 0)
(-0.0462045 0.0365823 0)
(-0.0503686 0.0380654 0)
(-0.0547652 0.0396817 0)
(-0.0594155 0.0414291 0)
(-0.0643391 0.0432995 0)
(-0.0695531 0.0452793 0)
(-0.0750714 0.0473491 0)
(-0.0809043 0.0494847 0)
(-0.0870579 0.051657 0)
(-0.0935326 0.0538331 0)
(-0.100322 0.0559777 0)
(-0.107426 0.0580594 0)
(-0.000112745 0.00307549 0)
(-0.000752613 0.00852829 0)
(-0.00207374 0.0132513 0)
(-0.00385689 0.0172694 0)
(-0.00599166 0.0206409 0)
(-0.00840549 0.0234418 0)
(-0.011037 0.0257577 0)
(-0.0138395 0.0276771 0)
(-0.0167808 0.0292868 0)
(-0.019841 0.0306685 0)
(-0.0230107 0.0318972 0)
(-0.026289 0.0330397 0)
(-0.0296822 0.0341548 0)
(-0.0332027 0.0352923 0)
(-0.0368672 0.0364941 0)
(-0.0406962 0.0377939 0)
(-0.0447123 0.0392173 0)
(-0.0489399 0.0407824 0)
(-0.0534037 0.0425001 0)
(-0.058128 0.0443737 0)
(-0.0631358 0.0463997 0)
(-0.0684477 0.0485676 0)
(-0.0740815 0.0508605 0)
(-0.0800509 0.0532555 0)
(-0.0863657 0.0557239 0)
(-0.0930304 0.0582317 0)
(-0.100042 0.0607402 0)
(-0.107398 0.0632133 0)
(-0.000120117 0.00347841 0)
(-0.000798445 0.00959053 0)
(-0.00219556 0.0148427 0)
(-0.00407752 0.0192787 0)
(-0.0063267 0.0229763 0)
(-0.0088664 0.0260304 0)
(-0.0116323 0.0285441 0)
(-0.014576 0.0306217 0)
(-0.0176649 0.0323634 0)
(-0.0208794 0.0338628 0)
(-0.0242112 0.0352047 0)
(-0.0276612 0.0364642 0)
(-0.031238 0.0377066 0)
(-0.0349562 0.0389873 0)
(-0.0388354 0.0403522 0)
(-0.0428985 0.0418379 0)
(-0.0471712 0.0434721 0)
(-0.0516802 0.0452739 0)
(-0.0564524 0.0472538 0)
(-0.061514 0.0494141 0)
(-0.0668891 0.0517491 0)
(-0.0725993 0.0542456 0)
(-0.0786623 0.0568829 0)
(-0.0850911 0.0596336 0)
(-0.0918941 0.062464 0)
(-0.0990738 0.0653344 0)
(-0.106624 0.0682006 0)
(-0.114537 0.0710207 0)
(-0.000127319 0.00390514 0)
(-0.000843072 0.0107124 0)
(-0.00231403 0.01652 0)
(-0.00429193 0.0213929 0)
(-0.00665222 0.0254302 0)
(-0.00931426 0.0287475 0)
(-0.012211 0.0314668 0)
(-0.0152927 0.0337093 0)
(-0.0185263 0.0355899 0)
(-0.0218928 0.0372146 0)
(-0.0253853 0.0386789 0)
(-0.0290065 0.0400665 0)
(-0.0327672 0.0414498 0)
(-0.0366847 0.0428897 0)
(-0.0407811 0.0444366 0)
(-0.0450823 0.0461299 0)
(-0.0496163 0.0479991 0)
(-0.0544123 0.0500639 0)
(-0.059499 0.0523342 0)
(-0.0649042 0.0548108 0)
(-0.0706529 0.0574854 0)
(-0.0767667 0.060341 0)
(-0.0832625 0.0633526 0)
(-0.0901523 0.0664875 0)
(-0.097442 0.069706 0)
(-0.105131 0.0729623 0)
(-0.113208 0.0762051 0)
(-0.121662 0.079386 0)
(-0.000134288 0.00435495 0)
(-0.000886152 0.0118921 0)
(-0.00242828 0.0182807 0)
(-0.00449866 0.0236088 0)
(-0.00696613 0.027999 0)
(-0.00974637 0.0315893 0)
(-0.0127699 0.0345221 0)
(-0.0159856 0.0369365 0)
(-0.0193604 0.0389632 0)
(-0.0228761 0.0407217 0)
(-0.0265272 0.0423183 0)
(-0.0303182 0.0438461 0)
(-0.0342624 0.0453848 0)
(-0.0383796 0.0470013 0)
(-0.0426946 0.0487499 0)
(-0.0472359 0.0506733 0)
(-0.0520339 0.0528023 0)
(-0.0571199 0.0551569 0)
(-0.0625242 0.057746 0)
(-0.0682756 0.0605682 0)
(-0.0743992 0.0636118 0)
(-0.0809162 0.0668555 0)
(-0.0878421 0.0702688 0)
(-0.0951864 0.073813 0)
(-0.102952 0.0774416 0)
(-0.111133 0.0811012 0)
(-0.119715 0.0847328 0)
(-0.128677 0.08828 0)
(-0.000140956 0.00482697 0)
(-0.000927312 0.0131272 0)
(-0.00253741 0.0201211 0)
(-0.00469616 0.0259222 0)
(-0.00726619 0.0306783 0)
(-0.0101598 0.0345513 0)
(-0.0133053 0.0377055 0)
(-0.0166505 0.0402993 0)
(-0.0201623 0.04248 0)
(-0.0238236 0.0443811 0)
(-0.0276301 0.0461208 0)
(-0.0315886 0.0478016 0)
(-0.0357147 0.0495111 0)
(-0.0400307 0.051322 0)
(-0.0445639 0.053293 0)
(-0.0493454 0.0554694 0)
(-0.0544077 0.0578833 0)
(-0.0597836 0.0605544 0)
(-0.0655048 0.0634901 0)
(-0.0716002 0.066686 0)
(-0.0780949 0.0701262 0)
(-0.0850083 0.0737841 0)
(-0.092354 0.0776231 0)
(-0.100138 0.0815971 0)
(-0.108359 0.0856518 0)
(-0.117005 0.0897254 0)
(-0.126055 0.0937501 0)
(-0.135482 0.0976605 0)
(-0.000147251 0.00532008 0)
(-0.000966147 0.014415 0)
(-0.00264041 0.0220376 0)
(-0.00488273 0.0283285 0)
(-0.00754996 0.0334629 0)
(-0.0105513 0.0376283 0)
(-0.0138132 0.0410121 0)
(-0.0172825 0.043793 0)
(-0.0209265 0.046136 0)
(-0.0247287 0.0481892 0)
(-0.0286867 0.0500832 0)
(-0.0328093 0.0519306 0)
(-0.0371143 0.0538268 0)
(-0.0416265 0.0558506 0)
(-0.0463757 0.0580648 0)
(-0.0513949 0.0605172 0)
(-0.0567186 0.0632407 0)
(-0.0623809 0.0662543 0)
(-0.068414 0.0695629 0)
(-0.0748465 0.0731585 0)
(-0.0817021 0.0770201 0)
(-0.0889985 0.0811148 0)
(-0.0967456 0.0853985 0)
(-0.104945 0.0898171 0)
(-0.11359 0.0943072 0)
(-0.122663 0.0987977 0)
(-0.132134 0.103211 0)
(-0.141969 0.107471 0)
(-0.000153093 0.00583296 0)
(-0.00100223 0.0157522 0)
(-0.00273623 0.0240253 0)
(-0.00505657 0.0308223 0)
(-0.00781485 0.0363471 0)
(-0.0109176 0.0408144 0)
(-0.0142894 0.044436 0)
(-0.0178767 0.047412 0)
(-0.0216468 0.0499258 0)
(-0.0255846 0.0521411 0)
(-0.029689 0.0542012 0)
(-0.0339708 0.0562291 0)
(-0.0384502 0.0583283 0)
(-0.0431541 0.0605835 0)
(-0.0481146 0.0630617 0)
(-0.0533665 0.0658125 0)
(-0.0589455 0.0688695 0)
(-0.0648866 0.07225 0)
(-0.0712218 0.0759559 0)
(-0.0779788 0.0799743 0)
(-0.0851793 0.0842783 0)
(-0.0928377 0.0888276 0)
(-0.10096 0.0935696 0)
(-0.109542 0.0984409 0)
(-0.118571 0.103368 0)
(-0.128021 0.108269 0)
(-0.137854 0.113056 0)
(-0.148028 0.117644 0)
(-0.000158401 0.00636405 0)
(-0.00103511 0.017135 0)
(-0.00282377 0.026079 0)
(-0.00521579 0.0333973 0)
(-0.00805816 0.0393242 0)
(-0.011255 0.0441028 0)
(-0.0147295 0.0479704 0)
(-0.0184276 0.0511498 0)
(-0.0223171 0.0538434 0)
(-0.0263837 0.056231 0)
(-0.0306281 0.0584693 0)
(-0.0350629 0.0606918 0)
(-0.0397104 0.0630102 0)
(-0.0445995 0.0655151 0)
(-0.049764 0.0682774 0)
(-0.0552404 0.0713483 0)
(-0.0610651 0.0747611 0)
(-0.0672731 0.0785308 0)
(-0.0738957 0.0826553 0)
(-0.0809589 0.0871161 0)
(-0.0884814 0.0918789 0)
(-0.0964737 0.0968951 0)
(-0.104936 0.102102 0)
(-0.113859 0.107427 0)
(-0.123222 0.112784 0)
(-0.132991 0.118081 0)
(-0.143117 0.123217 0)
(-0.153551 0.128098 0)
(-0.000163087 0.00691153 0)
(-0.00106432 0.0185589 0)
(-0.00290187 0.0281927 0)
(-0.00535843 0.0360465 0)
(-0.00827704 0.0423865 0)
(-0.0115599 0.0474856 0)
(-0.0151289 0.0516078 0)
(-0.0189297 0.0549989 0)
(-0.0229305 0.0578814 0)
(-0.0271181 0.0604518 0)
(-0.0314947 0.0628803 0)
(-0.0360747 0.0653114 0)
(-0.040882 0.0678649 0)
(-0.0459474 0.0706373 0)
(-0.0513061 0.0737028 0)
(-0.0569955 0.0771138 0)
(-0.0630523 0.0809025 0)
(-0.0695109 0.0850809 0)
(-0.0764013 0.0896419 0)
(-0.0837466 0.0945601 0)
(-0.091562 0.099793 0)
(-0.0998529 0.105282 0)
(-0.108614 0.110955 0)
(-0.117828 0.116725 0)
(-0.127466 0.122496 0)
(-0.137485 0.128164 0)
(-0.147829 0.133616 0)
(-0.158437 0.138746 0)
(-0.000167066 0.00747335 0)
(-0.00108938 0.0200192 0)
(-0.00296936 0.0303594 0)
(-0.00548249 0.0387619 0)
(-0.00846861 0.0455257 0)
(-0.0118283 0.0509544 0)
(-0.0154826 0.0553394 0)
(-0.019377 0.0589508 0)
(-0.02348 0.0620314 0)
(-0.0277797 0.064795 0)
(-0.0322792 0.0674257 0)
(-0.0369947 0.070079 0)
(-0.0419515 0.0728829 0)
(-0.0471819 0.0759395 0)
(-0.052722 0.0793257 0)
(-0.0586095 0.0830947 0)
(-0.064881 0.0872768 0)
(-0.0715696 0.09188 0)
(-0.0787029 0.096891 0)
(-0.0863007 0.102277 0)
(-0.0943736 0.107985 0)
(-0.102921 0.113946 0)
(-0.111932 0.120076 0)
(-0.12138 0.126277 0)
(-0.131228 0.132438 0)
(-0.141425 0.138443 0)
(-0.151903 0.144167 0)
(-0.162592 0.149494 0)
(-0.000170251 0.00804719 0)
(-0.00110982 0.0215102 0)
(-0.00302507 0.0325718 0)
(-0.00558596 0.0415348 0)
(-0.00862993 0.0487324 0)
(-0.0120564 0.0544993 0)
(-0.0157858 0.0591556 0)
(-0.0197635 0.0629957 0)
(-0.0239586 0.0662837 0)
(-0.0283598 0.0692507 0)
(-0.0329715 0.0720952 0)
(-0.037811 0.0749837 0)
(-0.042905 0.0780522 0)
(-0.0482866 0.0814081 0)
(-0.0539924 0.0851307 0)
(-0.0600599 0.0892731 0)
(-0.0665248 0.0938629 0)
(-0.0734182 0.0989029 0)
(-0.0807647 0.104373 0)
(-0.0885801 0.110231 0)
(-0.0968697 0.116413 0)
(-0.105627 0.12284 0)
(-0.114832 0.129412 0)
(-0.124452 0.136019 0)
(-0.13444 0.142537 0)
(-0.144735 0.148837 0)
(-0.155261 0.154781 0)
(-0.165939 0.160244 0)
(-0.000172555 0.00863048 0)
(-0.00112517 0.0230258 0)
(-0.00306783 0.0348213 0)
(-0.00566685 0.0443556 0)
(-0.00875813 0.0519962 0)
(-0.0122404 0.0581099 0)
(-0.0160337 0.0630456 0)
(-0.0200835 0.0671228 0)
(-0.0243591 0.0706272 0)
(-0.0288499 0.0738076 0)
(-0.0335615 0.0768769 0)
(-0.0385118 0.0800126 0)
(-0.0437284 0.0833586 0)
(-0.0492448 0.0870271 0)
(-0.0550977 0.0910993 0)
(-0.0613238 0.0956274 0)
(-0.067957 0.100635 0)
(-0.075026 0.10612 0)
(-0.0825518 0.112053 0)
(-0.0905452 0.118381 0)
(-0.0990058 0.125031 0)
(-0.10792 0.131908 0)
(-0.11726 0.1389 0)
(-0.126985 0.145882 0)
(-0.137039 0.152717 0)
(-0.147352 0.159262 0)
(-0.15784 0.165369 0)
(-0.168414 0.1709 0)
(-0.0001739 0.00922039 0)
(-0.00113499 0.0245594 0)
(-0.00309655 0.037099 0)
(-0.00572324 0.0472138 0)
(-0.00885037 0.0553059 0)
(-0.0123765 0.0617746 0)
(-0.0162215 0.0669976 0)
(-0.0203309 0.0713203 0)
(-0.0246743 0.0750497 0)
(-0.0292417 0.0784529 0)
(-0.0340391 0.0817571 0)
(-0.0390852 0.0851507 0)
(-0.0444078 0.0887855 0)
(-0.0500403 0.0927777 0)
(-0.0560189 0.09721 0)
(-0.0623788 0.102133 0)
(-0.069152 0.107565 0)
(-0.0763638 0.113498 0)
(-0.0840308 0.119892 0)
(-0.0921588 0.126684 0)
(-0.100741 0.133787 0)
(-0.109756 0.141093 0)
(-0.11917 0.148475 0)
(-0.128931 0.155794 0)
(-0.138976 0.1629 0)
(-0.149226 0.169634 0)
(-0.15959 0.17584 0)
(-0.169974 0.181372 0)
(-0.00017421 0.00981388 0)
(-0.00113885 0.0261039 0)
(-0.00311016 0.039395 0)
(-0.0057533 0.0500979 0)
(-0.008904 0.0586493 0)
(-0.0124611 0.0654807 0)
(-0.0163446 0.0709989 0)
(-0.0205001 0.0755749 0)
(-0.0248975 0.0795376 0)
(-0.029527 0.0831723 0)
(-0.0343948 0.0867204 0)
(-0.0395198 0.0903814 0)
(-0.0449296 0.094314 0)
(-0.0506572 0.0986385 0)
(-0.0567375 0.103438 0)
(-0.063204 0.108761 0)
(-0.0700856 0.114621 0)
(-0.077404 0.120999 0)
(-0.0851712 0.127848 0)
(-0.093387 0.135091 0)
(-0.102038 0.142628 0)
(-0.111097 0.150335 0)
(-0.120519 0.158072 0)
(-0.130247 0.165685 0)
(-0.140209 0.173008 0)
(-0.15032 0.179873 0)
(-0.16048 0.186112 0)
(-0.170591 0.191573 0)
(-0.00017342 0.0104077 0)
(-0.00113639 0.0276514 0)
(-0.00310772 0.0416988 0)
(-0.00575536 0.052996 0)
(-0.00891654 0.0620135 0)
(-0.0124908 0.0692148 0)
(-0.0163987 0.0750356 0)
(-0.0205858 0.0798724 0)
(-0.0250222 0.0840762 0)
(-0.029698 0.0879501 0)
(-0.0346193 0.09175 0)
(-0.0398047 0.0956858 0)
(-0.0452813 0.0999233 0)
(-0.0510808 0.104586 0)
(-0.0572366 0.109757 0)
(-0.0637797 0.115481 0)
(-0.0707357 0.121766 0)
(-0.0781221 0.128584 0)
(-0.0859457 0.135875 0)
(-0.0942007 0.143551 0)
(-0.102867 0.151496 0)
(-0.111909 0.159572 0)
(-0.121277 0.167623 0)
(-0.130904 0.175481 0)
(-0.140712 0.182967 0)
(-0.150609 0.189901 0)
(-0.160492 0.196107 0)
(-0.170259 0.201428 0)
(-0.000171474 0.0109984 0)
(-0.00112727 0.0291939 0)
(-0.0030884 0.0439994 0)
(-0.00572795 0.0558951 0)
(-0.00888575 0.0653846 0)
(-0.0124627 0.0729624 0)
(-0.0163799 0.0790929 0)
(-0.0205832 0.0841977 0)
(-0.0250425 0.0886494 0)
(-0.0297476 0.0927693 0)
(-0.0347042 0.0968273 0)
(-0.03993 0.101044 0)
(-0.0454511 0.105591 0)
(-0.0512977 0.110594 0)
(-0.0575008 0.116138 0)
(-0.0640885 0.122261 0)
(-0.0710827 0.128963 0)
(-0.0784966 0.136209 0)
(-0.0863316 0.143926 0)
(-0.0945757 0.152011 0)
(-0.103203 0.160335 0)
(-0.11217 0.168743 0)
(-0.12142 0.177064 0)
(-0.130882 0.185116 0)
(-0.140469 0.192707 0)
(-0.150086 0.199649 0)
(-0.159627 0.205758 0)
(-0.168987 0.210873 0)
(-0.000168331 0.0115823 0)
(-0.00111125 0.0307229 0)
(-0.00305149 0.046285 0)
(-0.00566981 0.0587818 0)
(-0.00880976 0.068748 0)
(-0.0123741 0.0767084 0)
(-0.0162848 0.0831551 0)
(-0.0204879 0.0885343 0)
(-0.0249531 0.0932403 0)
(-0.0296695 0.0976118 0)
(-0.034642 0.101933 0)
(-0.039887 0.106433 0)
(-0.0454289 0.111292 0)
(-0.051296 0.116636 0)
(-0.0575166 0.122549 0)
(-0.0641155 0.129064 0)
(-0.0711106 0.136174 0)
(-0.0785102 0.143832 0)
(-0.0863106 0.151954 0)
(-0.0944938 0.160421 0)
(-0.103027 0.169088 0)
(-0.111863 0.177787 0)
(-0.120937 0.186332 0)
(-0.130171 0.194525 0)
(-0.139477 0.202165 0)
(-0.148755 0.209054 0)
(-0.157899 0.215004 0)
(-0.166803 0.219854 0)
(-0.000163964 0.0121558 0)
(-0.00108812 0.0322295 0)
(-0.00299648 0.0485437 0)
(-0.00557997 0.0616419 0)
(-0.00868702 0.0720886 0)
(-0.0122228 0.0804369 0)
(-0.0161105 0.0872057 0)
(-0.0202964 0.0928654 0)
(-0.0247496 0.0978308 0)
(-0.0294584 0.102458 0)
(-0.0344263 0.107045 0)
(-0.0396681 0.111831 0)
(-0.0452062 0.117 0)
(-0.0510662 0.122683 0)
(-0.0572734 0.128958 0)
(-0.0638489 0.135855 0)
(-0.0708066 0.143359 0)
(-0.0781499 0.151409 0)
(-0.0858697 0.159909 0)
(-0.0939428 0.168727 0)
(-0.102331 0.177701 0)
(-0.11098 0.186649 0)
(-0.119822 0.195369 0)
(-0.128774 0.203651 0)
(-0.137745 0.211285 0)
(-0.146634 0.218065 0)
(-0.155335 0.223801 0)
(-0.163746 0.228333 0)
(-0.000158361 0.012715 0)
(-0.0010578 0.0337048 0)
(-0.00292305 0.050763 0)
(-0.00545774 0.064461 0)
(-0.00851644 0.0753906 0)
(-0.0120073 0.0841314 0)
(-0.0158549 0.0912277 0)
(-0.0200058 0.0971729 0)
(-0.0244285 0.102402 0)
(-0.0291101 0.107289 0)
(-0.0340522 0.112143 0)
(-0.0392676 0.117214 0)
(-0.0447762 0.12269 0)
(-0.0506006 0.128704 0)
(-0.0567629 0.135332 0)
(-0.0632801 0.142598 0)
(-0.0701619 0.150476 0)
(-0.077407 0.158896 0)
(-0.0850014 0.167746 0)
(-0.0929167 0.17688 0)
(-0.10111 0.186123 0)
(-0.109522 0.195275 0)
(-0.118081 0.204122 0)
(-0.126703 0.212444 0)
(-0.135293 0.220019 0)
(-0.143752 0.226639 0)
(-0.151976 0.232112 0)
(-0.159867 0.236282 0)
(-0.000151533 0.0132561 0)
(-0.00102026 0.0351395 0)
(-0.00283105 0.0529302 0)
(-0.00530281 0.0672243 0)
(-0.00829737 0.0786378 0)
(-0.0117265 0.0877749 0)
(-0.0155165 0.0952033 0)
(-0.0196142 0.101439 0)
(-0.0239874 0.106935 0)
(-0.0286214 0.112082 0)
(-0.0335159 0.117203 0)
(-0.0386812 0.122556 0)
(-0.0441342 0.128334 0)
(-0.0498943 0.134671 0)
(-0.0559798 0.141638 0)
(-0.0624039 0.149255 0)
(-0.0691719 0.157486 0)
(-0.0762779 0.166249 0)
(-0.0837035 0.175418 0)
(-0.0914159 0.184834 0)
(-0.0993676 0.194304 0)
(-0.107497 0.203617 0)
(-0.115729 0.212545 0)
(-0.123977 0.220858 0)
(-0.132149 0.228328 0)
(-0.140145 0.234742 0)
(-0.147868 0.239912 0)
(-0.155224 0.243686 0)
(-0.000143515 0.0137754 0)
(-0.000975593 0.0365245 0)
(-0.0027206 0.0550326 0)
(-0.00511518 0.0699167 0)
(-0.00802967 0.0818139 0)
(-0.01138 0.0913501 0)
(-0.0150946 0.0991146 0)
(-0.0191205 0.105643 0)
(-0.0234247 0.111409 0)
(-0.0279906 0.116818 0)
(-0.0328155 0.122203 0)
(-0.0379067 0.127833 0)
(-0.0432778 0.133905 0)
(-0.0489448 0.140551 0)
(-0.054922 0.147843 0)
(-0.0612187 0.155791 0)