/*--------------------------------*- C++ -*----------------------------------*\
  =========                 |
  \\      /  F ield         | OpenFOAM: The Open Source CFD Toolbox
   \\    /   O peration     | Website:  https://openfoam.org
    \\  /    A nd           | Version:  9
     \\/     M anipulation  |
\*---------------------------------------------------------------------------*/
FoamFile
{
    format      ascii;
    class       volScalarField;
    location    "2.5";
    object      p;
}
// * * * * * * * * * * * * * * * * * * * * * * * * * * * * * * * * * * * * * //

dimensions      [0 2 -2 0 0 0 0];

internalField   nonuniform List<scalar> 
1250
(
-0.0148841
-0.015038
-0.0161617
-0.0162901
-0.0164547
-0.0167032
-0.0170728
-0.0175873
-0.0182657
-0.0191235
-0.0201738
-0.0214279
-0.022894
-0.0245773
-0.0264781
-0.0285915
-0.0309072
-0.0334091
-0.0360761
-0.0388827
-0.0418005
-0.0447991
-0.0478474
-0.0509154
-0.053975
-0.0570008
-0.0599712
-0.0628684
-0.0656784
-0.0683913
-0.071
-0.0735004
-0.0758907
-0.0781708
-0.0803414
-0.0824042
-0.0174198
-0.017522
-0.0176746
-0.0179197
-0.0182916
-0.0188135
-0.0195034
-0.0203761
-0.0214438
-0.022717
-0.0242033
-0.025907
-0.0278277
-0.0299599
-0.0322923
-0.0348081
-0.0374858
-0.0402993
-0.0432199
-0.0462169
-0.0492598
-0.0523185
-0.0553655
-0.0583762
-0.0613296
-0.0642086
-0.0670001
-0.0696945
-0.0722857
-0.0747698
-0.0771455
-0.0794126
-0.0815724
-0.0836263
-0.0855763
-0.0874241
-0.0891713
-0.0908192
-0.0923688
-0.0938205
-0.0951744
-0.0964304
-0.0975881
-0.0186489
-0.0187244
-0.018864
-0.0191043
-0.0194767
-0.0200037
-0.0207026
-0.0215873
-0.0226691
-0.0239576
-0.0254597
-0.027179
-0.0291145
-0.0312599
-0.0336033
-0.0361275
-0.0388103
-0.0416255
-0.044544
-0.0475354
-0.050569
-0.0536156
-0.0566478
-0.0596419
-0.0625773
-0.0654378
-0.0682109
-0.0708875
-0.0734619
-0.0759308
-0.0782929
-0.0805483
-0.0826983
-0.0847443
-0.0866883
-0.0885318
-0.0902763
-0.0919229
-0.0934723
-0.0949248
-0.0962804
-0.0975388
-0.0986993
-0.0997613
-0.100724
-0.101586
-0.102348
-0.103007
-0.103564
-0.0198408
-0.0198885
-0.0200145
-0.0202485
-0.0206195
-0.0211494
-0.0218548
-0.0227484
-0.0238409
-0.0251409
-0.0266547
-0.028385
-0.0303303
-0.0324838
-0.0348331
-0.0373605
-0.0400434
-0.0428556
-0.0457679
-0.04875
-0.0517715
-0.0548035
-0.0578194
-0.0607957
-0.0637128
-0.0665548
-0.0693099
-0.0719694
-0.074528
-0.0769827
-0.0793323
-0.0815772
-0.0837184
-0.0857576
-0.0876964
-0.0895363
-0.0912787
-0.0929244
-0.094474
-0.0959276
-0.0972851
-0.0985458
-0.0997092
-0.100774
-0.10174
-0.102606
-0.103371
-0.104034
-0.104594
-0.0209859
-0.0210075
-0.0211183
-0.0213447
-0.0217124
-0.0222429
-0.0229521
-0.0238519
-0.0249518
-0.0262596
-0.0277809
-0.029518
-0.0314685
-0.0336253
-0.0359756
-0.0385014
-0.0411801
-0.0439851
-0.0468875
-0.0498572
-0.0528641
-0.0558797
-0.0588779
-0.0618358
-0.0647344
-0.0675582
-0.0702959
-0.0729392
-0.075483
-0.0779246
-0.0802629
-0.0824984
-0.0846319
-0.0866651
-0.0885996
-0.0904366
-0.0921774
-0.0938227
-0.0953728
-0.0968277
-0.0981871
-0.0994503
-0.100616
-0.101685
-0.102654
-0.103523
-0.104291
-0.104957
-0.10552
-0.0220779
-0.0220725
-0.022169
-0.0223861
-0.0227485
-0.0232772
-0.0239878
-0.0248908
-0.0259949
-0.027307
-0.0288321
-0.0305717
-0.0325231
-0.0346788
-0.0370256
-0.0395456
-0.0422158
-0.04501
-0.0478993
-0.0508538
-0.053844
-0.0568417
-0.0598213
-0.0627605
-0.0656406
-0.0684467
-0.0711678
-0.0737958
-0.076326
-0.0787557
-0.0810838
-0.0833109
-0.0854378
-0.0874659
-0.0893967
-0.0912315
-0.0929712
-0.0946164
-0.0961673
-0.0976237
-0.0989851
-0.100251
-0.10142
-0.102491
-0.103463
-0.104335
-0.105106
-0.105775
-0.106341
-0.0231102
-0.0230786
-0.0231593
-0.0233663
-0.0237223
-0.0242459
-0.0249557
-0.0258591
-0.0269642
-0.0282773
-0.0298025
-0.0315407
-0.0334889
-0.0356393
-0.0379786
-0.0404887
-0.0431468
-0.0459268
-0.0488002
-0.0517373
-0.054709
-0.0576876
-0.060648
-0.0635683
-0.0664302
-0.0692192
-0.0719244
-0.0745383
-0.077056
-0.0794748
-0.081794
-0.0840137
-0.0861349
-0.0881588
-0.0900868
-0.0919199
-0.093659
-0.0953044
-0.0968564
-0.0983144
-0.099678
-0.100946
-0.102118
-0.103192
-0.104167
-0.105042
-0.105816
-0.106488
-0.107056
-0.0240774
-0.0240202
-0.0240846
-0.0242798
-0.0246266
-0.0251456
-0.025851
-0.0267517
-0.0278548
-0.0291655
-0.0306872
-0.0324203
-0.0343615
-0.0365027
-0.0388307
-0.0413272
-0.0439699
-0.0467327
-0.0495875
-0.0525052
-0.055457
-0.0584156
-0.0613563
-0.0642577
-0.0671018
-0.0698744
-0.0725648
-0.0751655
-0.0776718
-0.0800811
-0.0823924
-0.0846058
-0.0867222
-0.0887427
-0.0906685
-0.0925006
-0.0942395
-0.0958856
-0.0974389
-0.0988987
-0.100265
-0.101535
-0.10271
-0.103787
-0.104765
-0.105643
-0.10642
-0.107094
-0.107665
-0.0249747
-0.024893
-0.0249408
-0.0251232
-0.0254593
-0.0259702
-0.026669
-0.0275644
-0.0286625
-0.0299676
-0.0314824
-0.0332069
-0.0351375
-0.0372658
-0.0395787
-0.0420584
-0.0446824
-0.0474254
-0.0502594
-0.0531558
-0.0560863
-0.0590241
-0.0619449
-0.0648275
-0.0676543
-0.0704112
-0.0730878
-0.0756764
-0.0781725
-0.0805733
-0.0828777
-0.0850859
-0.0871985
-0.0892165
-0.0911409
-0.0929724
-0.0947117
-0.0963588
-0.0979137
-0.0993756
-0.100744
-0.102017
-0.103195
-0.104275
-0.105256
-0.106137
-0.106916
-0.107593
-0.108167
-0.0257987
-0.0256935
-0.0257245
-0.025893
-0.0262168
-0.026717
-0.0274069
-0.0282942
-0.0293841
-0.0306805
-0.0321851
-0.0338976
-0.035814
-0.037926
-0.0402205
-0.04268
-0.0452825
-0.048003
-0.050814
-0.0536875
-0.0565956
-0.0595119
-0.0624125
-0.0652765
-0.0680865
-0.0708285
-0.0734921
-0.0760698
-0.0785568
-0.0809502
-0.083249
-0.085453
-0.0875627
-0.089579
-0.0915026
-0.0933343
-0.0950744
-0.0967231
-0.0982799
-0.0997442
-0.101115
-0.102391
-0.103572
-0.104655
-0.105639
-0.106523
-0.107305
-0.107985
-0.10856
-0.0265467
-0.0264193
-0.0264334
-0.026587
-0.0268968
-0.0273843
-0.0280625
-0.0289388
-0.0300176
-0.0313021
-0.0327933
-0.0344904
-0.0363892
-0.0384815
-0.0407544
-0.0431906
-0.0457688
-0.0484643
-0.0512503
-0.0540993
-0.0569839
-0.059878
-0.0627581
-0.0656038
-0.0683974
-0.0711252
-0.0737768
-0.0763446
-0.0788235
-0.0812108
-0.083505
-0.0857058
-0.0878136
-0.089829
-0.0917527
-0.0935852
-0.0953268
-0.0969773
-0.0985365
-0.100004
-0.101377
-0.102657
-0.10384
-0.104926
-0.105914
-0.1068
-0.107586
-0.108268
-0.108846
-0.0272171
-0.0270688
-0.0270661
-0.027204
-0.0274982
-0.0279707
-0.0286347
-0.0294971
-0.0305618
-0.0318312
-0.0333057
-0.0349842
-0.0368621
-0.0389313
-0.0411794
-0.0435893
-0.0461404
-0.0488085
-0.0515675
-0.0543904
-0.0572503
-0.0601216
-0.062981
-0.0658082
-0.0685859
-0.0713002
-0.0739407
-0.0764995
-0.0789716
-0.0813538
-0.0836445
-0.0858432
-0.08795
-0.0899654
-0.09189
-0.093724
-0.0954677
-0.0971208
-0.0986828
-0.100153
-0.10153
-0.102813
-0.104
-0.105089
-0.027809
-0.0276414
-0.0276222
-0.0277435
-0.0280207
-0.0284761
-0.0291232
-0.0299688
-0.0310164
-0.0322674
-0.0337221
-0.0353785
-0.0372323
-0.0392752
-0.0414952
-0.0438759
-0.046397
-0.0490353
-0.0517653
-0.0545603
-0.0573943
-0.0602419
-0.0630803
-0.065889
-0.0686511
-0.0713526
-0.0739827
-0.0765336
-0.0789998
-0.081378
-0.0836663
-0.0858639
-0.0879708
-0.0899872
-0.0919135
-0.0937499
-0.0954963
-0.0971526
-0.0987181
-0.100192
-0.101573
-0.102859
-0.10405
-0.105143
-0.0283227
-0.0281375
-0.028102
-0.0282063
-0.0284649
-0.0289012
-0.0295288
-0.0303547
-0.0313819
-0.0326115
-0.0340428
-0.035674
-0.0375001
-0.0395135
-0.0417022
-0.0440505
-0.046539
-0.0491449
-0.0518435
-0.054609
-0.0574156
-0.0602387
-0.0630554
-0.0658457
-0.0685923
-0.0712814
-0.0739018
-0.0764456
-0.0789069
-0.0812821
-0.0835691
-0.0857668
-0.0878748
-0.0898932
-0.0918222
-0.0936618
-0.0954119
-0.0970721
-0.0986417
-0.10012
-0.101505
-0.102796
-0.103991
-0.105088
-0.0287592
-0.028558
-0.0285069
-0.0285936
-0.0288324
-0.0292475
-0.0298531
-0.0306563
-0.0316599
-0.0328646
-0.0342693
-0.0358716
-0.0376668
-0.0396472
-0.0418013
-0.0441141
-0.0465668
-0.0491377
-0.0518026
-0.0545366
-0.0573144
-0.0601117
-0.0629061
-0.0656775
-0.0684087
-0.0710857
-0.073697
-0.0762344
-0.0786918
-0.0810651
-0.0833519
-0.0855507
-0.087661
-0.0896825
-0.0916152
-0.093459
-0.0952137
-0.0968787
-0.0984532
-0.0999362
-0.101326
-0.102622
-0.103822
-0.104924
-0.02912
-0.0289049
-0.0288387
-0.0289075
-0.0291254
-0.0295174
-0.0300985
-0.0308759
-0.0318527
-0.033029
-0.0344035
-0.0359735
-0.0377342
-0.039678
-0.0417941
-0.0440681
-0.0464819
-0.0490148
-0.0516435
-0.0543438
-0.0570909
-0.0598611
-0.0626321
-0.0653841
-0.0680997
-0.0707646
-0.0733674
-0.0758991
-0.0783534
-0.0807258
-0.0830134
-0.0852145
-0.0873282
-0.0893539
-0.0912916
-0.0931407
-0.094901
-0.0965717
-0.0981521
-0.099641
-0.101037
-0.102338
-0.103544
-0.104651
-0.0294078
-0.0291806
-0.0291
-0.0291508
-0.0293469
-0.029714
-0.030268
-0.0310167
-0.0319632
-0.0331075
-0.0344482
-0.0359822
-0.0377046
-0.0396082
-0.0416826
-0.0439142
-0.0462859
-0.0487777
-0.0513673
-0.0540313
-0.0567456
-0.059487
-0.0622335
-0.0649652
-0.0676647
-0.0703176
-0.072912
-0.0754385
-0.0778905
-0.0802629
-0.0825524
-0.084757
-0.0868753
-0.0889066
-0.0908503
-0.092706
-0.0944731
-0.0961508
-0.0977381
-0.0992339
-0.100637
-0.101945
-0.103156
-0.10427
-0.0296255
-0.0293881
-0.0292941
-0.029327
-0.0295004
-0.029841
-0.0303655
-0.0310824
-0.0319951
-0.0331039
-0.0344069
-0.0359009
-0.0375811
-0.0394406
-0.0414695
-0.043655
-0.0459808
-0.0484281
-0.0509755
-0.0536005
-0.0562796
-0.0589901
-0.0617104
-0.0644207
-0.0671035
-0.069744
-0.07233
-0.0748518
-0.0773021
-0.0796754
-0.0819679
-0.0841772
-0.0863014
-0.0883395
-0.0902908
-0.0921543
-0.0939295
-0.0956155
-0.097211
-0.0987148
-0.100125
-0.101441
-0.10266
-0.103781
-0.0297767
-0.0295311
-0.0294247
-0.0294399
-0.0295901
-0.0299027
-0.0303953
-0.0310775
-0.031953
-0.0330223
-0.0342835
-0.0357335
-0.0373674
-0.0391786
-0.0411579
-0.0432931
-0.0455693
-0.0479683
-0.0504701
-0.0530527
-0.0556939
-0.0583712
-0.0610634
-0.0637507
-0.0664158
-0.0690434
-0.0716209
-0.0741381
-0.0765872
-0.0789622
-0.0812588
-0.0834739
-0.0856054
-0.0876518
-0.0896119
-0.0914849
-0.0932697
-0.0949653
-0.0965704
-0.0980837
-0.0995036
-0.100828
-0.102056
-0.103184
-0.0298653
-0.0296136
-0.0294959
-0.0294937
-0.0296204
-0.0299037
-0.0303625
-0.0310069
-0.0318416
-0.0328675
-0.0340828
-0.0354844
-0.0370676
-0.0388261
-0.0407513
-0.0428321
-0.0450542
-0.0474009
-0.0498531
-0.05239
-0.05499
-0.0576313
-0.060293
-0.0629557
-0.0656016
-0.0682154
-0.070784
-0.0732967
-0.075745
-0.0781224
-0.080424
-0.0826462
-0.0847863
-0.0868424
-0.0888131
-0.0906971
-0.0924931
-0.0942
-0.0958164
-0.0973406
-0.0987711
-0.100106
-0.101343
-0.102481
-0.0298958
-0.0296398
-0.0295121
-0.0294932
-0.0295963
-0.0298493
-0.0302721
-0.030876
-0.0316665
-0.0326449
-0.0338099
-0.0351585
-0.0366863
-0.0383874
-0.0402539
-0.0422754
-0.044439
-0.046729
-0.0491274
-0.0516145
-0.0541697
-0.0567718
-0.0594004
-0.0620361
-0.0646612
-0.0672599
-0.0698189
-0.0723269
-0.0747746
-0.0771551
-0.0794626
-0.081693
-0.0838431
-0.0859106
-0.0878935
-0.0897902
-0.0915993
-0.0933193
-0.0949486
-0.0964856
-0.0979284
-0.0992752
-0.100524
-0.101673
-0.0298727
-0.0296145
-0.029478
-0.0294432
-0.0295227
-0.0297448
-0.0301299
-0.0306906
-0.0314333
-0.0323601
-0.0334703
-0.0347611
-0.0362286
-0.0378673
-0.03967
-0.0416273
-0.0437274
-0.0459557
-0.0482957
-0.0507287
-0.0532351
-0.0557944
-0.0583867
-0.0609928
-0.063595
-0.0661772
-0.0687256
-0.0712283
-0.0736755
-0.0760594
-0.0783737
-0.0806135
-0.0827751
-0.0848555
-0.0868524
-0.0887638
-0.0905879
-0.0923229
-0.0939671
-0.0955187
-0.0969757
-0.0983362
-0.099598
-0.100759
-0.0298009
-0.0295423
-0.0293984
-0.0293486
-0.029405
-0.0295956
-0.0299417
-0.0304566
-0.0311481
-0.0320193
-0.03307
-0.034298
-0.0356999
-0.0372709
-0.0390044
-0.0408921
-0.0429233
-0.0450849
-0.0473614
-0.0497355
-0.0521885
-0.054701
-0.0572535
-0.0598269
-0.0624037
-0.0649675
-0.067504
-0.0700007
-0.0724472
-0.0748348
-0.0771566
-0.0794069
-0.0815814
-0.0836765
-0.0856893
-0.0876173
-0.0894585
-0.0912107
-0.0928719
-0.0944402
-0.0959135
-0.0972896
-0.0985663
-0.0997414
-0.0296852
-0.029428
-0.0292782
-0.0292145
-0.0292484
-0.0294074
-0.0297133
-0.0301803
-0.0308174
-0.0316287
-0.0326151
-0.0337752
-0.0351061
-0.0366036
-0.0382622
-0.0400746
-0.0420312
-0.0441204
-0.046328
-0.048638
-0.0510329
-0.053494
-0.0560026
-0.05854
-0.0610885
-0.0636316
-0.0661545
-0.0686442
-0.0710895
-0.073481
-0.0758109
-0.0780728
-0.0802615
-0.0823729
-0.0844035
-0.0863503
-0.0882108
-0.0899825
-0.0916631
-0.0932504
-0.0947422
-0.0961361
-0.0974298
-0.0986211
-0.0295306
-0.0292766
-0.0291222
-0.0290459
-0.0290581
-0.0291857
-0.0294505
-0.0298677
-0.0304474
-0.0311949
-0.0321123
-0.033199
-0.034453
-0.0358712
-0.0374488
-0.0391798
-0.0410558
-0.0430665
-0.0451994
-0.0474397
-0.0497711
-0.0521761
-0.0546364
-0.0571338
-0.0596507
-0.0621705
-0.0646779
-0.0671593
-0.0696027
-0.0719979
-0.0743363
-0.0766107
-0.0788151
-0.0809445
-0.0829949
-0.0849626
-0.0868447
-0.0886383
-0.0903408
-0.0919497
-0.0934624
-0.0948765
-0.0961896
-0.0973992
-0.029342
-0.0290928
-0.0289353
-0.0288477
-0.0288393
-0.028936
-0.0291593
-0.0295251
-0.0300445
-0.0307244
-0.0315678
-0.0325757
-0.033747
-0.0350795
-0.0365697
-0.0382127
-0.0400017
-0.0419277
-0.0439797
-0.0461443
-0.0484067
-0.0507501
-0.0531573
-0.0556105
-0.0580922
-0.0605857
-0.0630752
-0.0655467
-0.0679872
-0.0703859
-0.0727331
-0.0750207
-0.077242
-0.0793911
-0.0814632
-0.0834542
-0.0853603
-0.0871784
-0.0889054
-0.0905384
-0.0920747
-0.0935116
-0.0948466
-0.0960769
-0.029124
-0.0288812
-0.028722
-0.0286247
-0.028597
-0.0286635
-0.0288452
-0.0291583
-0.029615
-0.0302235
-0.0309883
-0.0319118
-0.0329941
-0.0342345
-0.0356306
-0.0371789
-0.0388741
-0.0407087
-0.0426732
-0.044756
-0.0469432
-0.0492196
-0.0515686
-0.0539729
-0.0564154
-0.0588792
-0.0613482
-0.0638077
-0.0662442
-0.0686457
-0.0710018
-0.0733033
-0.0755426
-0.077713
-0.0798089
-0.0818253
-0.083758
-0.0856032
-0.0873574
-0.0890174
-0.0905801
-0.0920426
-0.093402
-0.0946557
-0.0288813
-0.0286463
-0.0284869
-0.0283813
-0.0283358
-0.0283731
-0.0285134
-0.028773
-0.0291649
-0.0296985
-0.0303801
-0.0312135
-0.0322006
-0.0333421
-0.0346371
-0.0360836
-0.0376779
-0.0394141
-0.0412845
-0.0432788
-0.0453847
-0.0475881
-0.0498735
-0.0522241
-0.0546231
-0.0570535
)
;

boundaryField
{
    movingWall
    {
        type            zeroGradient;
    }
    fixedWalls
    {
        type            zeroGradient;
    }
    frontAndBack
    {
        type            empty;
    }
    procBoundary3to0
    {
        type            processor;
        value           nonuniform List<scalar> 
29
(
-0.0135969
-0.0137755
-0.0152136
-0.0152136
-0.0154642
-0.0158298
-0.0163349
-0.0169992
-0.0178392
-0.0188687
-0.0200997
-0.0215412
-0.023199
-0.0250744
-0.0271633
-0.0294562
-0.031938
-0.0345882
-0.0373821
-0.0402917
-0.0432868
-0.0463363
-0.04941
-0.0524792
-0.055518
-0.0585041
-0.0614187
-0.0642472
-0.0669786
)
;
    }
    procBoundary3to1
    {
        type            processor;
        value           nonuniform List<scalar> 
23
(
-0.0696055
-0.0721231
-0.0745292
-0.0768232
-0.0790058
-0.0810786
-0.0843611
-0.0843611
-0.086214
-0.0879647
-0.0896145
-0.0911647
-0.0926158
-0.0939682
-0.095222
-0.0963769
-0.0986469
-0.0986469
-0.0996061
-0.100465
-0.101223
-0.101879
-0.102432
)
;
    }
    procBoundary3to2
    {
        type            processor;
        value           nonuniform List<scalar> 
45
(
-0.0594991
-0.0619445
-0.0643754
-0.0667789
-0.0691436
-0.0714595
-0.0737178
-0.075911
-0.0780325
-0.0800766
-0.0820384
-0.0839135
-0.0856978
-0.0873877
-0.0889797
-0.0904707
-0.0918575
-0.0931372
-0.0286182
-0.0283923
-0.0282341
-0.0281219
-0.0280601
-0.0280696
-0.0281691
-0.0283746
-0.0286999
-0.0291554
-0.0297493
-0.0304871
-0.0313727
-0.0324083
-0.033595
-0.0349324
-0.0364185
-0.0380491
-0.0398183
-0.0417173
-0.0437355
-0.0458599
-0.048076
-0.0503678
-0.0527187
-0.0594991
-0.0551119
)
;
    }
    procBoundary3to5
    {
        type            processor;
        value           nonuniform List<scalar> 
21
(
-0.10608
-0.10697
-0.107758
-0.108443
-0.109024
-0.10608
-0.106137
-0.106086
-0.105927
-0.105659
-0.105284
-0.104801
-0.104212
-0.103518
-0.102719
-0.101817
-0.100813
-0.0997076
-0.0985029
-0.0972001
-0.0958008
)
;
    }
    procBoundary3to6
    {
        type            processor;
        value           nonuniform List<scalar> 9(-0.104018 -0.105051 -0.10598 -0.106803 -0.107521 -0.108132 -0.108636 -0.109032 -0.10932);
    }
}


// ************************************************************************* //
