/*--------------------------------*- C++ -*----------------------------------*\
  =========                 |
  \\      /  F ield         | OpenFOAM: The Open Source CFD Toolbox
   \\    /   O peration     | Website:  https://openfoam.org
    \\  /    A nd           | Version:  9
     \\/     M anipulation  |
\*---------------------------------------------------------------------------*/
FoamFile
{
    format      ascii;
    class       surfaceScalarField;
    location    "2.5";
    object      phi;
}
// * * * * * * * * * * * * * * * * * * * * * * * * * * * * * * * * * * * * * //

dimensions      [0 3 -1 0 0 0 0];

internalField   nonuniform List<scalar> 
2422
(
-5.57072e-09
3.37769e-07
8.88058e-07
-4.14054e-09
3.4191e-07
-1.84139e-08
9.02332e-07
-4.34367e-08
1.35154e-06
-7.84769e-08
1.70612e-06
-1.21841e-07
1.98577e-06
-1.71406e-07
2.21053e-06
-2.25068e-07
2.39786e-06
-2.81011e-07
2.56087e-06
-3.378e-07
2.70791e-06
-3.94358e-07
2.84311e-06
-4.49876e-07
2.96749e-06
-5.03731e-07
3.0802e-06
-5.55412e-07
3.17944e-06
-6.04488e-07
3.26322e-06
-6.50592e-07
3.32973e-06
-6.93425e-07
3.37761e-06
-7.32766e-07
3.40604e-06
-7.68479e-07
3.41477e-06
-8.00526e-07
3.40414e-06
-8.28964e-07
3.37497e-06
-8.53946e-07
3.3286e-06
-8.75708e-07
3.26671e-06
-8.94557e-07
3.19125e-06
-9.10855e-07
3.10437e-06
-9.2499e-07
3.00823e-06
-9.37366e-07
2.90494e-06
-9.48374e-07
2.79646e-06
-9.58381e-07
2.68455e-06
-9.67714e-07
2.57067e-06
-9.76654e-07
2.45601e-06
-9.85429e-07
2.34148e-06
-9.94212e-07
2.2277e-06
-1.00313e-06
2.11505e-06
2.00374e-06
-2.70413e-09
3.44614e-07
-1.35946e-08
9.13222e-07
-3.40814e-08
1.37203e-06
-6.4037e-08
1.73607e-06
-1.02157e-07
2.02389e-06
-1.46518e-07
2.25489e-06
-1.95082e-07
2.44642e-06
-2.46024e-07
2.61181e-06
-2.97876e-07
2.75976e-06
-3.49534e-07
2.89476e-06
-4.00187e-07
3.01815e-06
-4.4923e-07
3.12925e-06
-4.96188e-07
3.2264e-06
-5.40679e-07
3.30771e-06
-5.82386e-07
3.37143e-06
-6.21064e-07
3.41628e-06
-6.56537e-07
3.44151e-06
-6.88712e-07
3.44695e-06
-7.17583e-07
3.43301e-06
-7.43228e-07
3.40062e-06
-7.6581e-07
3.35118e-06
-7.85564e-07
3.28646e-06
-8.02784e-07
3.20847e-06
-8.17805e-07
3.11939e-06
-8.30987e-07
3.02141e-06
-8.42689e-07
2.91664e-06
-8.53262e-07
2.80703e-06
-8.63026e-07
2.69431e-06
-8.72264e-07
2.57991e-06
-8.81215e-07
2.46496e-06
-8.90069e-07
2.35033e-06
-8.98969e-07
2.2366e-06
-9.08013e-07
2.1241e-06
-9.17263e-07
2.01298e-06
-9.26745e-07
1.90325e-06
-9.36462e-07
1.79478e-06
-9.46397e-07
1.68739e-06
-9.5652e-07
1.58087e-06
-9.66794e-07
1.47496e-06
-9.77179e-07
1.36947e-06
-9.87636e-07
1.26416e-06
-9.9813e-07
1.15888e-06
1.05349e-06
-1.28739e-09
3.45901e-07
-8.75417e-09
9.20689e-07
-2.46125e-08
1.38789e-06
-4.93374e-08
1.7608e-06
-8.20354e-08
2.05659e-06
-1.21012e-07
2.29387e-06
-1.64315e-07
2.48973e-06
-2.10125e-07
2.65762e-06
-2.56946e-07
2.80658e-06
-3.03649e-07
2.94147e-06
-3.49416e-07
3.06391e-06
-3.93657e-07
3.17349e-06
-4.35934e-07
3.26868e-06
-4.75908e-07
3.34768e-06
-5.13314e-07
3.40884e-06
-5.47953e-07
3.45092e-06
-5.79694e-07
3.47325e-06
-6.08482e-07
3.47574e-06
-6.34335e-07
3.45886e-06
-6.5735e-07
3.42363e-06
-6.77691e-07
3.37152e-06
-6.95586e-07
3.30436e-06
-7.11311e-07
3.2242e-06
-7.25173e-07
3.13325e-06
-7.37491e-07
3.03373e-06
-7.48587e-07
2.92773e-06
-7.58764e-07
2.81721e-06
-7.68299e-07
2.70385e-06
-7.77431e-07
2.58904e-06
-7.8636e-07
2.47389e-06
-7.9524e-07
2.35921e-06
-8.04187e-07
2.24555e-06
-8.13278e-07
2.13319e-06
-8.22557e-07
2.02226e-06
-8.32042e-07
1.91273e-06
-8.41729e-07
1.80447e-06
-8.516e-07
1.69726e-06
-8.61629e-07
1.59089e-06
-8.71782e-07
1.48512e-06
-8.82028e-07
1.37971e-06
-8.92335e-07
1.27447e-06
-9.02674e-07
1.16922e-06
-9.13024e-07
1.06384e-06
-9.23366e-07
9.58203e-07
-9.33687e-07
8.52254e-07
-9.43978e-07
7.45941e-07
-9.54235e-07
6.39244e-07
-9.64457e-07
5.32155e-07
4.24682e-07
1.48745e-10
3.45753e-07
-3.93087e-09
9.24768e-07
-1.51124e-08
1.39907e-06
-3.44967e-08
1.78018e-06
-6.16264e-08
2.08372e-06
-9.5061e-08
2.3273e-06
-1.32961e-07
2.52763e-06
-1.73525e-07
2.69819e-06
-2.15236e-07
2.84829e-06
-2.56941e-07
2.98317e-06
-2.97812e-07
3.10479e-06
-3.37272e-07
3.21295e-06
-3.74915e-07
3.30632e-06
-4.10443e-07
3.38321e-06
-4.43638e-07
3.44203e-06
-4.74347e-07
3.48163e-06
-5.0248e-07
3.50139e-06
-5.28013e-07
3.50127e-06
-5.50986e-07
3.48183e-06
-5.71506e-07
3.44415e-06
-5.89737e-07
3.38976e-06
-6.05894e-07
3.32051e-06
-6.20228e-07
3.23853e-06
-6.33013e-07
3.14604e-06
-6.44532e-07
3.04524e-06
-6.55061e-07
2.93826e-06
-6.6486e-07
2.82701e-06
-6.74159e-07
2.71314e-06
-6.83158e-07
2.59804e-06
-6.92018e-07
2.48275e-06
-7.00864e-07
2.36806e-06
-7.09786e-07
2.25447e-06
-7.18842e-07
2.14225e-06
-7.28062e-07
2.03148e-06
-7.37459e-07
1.92213e-06
-7.47025e-07
1.81403e-06
-7.56744e-07
1.70698e-06
-7.66593e-07
1.60074e-06
-7.76546e-07
1.49507e-06
-7.86578e-07
1.38974e-06
-7.96666e-07
1.28456e-06
-8.0679e-07
1.17935e-06
-8.16934e-07
1.07398e-06
-8.27089e-07
9.68358e-07
-8.37248e-07
8.62412e-07
-8.47407e-07
7.56101e-07
-8.57569e-07
6.49405e-07
-8.67736e-07
5.42322e-07
4.3486e-07
1.49826e-09
3.44254e-07
8.36626e-10
9.2543e-07
-5.65631e-09
1.40556e-06
-1.96295e-08
1.79415e-06
-4.10755e-08
2.10516e-06
-6.88349e-08
2.35506e-06
-1.01207e-07
2.56e-06
-1.36427e-07
2.73341e-06
-1.72963e-07
2.88483e-06
-2.09638e-07
3.01984e-06
-2.45612e-07
3.14076e-06
-2.80319e-07
3.24765e-06
-3.13377e-07
3.33938e-06
-3.44528e-07
3.41436e-06
-3.73598e-07
3.4711e-06
-4.00476e-07
3.50851e-06
-4.25109e-07
3.52602e-06
-4.475e-07
3.52366e-06
-4.67708e-07
3.50204e-06
-4.85845e-07
3.46229e-06
-5.02069e-07
3.40598e-06
-5.16578e-07
3.33502e-06
-5.29596e-07
3.25155e-06
-5.41363e-07
3.1578e-06
-5.5212e-07
3.056e-06
-5.62099e-07
2.94824e-06
-5.71515e-07
2.83643e-06
-5.80557e-07
2.72219e-06
-5.89383e-07
2.60686e-06
-5.98122e-07
2.49149e-06
-6.06869e-07
2.37681e-06
-6.15691e-07
2.26329e-06
-6.24631e-07
2.15119e-06
-6.3371e-07
2.04056e-06
-6.42934e-07
1.93135e-06
-6.52296e-07
1.82339e-06
-6.61783e-07
1.71647e-06
-6.71376e-07
1.61034e-06
-6.81058e-07
1.50475e-06
-6.9081e-07
1.3995e-06
-7.00619e-07
1.29437e-06
-7.10472e-07
1.1892e-06
-7.20363e-07
1.08387e-06
-7.30287e-07
9.78283e-07
-7.40245e-07
8.7237e-07
-7.5024e-07
7.66095e-07
-7.60276e-07
6.59441e-07
-7.70362e-07
5.52408e-07
4.45004e-07
2.81814e-09
3.41436e-07
5.45176e-09
9.22796e-07
3.66664e-09
1.40735e-06
-4.84131e-09
1.80266e-06
-2.05273e-08
2.12085e-06
-4.24966e-08
2.37703e-06
-6.92374e-08
2.58674e-06
-9.90288e-08
2.7632e-06
-1.30335e-07
2.91614e-06
-1.61957e-07
3.05147e-06
-1.93042e-07
3.17184e-06
-2.23025e-07
3.27764e-06
-2.51549e-07
3.3679e-06
-2.7839e-07
3.4412e-06
-3.03414e-07
3.49613e-06
-3.26548e-07
3.53164e-06
-3.47773e-07
3.54724e-06
-3.67116e-07
3.543e-06
-3.84651e-07
3.51958e-06
-4.0049e-07
3.47813e-06
-4.14785e-07
3.42027e-06
-4.2771e-07
3.34795e-06
-4.39462e-07
3.2633e-06
-4.50243e-07
3.16859e-06
-4.60253e-07
3.06601e-06
-4.6968e-07
2.95767e-06
-4.78694e-07
2.84544e-06
-4.87444e-07
2.73094e-06
-4.9605e-07
2.61547e-06
-5.04609e-07
2.50005e-06
-5.13189e-07
2.38539e-06
-5.21838e-07
2.27194e-06
-5.30586e-07
2.15993e-06
-5.39446e-07
2.04942e-06
-5.4842e-07
1.94033e-06
-5.57503e-07
1.83248e-06
-5.66685e-07
1.72565e-06
-5.75954e-07
1.61961e-06
-5.85301e-07
1.5141e-06
-5.94716e-07
1.40891e-06
-6.04192e-07
1.30384e-06
-6.13727e-07
1.19874e-06
-6.23321e-07
1.09347e-06
-6.32977e-07
9.87938e-07
-6.427e-07
8.82094e-07
-6.52499e-07
7.75895e-07
-6.62384e-07
6.69326e-07
-6.72365e-07
5.62389e-07
4.55092e-07
4.08098e-09
3.37355e-07
9.9531e-09
9.16924e-07
1.27868e-08
1.40452e-06
9.75222e-09
1.8057e-06
-6.10936e-11
2.13066e-06
-1.62008e-08
2.39317e-06
-3.72289e-08
2.60777e-06
-6.15198e-08
2.78749e-06
-8.75516e-08
2.94217e-06
-1.14105e-07
3.07802e-06
-1.40311e-07
3.19805e-06
-1.65604e-07
3.30293e-06
-1.89644e-07
3.39194e-06
-2.12237e-07
3.4638e-06
-2.33284e-07
3.51717e-06
-2.52749e-07
3.55111e-06
-2.70642e-07
3.56514e-06
-2.87013e-07
3.55938e-06
-3.01944e-07
3.53451e-06
-3.15549e-07
3.49173e-06
-3.27965e-07
3.43269e-06
-3.39347e-07
3.35933e-06
-3.49858e-07
3.27382e-06
-3.59664e-07
3.17839e-06
-3.68922e-07
3.07527e-06
-3.77778e-07
2.96653e-06
-3.86359e-07
2.85402e-06
-3.94773e-07
2.73935e-06
-4.03106e-07
2.6238e-06
-4.11422e-07
2.50836e-06
-4.19768e-07
2.39373e-06
-4.28174e-07
2.28035e-06
-4.36658e-07
2.16842e-06
-4.45226e-07
2.05799e-06
-4.5388e-07
1.94898e-06
-4.62615e-07
1.84121e-06
-4.71428e-07
1.73446e-06
-4.80314e-07
1.62849e-06
-4.8927e-07
1.52306e-06
-4.98295e-07
1.41794e-06
-5.07393e-07
1.31294e-06
-5.16566e-07
1.20791e-06
-5.25825e-07
1.10272e-06
-5.35177e-07
9.97291e-07
-5.44635e-07
8.91551e-07
-5.54211e-07
7.85471e-07
-5.63919e-07
6.79034e-07
-5.73773e-07
5.72243e-07
4.65106e-07
5.2759e-09
3.32079e-07
1.42748e-08
9.07926e-07
2.16512e-08
1.39714e-06
2.40379e-08
1.80331e-06
2.004e-08
2.13466e-06
9.86664e-09
2.40335e-06
-5.3591e-09
2.62299e-06
-2.40869e-08
2.80622e-06
-4.48051e-08
2.96289e-06
-6.62782e-08
3.09949e-06
-8.76188e-08
3.21939e-06
-1.08256e-07
3.32357e-06
-1.27859e-07
3.41155e-06
-1.4626e-07
3.4822e-06
-1.63391e-07
3.53431e-06
-1.7925e-07
3.56697e-06
-1.93872e-07
3.57976e-06
-2.07326e-07
3.57283e-06
-2.19702e-07
3.54688e-06
-2.31112e-07
3.50314e-06
-2.41679e-07
3.44326e-06
-2.51534e-07
3.36918e-06
-2.6081e-07
3.28309e-06
-2.69632e-07
3.18721e-06
-2.78118e-07
3.08376e-06
-2.8637e-07
2.97478e-06
-2.94474e-07
2.86213e-06
-3.02501e-07
2.74738e-06
-3.10501e-07
2.6318e-06
-3.18512e-07
2.51638e-06
-3.26559e-07
2.40178e-06
-3.34654e-07
2.28844e-06
-3.42807e-07
2.17657e-06
-3.51017e-07
2.0662e-06
-3.59287e-07
1.95725e-06
-3.67615e-07
1.84954e-06
-3.76001e-07
1.74285e-06
-3.8445e-07
1.63694e-06
-3.92965e-07
1.53157e-06
-4.01556e-07
1.42653e-06
-4.10232e-07
1.32162e-06
-4.19006e-07
1.21668e-06
-4.27894e-07
1.11161e-06
-4.36911e-07
1.00631e-06
-4.46074e-07
9.00715e-07
-4.55401e-07
7.94798e-07
-4.64909e-07
6.88542e-07
-4.74614e-07
5.81948e-07
4.75025e-07
6.39473e-09
3.25685e-07
1.83873e-08
8.95933e-07
3.01895e-08
1.38534e-06
3.79441e-08
1.79556e-06
3.98018e-08
2.1328e-06
3.55833e-08
2.40756e-06
2.62037e-08
2.63237e-06
1.30902e-08
2.81933e-06
-2.28162e-09
2.97826e-06
-1.86668e-08
3.11588e-06
-3.51568e-08
3.23588e-06
-5.11696e-08
3.33958e-06
-6.638e-08
3.42676e-06
-8.06395e-08
3.49646e-06
-9.39074e-08
3.54757e-06
-1.06208e-07
3.57927e-06
-1.17604e-07
3.59115e-06
-1.28178e-07
3.5834e-06
-1.38029e-07
3.55674e-06
-1.47263e-07
3.51238e-06
-1.55989e-07
3.45198e-06
-1.64313e-07
3.37751e-06
-1.72336e-07
3.29111e-06
-1.80149e-07
3.19503e-06
-1.87826e-07
3.09143e-06
-1.9543e-07
2.98238e-06
-2.03006e-07
2.8697e-06
-2.10587e-07
2.75496e-06
-2.18194e-07
2.63941e-06
-2.25837e-07
2.52402e-06
-2.3352e-07
2.40946e-06
-2.41241e-07
2.29616e-06
-2.49e-07
2.18433e-06
-2.56793e-07
2.074e-06
-2.64621e-07
1.96508e-06
-2.72487e-07
1.85741e-06
-2.80397e-07
1.75076e-06
-2.88362e-07
1.6449e-06
-2.96393e-07
1.5396e-06
-3.04508e-07
1.43464e-06
-3.12725e-07
1.32983e-06
-3.21065e-07
1.22502e-06
-3.29549e-07
1.1201e-06
-3.38201e-07
1.01496e-06
-3.47043e-07
9.09556e-07
-3.56095e-07
8.0385e-07
-3.65379e-07
6.97826e-07
-3.74915e-07
5.91484e-07
4.8483e-07
7.43034e-09
3.18254e-07
2.2263e-08
8.811e-07
3.83434e-08
1.36926e-06
5.13676e-08
1.78253e-06
5.90357e-08
2.12513e-06
6.07928e-08
2.40581e-06
5.72971e-08
2.63587e-06
4.98364e-08
2.82679e-06
3.9837e-08
2.98826e-06
2.85463e-08
3.12717e-06
1.68924e-08
3.24754e-06
5.47197e-09
3.351e-06
-5.38745e-09
3.43762e-06
-1.55477e-08
3.50662e-06
-2.49933e-08
3.55702e-06
-3.37734e-08
3.58805e-06
-4.19715e-08
3.59935e-06
-4.96864e-08
3.59112e-06
-5.70214e-08
3.56407e-06
-6.4078e-08
3.51944e-06
-7.09501e-08
3.45886e-06
-7.77207e-08
3.38428e-06
-8.44582e-08
3.29785e-06
-9.12193e-08
3.20179e-06
-9.80391e-08
3.09825e-06
-1.04938e-07
2.98928e-06
-1.11926e-07
2.87669e-06
-1.19e-07
2.76203e-06
-1.2615e-07
2.64656e-06
-1.33361e-07
2.53123e-06
-1.40617e-07
2.41672e-06
-1.47904e-07
2.30345e-06
-1.55211e-07
2.19164e-06
-1.62533e-07
2.08132e-06
-1.69869e-07
1.97241e-06
-1.77225e-07
1.86476e-06
-1.84614e-07
1.75815e-06
-1.92052e-07
1.65234e-06
-1.9956e-07
1.54711e-06
-2.07163e-07
1.44224e-06
-2.14888e-07
1.33756e-06
-2.22761e-07
1.2329e-06
-2.30813e-07
1.12815e-06
-2.39072e-07
1.02322e-06
-2.47566e-07
9.18049e-07
-2.56319e-07
8.12604e-07
-2.65356e-07
7.06864e-07
-2.747e-07
6.00827e-07
4.94501e-07
8.37668e-09
3.09878e-07
2.58764e-08
8.63601e-07
4.60572e-08
1.34908e-06
6.42181e-08
1.76437e-06
7.76272e-08
2.11173e-06
8.53465e-08
2.39809e-06
8.77554e-08
2.63346e-06
8.59783e-08
2.82857e-06
8.13739e-08
2.99286e-06
7.5183e-08
3.13336e-06
6.83529e-08
3.25437e-06
6.1501e-08
3.35785e-06
5.49611e-08
3.44416e-06
4.88617e-08
3.51272e-06
4.32042e-08
3.56268e-06
3.79181e-08
3.59333e-06
3.29006e-08
3.60437e-06
2.80394e-08
3.59598e-06
2.32264e-08
3.56888e-06
1.83651e-08
3.5243e-06
1.33756e-08
3.46384e-06
8.19705e-09
3.38946e-06
2.78932e-09
3.30326e-06
-2.85914e-09
3.20744e-06
-8.75313e-09
3.10415e-06
-1.48807e-08
2.99541e-06
-2.12123e-08
2.88302e-06
-2.77111e-08
2.76853e-06
-3.43375e-08
2.65319e-06
-4.10525e-08
2.53794e-06
-4.78216e-08
2.42349e-06
-5.4617e-08
2.31025e-06
-6.14196e-08
2.19844e-06
-6.82199e-08
2.08812e-06
-7.50179e-08
1.97921e-06
-8.18226e-08
1.87157e-06
-8.86507e-08
1.76498e-06
-9.5526e-08
1.65922e-06
-1.02477e-07
1.55406e-06
-1.09535e-07
1.4493e-06
-1.16736e-07
1.34476e-06
-1.24114e-07
1.24028e-06
-1.31706e-07
1.13574e-06
-1.39546e-07
1.03106e-06
-1.47665e-07
-1.56095e-07
-1.64862e-07
-1.73992e-07
9.22898e-09
3.00649e-07
2.92058e-08
8.43624e-07
5.32813e-08
1.325e-06
7.64131e-08
1.74124e-06
9.54614e-08
2.09268e-06
1.09102e-07
2.38445e-06
1.17417e-07
2.62514e-06
1.21344e-07
2.82464e-06
1.22152e-07
2.99205e-06
1.21067e-07
3.13445e-06
1.1905e-07
3.25638e-06
1.16742e-07
3.36016e-06
1.1449e-07
3.44641e-06
1.12424e-07
3.51478e-06
1.10532e-07
3.56457e-06
1.08728e-07
3.59514e-06
1.06891e-07
3.60621e-06
1.04896e-07
3.59797e-06
1.02631e-07
3.57115e-06
1.00004e-07
3.52692e-06
9.69474e-08
3.4669e-06
9.34228e-08
3.39298e-06
8.94185e-08
3.30726e-06
8.49452e-08
3.21191e-06
8.00396e-08
3.10905e-06
7.47547e-08
3.00069e-06
6.91525e-08
2.88862e-06
6.33007e-08
2.77438e-06
5.72664e-08
2.65922e-06
5.11118e-08
2.5441e-06
4.48896e-08
2.42971e-06
3.86407e-08
2.31649e-06
3.23927e-08
2.20469e-06
2.61592e-08
2.09435e-06
1.99407e-08
1.98543e-06
1.37258e-08
1.87778e-06
7.49321e-09
1.77121e-06
1.21322e-09
1.6655e-06
-5.14957e-09
1.56042e-06
-1.16348e-08
1.45579e-06
-1.82842e-08
1.35141e-06
-2.51403e-08
1.24713e-06
-3.22453e-08
1.14284e-06
1.03845e-06
9.98373e-09
2.90665e-07
3.22328e-08
8.21375e-07
5.99716e-08
1.29726e-06
8.78753e-08
1.71333e-06
1.12428e-07
2.06812e-06
1.31922e-07
2.36495e-06
1.46124e-07
2.61094e-06
1.55762e-07
2.815e-06
1.61998e-07
2.98582e-06
1.66022e-07
3.13042e-06
1.68811e-07
3.25359e-06
1.71028e-07
3.35794e-06
1.73041e-07
3.4444e-06
1.74985e-07
3.51284e-06
1.76844e-07
3.56271e-06
1.78516e-07
3.59347e-06
1.79868e-07
3.60486e-06
1.80764e-07
3.59708e-06
1.81085e-07
3.57083e-06
1.80743e-07
3.52727e-06
1.79682e-07
3.46796e-06
1.77882e-07
3.39478e-06
1.75355e-07
3.30979e-06
1.72146e-07
3.21512e-06
1.68321e-07
3.11288e-06
1.63966e-07
3.00505e-06
1.59176e-07
2.89341e-06
1.54049e-07
2.77951e-06
1.48679e-07
2.66459e-06
1.43151e-07
2.54963e-06
1.37536e-07
2.43533e-06
1.31887e-07
2.32214e-06
1.26241e-07
2.21033e-06
1.20617e-07
2.09998e-06
1.15016e-07
1.99103e-06
1.09425e-07
1.88337e-06
1.0382e-07
1.77682e-06
9.81639e-08
1.67115e-06
9.24164e-08
1.56617e-06
8.65307e-08
1.46167e-06
8.04581e-08
1.35748e-06
7.41493e-08
1.25344e-06
6.7556e-08
1.14944e-06
1.04538e-06
1.06385e-08
2.80026e-07
3.49427e-08
7.9707e-07
6.60889e-08
1.26611e-06
9.8534e-08
1.68089e-06
1.28421e-07
2.03824e-06
1.5367e-07
2.3397e-06
1.73719e-07
2.59089e-06
1.89063e-07
2.79966e-06
2.00734e-07
2.97415e-06
2.09874e-07
3.12128e-06
2.17464e-07
3.246e-06
2.24193e-07
3.35122e-06
2.30452e-07
3.43814e-06
2.3639e-07
3.5069e-06
2.41991e-07
3.55711e-06
2.47146e-07
3.58831e-06
2.51708e-07
3.60029e-06
2.5553e-07
3.59326e-06
2.58491e-07
3.56787e-06
2.605e-07
3.52526e-06
2.61513e-07
3.46695e-06
2.61525e-07
3.39477e-06
2.60571e-07
3.31074e-06
2.58722e-07
3.21697e-06
2.56074e-07
3.11553e-06
2.52743e-07
3.00838e-06
2.48856e-07
2.8973e-06
2.44538e-07
2.78383e-06
2.3991e-07
2.66922e-06
2.35078e-07
2.55446e-06
2.30131e-07
2.44027e-06
2.25137e-07
2.32714e-06
2.20141e-07
2.21533e-06
2.15167e-07
2.10495e-06
2.10219e-07
1.99598e-06
2.05283e-07
1.88831e-06
2.00333e-07
1.78177e-06
1.95327e-07
1.67616e-06
1.9022e-07
1.57128e-06
1.84957e-07
1.46694e-06
1.79485e-07
1.36295e-06
1.73747e-07
1.25918e-06
1.67689e-07
1.1555e-06
1.05181e-06
1.1192e-08
2.68834e-07
3.73237e-08
7.70939e-07
7.16001e-08
1.23184e-06
1.08325e-07
1.64416e-06
1.43343e-07
2.00322e-06
1.74216e-07
2.30883e-06
2.00048e-07
2.56506e-06
2.21077e-07
2.77863e-06
2.38183e-07
2.95704e-06
2.52445e-07
3.10702e-06
2.64835e-07
3.23361e-06
2.76066e-07
3.33998e-06
2.86559e-07
3.42764e-06
2.96482e-07
3.49698e-06
3.05825e-07
3.54777e-06
3.14475e-07
3.57966e-06
3.22276e-07
3.59249e-06
3.29074e-07
3.58646e-06
3.34737e-07
3.5622e-06
3.39178e-07
3.52082e-06
3.42358e-07
3.46377e-06
3.44283e-07
3.39285e-06
3.4501e-07
3.31002e-06
3.4463e-07
3.21735e-06
3.43268e-07
3.11689e-06
3.41067e-07
3.01058e-06
3.38182e-07
2.90019e-06
3.34766e-07
2.78724e-06
3.30963e-07
2.67302e-06
3.26901e-07
2.55852e-06
3.22687e-07
2.44449e-06
3.18402e-07
2.33142e-06
3.14103e-07
2.21963e-06
3.09819e-07
2.10923e-06
3.05559e-07
2.00024e-06
3.0131e-07
1.89256e-06
2.97041e-07
1.78604e-06
2.9271e-07
1.68049e-06
2.88264e-07
1.57572e-06
2.83647e-07
1.47155e-06
2.78797e-07
1.3678e-06
2.73652e-07
1.26432e-06
2.68152e-07
1.16099e-06
1.05772e-06
1.16439e-08
2.57191e-07
3.93677e-08
7.43215e-07
7.64775e-08
1.19473e-06
1.1719e-07
1.60345e-06
1.57102e-07
1.96331e-06
1.93435e-07
2.2725e-06
2.24957e-07
2.53354e-06
2.51634e-07
2.75195e-06
2.74168e-07
2.93451e-06
2.93552e-07
3.08763e-06
3.10743e-07
3.21642e-06
3.26474e-07
3.32425e-06
3.41194e-07
3.41292e-06
3.55097e-07
3.48307e-06
3.68188e-07
3.53468e-06
3.80353e-07
3.5675e-06
3.91433e-07
3.58141e-06
4.01262e-07
3.57663e-06
4.09704e-07
3.55376e-06
4.16669e-07
3.51385e-06
4.2212e-07
3.45832e-06
4.26074e-07
3.38889e-06
4.28601e-07
3.30749e-06
4.29814e-07
3.21613e-06
4.29859e-07
3.11684e-06
4.28906e-07
3.01153e-06
4.27133e-07
2.90196e-06
4.24719e-07
2.78966e-06
4.21832e-07
2.67591e-06
4.1862e-07
2.56173e-06
4.15208e-07
2.4479e-06
4.11692e-07
2.33494e-06
4.0814e-07
2.22318e-06
4.04589e-07
2.11278e-06
4.01052e-07
2.00378e-06
3.97517e-07
1.89609e-06
3.93955e-07
1.7896e-06
3.90322e-07
1.68412e-06
3.8656e-07
1.57949e-06
3.82608e-07
1.4755e-06
3.78399e-07
1.37201e-06
3.73867e-07
1.26886e-06
3.68946e-07
1.16592e-06
1.06309e-06
1.1995e-08
2.45196e-07
4.10698e-08
7.1414e-07
8.06995e-08
1.1551e-06
1.25081e-07
1.55907e-06
1.69613e-07
1.91878e-06
2.11208e-07
2.2309e-06
2.48298e-07
2.49645e-06
2.80563e-07
2.71969e-06
3.08505e-07
2.90657e-06
3.33011e-07
3.06313e-06
3.55006e-07
3.19443e-06
3.75235e-07
3.30402e-06
3.94182e-07
3.39398e-06
4.12068e-07
3.46519e-06
4.28917e-07
3.51783e-06
4.44625e-07
3.55179e-06
4.59028e-07
3.56701e-06
4.71954e-07
3.5637e-06
4.8326e-07
3.54246e-06
4.9285e-07
3.50426e-06
5.00688e-07
3.45048e-06
5.06798e-07
3.38278e-06
5.1126e-07
3.30303e-06
5.14201e-07
3.21319e-06
5.15788e-07
3.11526e-06
5.16211e-07
3.01111e-06
5.15672e-07
2.9025e-06
5.14372e-07
2.79096e-06
5.125e-07
2.67778e-06
5.10227e-07
2.56401e-06
5.07694e-07
2.45043e-06
5.05012e-07
2.33762e-06
5.0226e-07
2.22593e-06
4.99487e-07
2.11556e-06
4.9671e-07
2.00655e-06
4.93922e-07
1.89888e-06
4.91094e-07
1.79243e-06
4.8818e-07
1.68704e-06
4.85123e-07
1.58254e-06
4.81855e-07
1.47877e-06
4.78307e-07
1.37556e-06
4.74407e-07
1.27276e-06
4.70084e-07
1.17024e-06
1.0679e-06
1.22469e-08
2.32949e-07
4.24286e-08
6.83958e-07
8.42505e-08
1.11328e-06
1.31956e-07
1.51137e-06
1.808e-07
1.86993e-06
2.2742e-07
2.18428e-06
2.69924e-07
2.45394e-06
3.07693e-07
2.68192e-06
3.41009e-07
2.87325e-06
3.7063e-07
3.03351e-06
3.97431e-07
3.16763e-06
4.22163e-07
3.27929e-06
4.45339e-07
3.3708e-06
4.67215e-07
3.44331e-06
4.8784e-07
3.4972e-06
5.07122e-07
3.53251e-06
5.24898e-07
3.54923e-06
5.40993e-07
3.54761e-06
5.55255e-07
3.52819e-06
5.67583e-07
3.49193e-06
5.77936e-07
3.44013e-06
5.8634e-07
3.37438e-06
5.92882e-07
3.29649e-06
5.97701e-07
3.20837e-06
6.00978e-07
3.11198e-06
6.02919e-07
3.00917e-06
6.03748e-07
2.90167e-06
6.03686e-07
2.79102e-06
6.02942e-07
2.67852e-06
6.01706e-07
2.56524e-06
6.00137e-07
2.452e-06
5.98362e-07
2.33939e-06
5.96472e-07
2.22782e-06
5.94527e-07
2.1175e-06
5.92552e-07
2.00853e-06
5.90544e-07
1.90089e-06
5.88478e-07
1.79449e-06
5.86308e-07
1.68921e-06
5.83976e-07
1.58488e-06
5.81412e-07
1.48134e-06
5.78543e-07
1.37843e-06
5.75293e-07
1.27601e-06
5.71586e-07
1.17395e-06
1.07214e-06
1.24024e-08
2.20546e-07
4.34458e-08
6.52915e-07
8.71215e-08
1.0696e-06
1.37781e-07
1.46071e-06
1.90596e-07
1.81712e-06
2.41969e-07
2.13291e-06
2.89696e-07
2.40622e-06
3.32857e-07
2.63876e-06
3.71493e-07
2.83461e-06
4.06211e-07
2.99879e-06
4.3782e-07
3.13602e-06
4.67061e-07
3.25005e-06
4.94474e-07
3.34339e-06
5.20352e-07
3.41743e-06
5.44773e-07
3.47278e-06
5.67665e-07
3.50961e-06
5.8887e-07
3.52803e-06
6.0821e-07
3.52827e-06
6.25527e-07
3.51088e-06
6.40711e-07
3.47675e-06
6.53716e-07
3.42712e-06
6.64564e-07
3.36353e-06
6.73345e-07
3.28771e-06
6.80204e-07
3.20152e-06
6.85331e-07
3.10685e-06
6.88949e-07
3.00555e-06
6.91294e-07
2.89932e-06
6.92607e-07
2.78971e-06
6.93117e-07
2.67801e-06
6.93029e-07
2.56533e-06
6.92521e-07
2.45251e-06
6.91735e-07
2.34018e-06
6.90778e-07
2.22878e-06
6.8972e-07
2.11856e-06
6.88594e-07
2.00966e-06
6.87406e-07
1.90208e-06
6.86133e-07
1.79576e-06
6.84734e-07
1.69061e-06
6.83149e-07
1.58646e-06
6.81309e-07
1.48318e-06
6.79137e-07
1.3806e-06
6.76555e-07
1.27859e-06
6.73483e-07
1.17702e-06
1.07578e-06
1.24648e-08
2.08081e-07
4.41264e-08
6.21254e-07
8.93097e-08
1.02442e-06
1.42534e-07
1.40748e-06
1.98946e-07
1.7607e-06
2.54757e-07
2.0771e-06
3.07479e-07
2.3535e-06
3.55887e-07
2.59035e-06
3.99767e-07
2.79073e-06
4.39554e-07
2.959e-06
4.75965e-07
3.09961e-06
5.09722e-07
3.21629e-06
5.41383e-07
3.31173e-06
5.71278e-07
3.38754e-06
5.9952e-07
3.44454e-06
6.2606e-07
3.48307e-06
6.50753e-07
3.50334e-06
6.7342e-07
3.5056e-06
6.93896e-07
3.4904e-06
7.12061e-07
3.45858e-06
7.27862e-07
3.41132e-06
7.41314e-07
3.35008e-06
7.52504e-07
3.27652e-06
7.61577e-07
3.19244e-06
7.68731e-07
3.0997e-06
7.74196e-07
3.00009e-06
7.78222e-07
2.8953e-06
7.81065e-07
2.78686e-06
7.82967e-07
2.67611e-06
7.84154e-07
2.56414e-06
7.84818e-07
2.45184e-06
7.85118e-07
2.33988e-06
7.85175e-07
2.22872e-06
7.85071e-07
2.11867e-06
7.84851e-07
2.00988e-06
7.84528e-07
1.9024e-06
7.84087e-07
1.79621e-06
7.8349e-07
1.6912e-06
7.82678e-07
1.58727e-06
7.81585e-07
1.48427e-06
7.80131e-07
1.38205e-06
7.78235e-07
1.28048e-06
7.75816e-07
1.17944e-06
1.0788e-06
1.24384e-08
1.95643e-07
4.44785e-08
5.89213e-07
9.08187e-08
9.78078e-07
1.46201e-07
1.3521e-06
2.05805e-07
1.7011e-06
2.65703e-07
2.0172e-06
3.23148e-07
2.29605e-06
3.76621e-07
2.53688e-06
4.25642e-07
2.74171e-06
4.70449e-07
2.91419e-06
5.11649e-07
3.05841e-06
5.49927e-07
3.17801e-06
5.85849e-07
3.2758e-06
6.19781e-07
3.35361e-06
6.51872e-07
3.41245e-06
6.82102e-07
3.45284e-06
7.10343e-07
3.47509e-06
7.36419e-07
3.47952e-06
7.60161e-07
3.46666e-06
7.81439e-07
3.43731e-06
8.00187e-07
3.39257e-06
8.16411e-07
3.33385e-06
8.30189e-07
3.26274e-06
8.41665e-07
3.18097e-06
8.51035e-07
3.09033e-06
8.58535e-07
2.99259e-06
8.64423e-07
2.88941e-06
8.68965e-07
2.78232e-06
8.72418e-07
2.67266e-06
8.75022e-07
2.56154e-06
8.76985e-07
2.44988e-06
8.78483e-07
2.33838e-06
8.79649e-07
2.22755e-06
8.80581e-07
2.11773e-06
8.81335e-07
2.00912e-06
8.81934e-07
1.9018e-06
8.82371e-07
1.79577e-06
8.82612e-07
1.69096e-06
8.82606e-07
1.58728e-06
8.82285e-07
1.48459e-06
8.81571e-07
1.38277e-06
8.80383e-07
1.28167e-06
8.78637e-07
1.18118e-06
1.08119e-06
1.2328e-08
1.83315e-07
4.4513e-08
5.57028e-07
9.16583e-08
9.30932e-07
1.48777e-07
1.29498e-06
2.1114e-07
1.63874e-06
2.74732e-07
1.95361e-06
3.36587e-07
2.2342e-06
3.94903e-07
2.47856e-06
4.48926e-07
2.68769e-06
4.98684e-07
2.86444e-06
5.44648e-07
3.01244e-06
5.87446e-07
3.13522e-06
6.27643e-07
3.23561e-06
6.65632e-07
3.31562e-06
7.01602e-07
3.37648e-06
7.35566e-07
3.41888e-06
7.67417e-07
3.44324e-06
7.96987e-07
3.44995e-06
8.24104e-07
3.43954e-06
8.48628e-07
3.41278e-06
8.7048e-07
3.37072e-06
8.89651e-07
3.31468e-06
9.06208e-07
3.24618e-06
9.20286e-07
3.16689e-06
9.32076e-07
3.07854e-06
9.41814e-07
2.98285e-06
9.49761e-07
2.88146e-06
9.56191e-07
2.77589e-06
9.61372e-07
2.66748e-06
9.65555e-07
2.55736e-06
9.68964e-07
2.44647e-06
9.71787e-07
2.33556e-06
9.74176e-07
2.22516e-06
9.7624e-07
2.11567e-06
9.7805e-07
2.00731e-06
9.79639e-07
1.90021e-06
9.8101e-07
1.7944e-06
9.82139e-07
1.68983e-06
9.82976e-07
1.58644e-06
9.8346e-07
1.48411e-06
9.83514e-07
1.38271e-06
9.83058e-07
1.28213e-06
9.82005e-07
1.18224e-06
1.08293e-06
1.21391e-08
1.71176e-07
4.42434e-08
5.24924e-07
9.18444e-08
8.83331e-07
1.50268e-07
1.23656e-06
2.14932e-07
1.57407e-06
2.8179e-07
1.88675e-06
3.47695e-07
2.16829e-06
4.10585e-07
2.41567e-06
4.69436e-07
2.62884e-06
5.24045e-07
2.80983e-06
5.74729e-07
2.96176e-06
6.22038e-07
3.08791e-06
6.6652e-07
3.19113e-06
7.08587e-07
3.27355e-06
7.48468e-07
3.3366e-06
7.86212e-07
3.38114e-06
8.21735e-07
3.40772e-06
8.54885e-07
3.4168e-06
8.85487e-07
3.40894e-06
9.13393e-07
3.38487e-06
9.38508e-07
3.34561e-06
9.60808e-07
3.29238e-06
9.80342e-07
3.22665e-06
9.97231e-07
3.15e-06
1.01166e-06
3.06411e-06
1.02385e-06
2.97065e-06
1.03408e-06
2.87124e-06
1.0426e-06
2.76737e-06
1.04971e-06
2.66037e-06
1.05565e-06
2.55141e-06
1.06067e-06
2.44145e-06
1.06497e-06
2.33126e-06
1.06871e-06
2.22142e-06
1.07203e-06
2.11236e-06
1.07499e-06
2.00435e-06
1.07765e-06
1.89755e-06
1.08003e-06
1.79202e-06
1.0821e-06
1.68776e-06
1.08383e-06
1.58471e-06
1.08516e-06
1.48278e-06
1.08602e-06
1.38186e-06
1.08632e-06
1.28182e-06
1.08599e-06
1.18257e-06
1.08399e-06
1.18778e-08
1.59298e-07
4.36857e-08
4.93116e-07
9.13986e-08
8.35618e-07
1.50689e-07
1.17727e-06
2.17176e-07
1.50759e-06
2.86832e-07
1.8171e-06
3.56382e-07
2.09874e-06
4.2353e-07
2.34852e-06
4.86989e-07
2.56538e-06
5.46315e-07
2.7505e-06
6.01654e-07
2.90642e-06
6.53451e-07
3.03611e-06
7.02221e-07
3.14236e-06
7.48389e-07
3.22738e-06
7.92213e-07
3.29277e-06
8.33781e-07
3.33957e-06
8.73041e-07
3.36846e-06
9.09855e-07
3.37999e-06
9.44051e-07
3.37474e-06
9.75475e-07
3.35345e-06
1.00402e-06
3.31707e-06
1.02963e-06
3.26677e-06
1.05234e-06
3.20393e-06
1.07227e-06
3.13008e-06
1.08956e-06
3.04682e-06
1.10444e-06
2.95577e-06
1.11717e-06
2.85851e-06
1.12802e-06
2.75652e-06
1.13727e-06
2.65113e-06
1.14518e-06
2.5435e-06
1.152e-06
2.43463e-06
1.15795e-06
2.32531e-06
1.1632e-06
2.21617e-06
1.16789e-06
2.10766e-06
1.17213e-06
2.00011e-06
1.17597e-06
1.89371e-06
1.17944e-06
1.78855e-06
1.18253e-06
1.68467e-06
1.18522e-06
1.58203e-06
1.18744e-06
1.48055e-06
1.18914e-06
1.38015e-06
1.19025e-06
1.28072e-06
1.19066e-06
1.18215e-06
1.08434e-06
1.15501e-08
1.47748e-07
4.28576e-08
4.61809e-07
9.03473e-08
7.88129e-07
1.50067e-07
1.11755e-06
2.17877e-07
1.43977e-06
2.89833e-07
1.74514e-06
3.62576e-07
2.026e-06
4.33616e-07
2.27748e-06
5.01413e-07
2.49758e-06
5.65283e-07
2.68663e-06
6.25177e-07
2.84653e-06
6.81421e-07
2.97987e-06
7.34475e-07
3.0893e-06
7.84758e-07
3.1771e-06
8.32558e-07
3.24497e-06
8.77997e-07
3.29413e-06
9.21056e-07
3.3254e-06
9.61618e-07
3.33943e-06
9.99517e-07
3.33684e-06
1.03459e-06
3.31838e-06
1.06672e-06
3.28494e-06
1.09583e-06
3.23765e-06
1.12194e-06
3.17782e-06
1.14512e-06
3.1069e-06
1.16552e-06
3.02642e-06
1.18334e-06
2.93795e-06
1.19883e-06
2.84303e-06
1.21225e-06
2.7431e-06
1.22387e-06
2.6395e-06
1.23398e-06
2.5334e-06
1.24281e-06
2.42579e-06
1.2506e-06
2.31752e-06
1.25754e-06
2.20923e-06
1.26378e-06
2.10142e-06
1.26943e-06
1.99446e-06
1.27457e-06
1.88857e-06
1.27924e-06
1.78389e-06
1.28344e-06
1.68047e-06
1.28716e-06
1.57831e-06
1.29034e-06
1.47736e-06
1.29295e-06
1.37755e-06
1.29489e-06
1.27878e-06
1.2961e-06
1.18095e-06
1.08395e-06
1.11626e-08
1.36585e-07
4.17782e-08
4.31193e-07
8.87213e-08
7.41186e-07
1.48433e-07
1.05784e-06
2.17058e-07
1.37115e-06
2.90783e-07
1.67142e-06
3.66224e-07
1.95056e-06
4.40735e-07
2.20297e-06
5.12548e-07
2.42577e-06
5.80738e-07
2.61844e-06
6.45054e-07
2.78221e-06
7.05678e-07
2.91924e-06
7.62995e-07
3.03199e-06
8.17404e-07
3.12269e-06
8.69209e-07
3.19317e-06
9.18565e-07
3.24477e-06
9.65485e-07
3.27848e-06
1.00988e-06
3.29504e-06
1.05159e-06
3.29513e-06
1.09045e-06
3.27951e-06
1.12632e-06
3.24906e-06
1.15913e-06
3.20485e-06
1.18884e-06
3.14811e-06
1.21551e-06
3.08023e-06
1.23926e-06
3.00266e-06
1.26028e-06
2.91693e-06
1.27878e-06
2.82452e-06
1.29503e-06
2.72685e-06
1.3093e-06
2.62524e-06
1.32185e-06
2.52085e-06
1.33293e-06
2.41471e-06
1.34279e-06
2.30766e-06
1.35162e-06
2.2004e-06
1.35958e-06
2.09346e-06
1.36682e-06
1.98723e-06
1.3734e-06
1.88198e-06
1.3794e-06
1.77789e-06
1.38482e-06
1.67505e-06
1.38966e-06
1.57347e-06
1.3939e-06
1.47313e-06
1.39747e-06
1.37398e-06
1.40032e-06
1.27593e-06
1.40237e-06
1.1789e-06
1.08278e-06
1.07219e-08
1.25864e-07
4.04678e-08
4.01447e-07
8.65543e-08
6.95099e-07
1.45828e-07
9.98562e-07
2.1475e-07
1.30223e-06
2.89689e-07
1.59648e-06
3.6729e-07
1.87296e-06
4.44797e-07
2.12546e-06
5.20246e-07
2.35032e-06
5.92481e-07
2.54621e-06
6.6104e-07
2.71365e-06
7.25945e-07
2.85434e-06
7.87483e-07
2.97045e-06
8.46016e-07
3.06416e-06
9.0185e-07
3.13733e-06
9.55165e-07
3.19146e-06
1.00601e-06
3.22764e-06
1.05431e-06
3.24674e-06
1.09993e-06
3.24951e-06
1.14271e-06
3.23673e-06
1.18249e-06
3.20928e-06
1.21917e-06
3.16818e-06
1.2527e-06
3.11459e-06
1.2831e-06
3.04983e-06
1.31046e-06
2.9753e-06
1.33494e-06
2.89245e-06
1.35675e-06
1.37611e-06
1.39329e-06
1.40855e-06
1.42215e-06
1.43432e-06
1.44527e-06
1.45518e-06
1.46418e-06
1.47239e-06
1.47986e-06
1.48664e-06
1.49273e-06
1.49811e-06
1.50274e-06
1.50656e-06
1.50952e-06
1.02342e-08
3.89466e-08
8.38823e-08
1.42297e-07
2.10995e-07
2.86571e-07
3.65754e-07
4.45732e-07
5.24377e-07
6.00325e-07
6.72898e-07
7.41945e-07
8.07637e-07
8.70276e-07
9.30155e-07
9.8747e-07
1.0423e-06
1.09459e-06
1.14423e-06
1.19105e-06
1.23489e-06
1.27563e-06
1.31318e-06
1.34755e-06
1.37878e-06
)
;

boundaryField
{
    movingWall
    {