/*--------------------------------*- C++ -*----------------------------------*\
  =========                 |
  \\      /  F ield         | OpenFOAM: The Open Source CFD Toolbox
   \\    /   O peration     | Website:  https://openfoam.org
    \\  /    A nd           | Version:  9
     \\/     M anipulation  |
\*---------------------------------------------------------------------------*/
FoamFile
{
    format      ascii;
    class       volVectorField;
    location    "3.25";
    object      U;
}
// * * * * * * * * * * * * * * * * * * * * * * * * * * * * * * * * * * * * * //

dimensions      [0 1 -1 0 0 0 0];

internalField   nonuniform List<vector> 
1260
(
(-0.00288951 0.0889801 0)
(-0.00366954 0.0786403 0)
(-0.00448737 0.0683043 0)
(-0.00534614 0.0579689 0)
(-0.00624867 0.0476314 0)
(-0.00719752 0.0372894 0)
(-0.00819499 0.0269406 0)
(-0.00924309 0.0165827 0)
(-0.0103436 0.0062132 0)
(-0.011498 -0.00417068 0)
(-0.0127075 -0.0145721 0)
(-0.0139732 -0.0249944 0)
(-0.0152956 -0.0354415 0)
(-0.0166753 -0.0459175 0)
(-0.0181122 -0.0564269 0)
(-0.0196061 -0.0669744 0)
(-0.0211563 -0.0775648 0)
(-0.0227617 -0.0882027 0)
(-0.0244207 -0.0988925 0)
(-0.0261311 -0.109638 0)
(-0.0278902 -0.120442 0)
(-0.0296945 -0.131307 0)
(-0.0315399 -0.142232 0)
(-0.0334214 -0.153216 0)
(-0.0353333 -0.164253 0)
(-0.0372691 -0.175336 0)
(0.00693051 0.0897276 0)
(0.00618063 0.0794259 0)
(0.00538854 0.0691316 0)
(0.00455085 0.0588409 0)
(0.00366451 0.0485509 0)
(0.00272677 0.038259 0)
(0.00173518 0.0279624 0)
(0.000687589 0.0176587 0)
(-0.000417884 0.0073451 0)
(-0.00158284 -0.0029815 0)
(-0.0028086 -0.0133244 0)
(-0.00409622 -0.0236874 0)
(-0.00544648 -0.0340746 0)
(-0.00685986 -0.0444905 0)
(-0.00833653 -0.0549398 0)
(-0.00987631 -0.0654276 0)
(-0.0114787 -0.0759591 0)
(-0.0131426 -0.0865394 0)
(-0.0148668 -0.0971734 0)
(-0.0166493 -0.107865 0)
(-0.0184875 -0.118619 0)
(-0.0203784 -0.129437 0)
(-0.0223182 -0.14032 0)
(-0.0243023 -0.151266 0)
(-0.0263254 -0.162271 0)
(-0.0283814 -0.17333 0)
(0.0167891 0.0904416 0)
(0.0160717 0.0801825 0)
(0.0153076 0.0699343 0)
(0.0144933 0.0596932 0)
(0.0136253 0.0494558 0)
(0.0127007 0.0392191 0)
(0.011717 0.0289801 0)
(0.0106717 0.0187361 0)
(0.00956298 0.008484 0)
(0.008389 -0.0017796 0)
(0.00714837 -0.0120583 0)
(0.00583994 -0.0223561 0)
(0.00446286 -0.0326774 0)
(0.00301653 -0.043027 0)
(0.0015007 -0.0534101 0)
(-8.4575e-05 -0.0638319 0)
(-0.00173889 -0.074298 0)
(-0.00346144 -0.0848141 0)
(-0.00525101 -0.0953854 0)
(-0.00710591 -0.106017 0)
(-0.00902393 -0.116713 0)
(-0.0110023 -0.127476 0)
(-0.0130374 -0.138308 0)
(-0.0151254 -0.149208 0)
(-0.0172611 -0.160173 0)
(-0.0194392 -0.171197 0)
(0.0266891 0.0911199 0)
(0.0260066 0.0809076 0)
(0.0252729 0.0707103 0)
(0.0244842 0.0605236 0)
(0.0236369 0.0503438 0)
(0.0227277 0.0401676 0)
(0.0217539 0.0299918 0)
(0.0207129 0.0198131 0)
(0.0196027 0.00962821 0)
(0.0184214 -0.000566515 0)
(0.0171674 -0.010775 0)
(0.0158395 -0.0210015 0)
(0.0144367 -0.0312508 0)
(0.0129584 -0.0415279 0)
(0.0114041 -0.0518383 0)
(0.00977389 -0.0621876 0)
(0.00806792 -0.0725818 0)
(0.00628687 -0.0830268 0)
(0.00443177 -0.0935284 0)
(0.00250407 -0.104092 0)
(0.00050571 -0.114722 0)
(-0.00156082 -0.125423 0)
(-0.00369246 -0.136196 0)
(-0.00588551 -0.147041 0)
(-0.00813558 -0.157956 0)
(-0.0104375 -0.168937 0)
(0.0366341 0.0917601 0)
(0.0359889 0.0815989 0)
(0.035288 0.071457 0)
(0.0345274 0.0613296 0)
(0.033703 0.0512127 0)
(0.0328114 0.0411024 0)
(0.0318498 0.0309953 0)
(0.0308152 0.0208877 0)
(0.0297055 0.0107759 0)
(0.0285187 0.000656097 0)
(0.027253 -0.00947602 0)
(0.0259072 -0.019625 0)
(0.02448 -0.0297959 0)
(0.0229708 -0.039994 0)
(0.021379 -0.0502251 0)
(0.0197044 -0.0604952 0)
(0.0179473 -0.0708106 0)
(0.0161079 -0.0811775 0)
(0.0141873 -0.0916021 0)
(0.0121865 -0.10209 0)
(0.0101073 -0.112647 0)
(0.00795175 -0.123277 0)
(0.0057226 -0.133982 0)
(0.00342308 -0.144764 0)
(0.00105706 -0.15562 0)
(-0.00137077 -0.166546 0)
(0.0466284 0.0923598 0)
(0.0460228 0.0822539 0)
(0.0453572 0.0721721 0)
(0.044627 0.062109 0)
(0.043828 0.05206 0)
(0.0429565 0.0420212 0)
(0.0420093 0.0319884 0)
(0.0409834 0.0219577 0)
(0.0398763 0.0119251 0)
(0.0386859 0.00188641 0)
(0.0374104 -0.00816304 0)
(0.0360482 -0.0182281 0)
(0.0345982 -0.028314 0)
(0.0330594 -0.0384265 0)
(0.0314311 -0.0485715 0)
(0.0297131 -0.0587554 0)
(0.0279053 -0.0689848 0)
(0.0260081 -0.0792663 0)
(0.0240219 -0.0896064 0)
(0.0219479 -0.100011 0)
(0.0197873 -0.110487 0)
(0.0175421 -0.121037 0)
(0.0152143 -0.131666 0)
(0.0128069 -0.142375 0)
(0.0103233 -0.153162 0)
(0.0077675 -0.164023 0)
(0.0566769 0.0929165 0)
(0.0561134 0.0828703 0)
(0.0554855 0.0728531 0)
(0.0547882 0.0628592 0)
(0.054017 0.0528835 0)
(0.053168 0.0429215 0)
(0.0522376 0.0329688 0)
(0.0512226 0.023021 0)
(0.0501204 0.0130738 0)
(0.0489287 0.00312241 0)
(0.0476453 -0.00683789 0)
(0.0462686 -0.0168124 0)
(0.0447973 -0.0268066 0)
(0.0432303 -0.0368265 0)
(0.0415669 -0.0468784 0)
(0.0398064 -0.056969 0)
(0.0379488 -0.067105 0)
(0.0359942 -0.0772935 0)
(0.0339428 -0.0875414 0)
(0.0317954 -0.0978551 0)
(0.0295532 -0.108241 0)
(0.0272174 -0.118703 0)
(0.0247901 -0.129246 0)
(0.0222734 -0.139872 0)
(0.0196703 -0.15058 0)
(0.0169843 -0.161366 0)
(0.0667853 0.0934279 0)
(0.0662664 0.0834455 0)
(0.0656787 0.0734975 0)
(0.0650168 0.0635777 0)
(0.064276 0.0536806 0)
(0.0634519 0.043801 0)
(0.0625407 0.0339341 0)
(0.0615392 0.0240753 0)
(0.0604442 0.0142195 0)
(0.0592532 0.004362 0)
(0.0579641 -0.00550256 0)
(0.0565749 -0.0153797 0)
(0.0550842 -0.0252753 0)
(0.0534907 -0.0351955 0)
(0.0517934 -0.0451471 0)
(0.0499917 -0.0551369 0)
(0.0480852 -0.065172 0)
(0.0460738 -0.0752596 0)
(0.0439575 -0.0854071 0)
(0.0417369 -0.0956212 0)
(0.0394126 -0.105908 0)
(0.0369858 -0.116274 0)
(0.0344577 -0.126721 0)
(0.0318304 -0.137254 0)
(0.029106 -0.147872 0)
(0.0262875 -0.158571 0)
(0.0769603 0.0938914 0)
(0.0764884 0.0839771 0)
(0.0759434 0.0741029 0)
(0.0753194 0.0642622 0)
(0.0746115 0.0544487 0)
(0.0738149 0.0446571 0)
(0.0729256 0.0348819 0)
(0.0719398 0.025118 0)
(0.0708544 0.0153601 0)
(0.0696666 0.00560294 0)
(0.068374 -0.00415916 0)
(0.0669745 -0.013932 0)
(0.0654663 -0.0237219 0)
(0.063848 -0.0335352 0)
(0.0621185 -0.0433789 0)
(0.0602769 -0.0532602 0)
(0.0583226 -0.0631865 0)
(0.0562552 -0.0731652 0)
(0.0540746 -0.0832038 0)
(0.0517808 -0.0933095 0)
(0.0493743 -0.103489 0)
(0.0468557 -0.113748 0)
(0.044226 -0.12409 0)
(0.0414865 -0.134519 0)
(0.0386389 -0.145036 0)
(0.0356854 -0.155637 0)
(0.0872092 0.0943047 0)
(0.086787 0.0844626 0)
(0.0862872 0.0746668 0)
(0.0857038 0.0649099 0)
(0.0850313 0.0551854 0)
(0.0842648 0.0454873 0)
(0.0833998 0.0358096 0)
(0.0824324 0.0261468 0)
(0.0813592 0.0164931 0)
(0.0801769 0.00684288 0)
(0.0788831 -0.00280992 0)
(0.0774754 -0.0124715 0)
(0.0759518 -0.0221483 0)
(0.0743107 -0.0318473 0)
(0.0725507 -0.0415755 0)
(0.0706707 -0.0513404 0)
(0.0686698 -0.0611496 0)
(0.0665473 -0.071011 0)
(0.0643029 -0.080932 0)
(0.0619362 -0.0909202 0)
(0.0594473 -0.100982 0)
(0.0568364 -0.111124 0)
(0.0541039 -0.121351 0)
(0.0512507 -0.131666 0)
(0.0482778 -0.142069 0)
(0.0451869 -0.15256 0)
(0.0975405 0.0946649 0)
(0.0971706 0.0848994 0)
(0.0967187 0.0751864 0)
(0.0961784 0.0655184 0)
(0.095544 0.0558881 0)
(0.0948101 0.046289 0)
(0.0939721 0.0367147 0)
(0.0930257 0.0271591 0)
(0.091967 0.017616 0)
(0.0907929 0.00807942 0)
(0.0895003 -0.00145715 0)
(0.0880867 -0.0110002 0)
(0.0865499 -0.0205567 0)
(0.0848879 -0.0301336 0)
(0.0830992 -0.0397383 0)
(0.0811823 -0.0493787 0)
(0.0791361 -0.0590625 0)
(0.0769595 -0.0687976 0)
(0.0746519 -0.078592 0)
(0.0722126 -0.0884532 0)
(0.0696412 -0.0983882 0)
(0.0669374 -0.108403 0)
(0.0641011 -0.118503 0)
(0.0611326 -0.128692 0)
(0.0580324 -0.138971 0)
(0.0548012 -0.149338 0)
(0.107963 0.0949694 0)
(0.107648 0.0852847 0)
(0.107247 0.0756592 0)
(0.106753 0.0660849 0)
(0.106159 0.0565541 0)
(0.10546 0.0470595 0)
(0.104652 0.0375945 0)
(0.103729 0.0281523 0)
(0.102688 0.0187263 0)
(0.101524 0.00931008 0)
(0.100235 -0.00010324 0)
(0.0988181 -0.00952054 0)
(0.0972703 -0.018949 0)
(0.0955895 -0.028396 0)
(0.0937739 -0.0378693 0)
(0.0918217 -0.0473766 0)
(0.0897315 -0.0569262 0)
(0.0875019 -0.0665261 0)
(0.0851319 -0.0761843 0)
(0.0826202 -0.0859086 0)
(0.0799661 -0.0957062 0)
(0.0771687 -0.105583 0)
(0.0742275 -0.115545 0)
(0.0711421 -0.125596 0)
(0.0679121 -0.135737 0)
(0.0645378 -0.145967 0)
(0.118486 0.095215 0)
(0.11823 0.0856156 0)
(0.117882 0.0760824 0)
(0.117437 0.0666068 0)
(0.116887 0.0571806 0)
(0.116226 0.0477963 0)
(0.11545 0.0384464 0)
(0.114553 0.0291238 0)
(0.113532 0.0198215 0)
(0.112381 0.0105324 0)
(0.111098 0.00124943 0)
(0.10968 -0.00803469 0)
(0.108123 -0.0173275 0)
(0.106426 -0.0266366 0)
(0.104585 -0.0359699 0)
(0.102599 -0.0453357 0)
(0.100467 -0.054742 0)
(0.0981849 -0.0641972 0)
(0.095753 -0.0737095 0)
(0.0931692 -0.0832865 0)
(0.0904322 -0.0929358 0)
(0.0875406 -0.102664 0)
(0.0844932 -0.112476 0)
(0.0812889 -0.122375 0)
(0.0779268 -0.132365 0)
(0.0744063 -0.142444 0)
(0.12912 0.0953982 0)
(0.128925 0.0858888 0)
(0.128635 0.0764528 0)
(0.128241 0.067081 0)
(0.127737 0.057765 0)
(0.127118 0.0484965 0)
(0.126377 0.0392677 0)
(0.125509 0.030071 0)
(0.12451 0.0208989 0)
(0.123375 0.0117439 0)
(0.122101 0.00259848 0)
(0.120684 -0.00654494 0)
(0.11912 -0.0156942 0)
(0.117408 -0.0248572 0)
(0.115544 -0.0340421 0)
(0.113526 -0.0432573 0)
(0.111352 -0.052511 0)
(0.109019 -0.0618118 0)
(0.106526 -0.0711678 0)
(0.10387 -0.0805869 0)
(0.10105 -0.0900765 0)
(0.0980631 -0.0996432 0)
(0.0949081 -0.109292 0)
(0.0915829 -0.119028 0)
(0.0880861 -0.128853 0)
(0.0844161 -0.138766 0)
(0.139872 0.0955149 0)
(0.139744 0.0861007 0)
(0.139515 0.076767 0)
(0.139176 0.0675045 0)
(0.138723 0.0583041 0)
(0.138147 0.0491573 0)
(0.137444 0.0400557 0)
(0.136608 0.0309912 0)
(0.135634 0.0219559 0)
(0.134517 0.012942 0)
(0.133254 0.00394153 0)
(0.13184 -0.0050535 0)
(0.130272 -0.0140512 0)
(0.128547 -0.0230597 0)
(0.126661 -0.0320874 0)
(0.124613 -0.0411428 0)
(0.122398 -0.0502343 0)
(0.120015 -0.0593704 0)
(0.117461 -0.0685595 0)
(0.114733 -0.0778094 0)
(0.111829 -0.0871276 0)
(0.108746 -0.0965206 0)
(0.105482 -0.105994 0)
(0.102034 -0.115552 0)
(0.098399 -0.125197 0)
(0.0945759 -0.134928 0)
(0.150753 0.0955603 0)
(0.150696 0.0862469 0)
(0.150532 0.0770212 0)
(0.150253 0.0678736 0)
(0.149853 0.0587947 0)
(0.149324 0.0497755 0)
(0.148662 0.0408074 0)
(0.147861 0.0318817 0)
(0.146915 0.0229901 0)
(0.145819 0.0141244 0)
(0.144569 0.00527632 0)
(0.14316 -0.00356249 0)
(0.14159 -0.0124004 0)
(0.139853 -0.0212458 0)
(0.137948 -0.0301072 0)
(0.13587 -0.0389933 0)
(0.133616 -0.0479126 0)
(0.131183 -0.0568736 0)
(0.128568 -0.0658847 0)
(0.125768 -0.0749538 0)
(0.122779 -0.0840882 0)
(0.119599 -0.0932946 0)
(0.116223 -0.102578 0)
(0.112649 -0.111944 0)
(0.108874 -0.121393 0)
(0.104894 -0.130927 0)
(0.100707 -0.140543 0)
(0.0963096 -0.150238 0)
(0.0917014 -0.160003 0)
(0.161767 0.0955286 0)
(0.161788 0.0863222 0)
(0.161694 0.0772107 0)
(0.161479 0.0681842 0)
(0.161137 0.059233 0)
(0.16066 0.0503479 0)
(0.160042 0.0415198 0)
(0.159278 0.0327396 0)
(0.158362 0.0239988 0)
(0.15729 0.0152886 0)
(0.156055 0.00660059 0)
(0.154655 -0.00207395 0)
(0.153083 -0.0107436 0)
(0.151338 -0.019417 0)
(0.149413 -0.0281029 0)
(0.147307 -0.0368098 0)
(0.145014 -0.0455465 0)
(0.142532 -0.0543216 0)
(0.139856 -0.0631432 0)
(0.136983 -0.0720192 0)
(0.133908 -0.080957 0)
(0.130628 -0.0899632 0)
(0.12714 -0.0990431 0)
(0.123437 -0.108201 0)
(0.119518 -0.117439 0)
(0.115377 -0.126759 0)
(0.111011 -0.136158 0)
(0.106417 -0.145632 0)
(0.101592 -0.155176 0)
(0.172919 0.0954127 0)
(0.173024 0.0863206 0)
(0.173007 0.0773302 0)
(0.172862 0.0684316 0)
(0.172582 0.059615 0)
(0.17216 0.0508707 0)
(0.171591 0.0421894 0)
(0.170868 0.0335619 0)
(0.169986 0.0249792 0)
(0.168939 0.0164322 0)
(0.167723 0.00791216 0)
(0.166332 -0.000589833 0)
(0.164762 -0.00908252 0)
(0.163008 -0.0175748 0)
(0.161066 -0.0260754 0)
(0.158931 -0.0345931 0)
(0.1566 -0.0431365 0)
(0.154069 -0.0517142 0)
(0.151331 -0.0603343 0)
(0.148384 -0.0690048 0)
(0.145222 -0.0777326 0)
(0.141842 -0.0865244 0)
(0.138237 -0.0953855 0)
(0.134403 -0.10432 0)
(0.130336 -0.113331 0)
(0.126029 -0.122418 0)
(0.12148 -0.131581 0)
(0.116683 -0.140817 0)
(0.111636 -0.150119 0)
(0.184207 0.0952042 0)
(0.184405 0.0862347 0)
(0.184473 0.0773733 0)
(0.184404 0.0686102 0)
(0.184193 0.0599355 0)
(0.183831 0.0513395 0)
(0.183315 0.0428126 0)
(0.182637 0.0343453 0)
(0.181792 0.0259284 0)
(0.180774 0.0175526 0)
(0.179578 0.0092089 0)
(0.178198 0.000888144 0)
(0.176631 -0.00741854 0)
(0.17487 -0.0157201 0)
(0.172911 -0.0240255 0)
(0.170749 -0.0323434 0)
(0.16838 -0.0406824 0)
(0.165798 -0.0490511 0)
(0.162999 -0.0574574 0)
(0.159976 -0.065909 0)
(0.156726 -0.0744131 0)
(0.153242 -0.0829759 0)
(0.149518 -0.0916026 0)
(0.14555 -0.100298 0)
(0.14133 -0.109063 0)
(0.136854 -0.117901 0)
(0.132116 -0.126809 0)
(0.127112 -0.135786 0)
(0.121837 -0.144826 0)
(0.195626 0.0948931 0)
(0.195928 0.0860556 0)
(0.196089 0.0773322 0)
(0.196105 0.0687132 0)
(0.195968 0.0601888 0)
(0.195673 0.0517493 0)
(0.195214 0.0433849 0)
(0.194585 0.0350861 0)
(0.193781 0.0268433 0)
(0.192795 0.0186472 0)
(0.191621 0.0104886 0)
(0.190256 0.00235821 0)
(0.188692 -0.00575301 0)
(0.186926 -0.0138541 0)
(0.184951 -0.0219538 0)
(0.182762 -0.0300609 0)
(0.180354 -0.0381841 0)
(0.177722 -0.0463314 0)
(0.174859 -0.0545111 0)
(0.17176 -0.0627304 0)
(0.168419 -0.0709963 0)
(0.164829 -0.0793149 0)
(0.160983 -0.0876914 0)
(0.156876 -0.0961298 0)
(0.152501 -0.104633 0)
(0.147851 -0.113202 0)
(0.14292 -0.121836 0)
(0.137702 -0.130534 0)
(0.132193 -0.139291 0)
(0.207163 0.0944673 0)
(0.207581 0.0857729 0)
(0.207846 0.0771979 0)
(0.207955 0.0687328 0)
(0.207901 0.0603681 0)
(0.20768 0.0520942 0)
(0.207285 0.0439013 0)
(0.20671 0.0357799 0)
(0.20595 0.0277203 0)
(0.204999 0.019713 0)
(0.203852 0.0117488 0)
(0.202502 0.00381844 0)
(0.200944 -0.00408727 0)
(0.199173 -0.0119774 0)
(0.197183 -0.0198606 0)
(0.194967 -0.0277456 0)
(0.19252 -0.0356408 0)
(0.189836 -0.0435543 0)
(0.186909 -0.0514939 0)
(0.183731 -0.0594668 0)
(0.180296 -0.0674797 0)
(0.176598 -0.0755386 0)
(0.172628 -0.0836483 0)
(0.168379 -0.091813 0)
(0.163844 -0.100035 0)
(0.159016 -0.108317 0)
(0.153886 -0.116657 0)
(0.14845 -0.125055 0)
(0.142702 -0.133509 0)
(0.218797 0.093913 0)
(0.219344 0.0853744 0)
(0.219726 0.0769594 0)
(0.219939 0.0686595 0)
(0.219978 0.0604653 0)
(0.219838 0.0523673 0)
(0.219513 0.044356 0)
(0.218999 0.0364218 0)
(0.218289 0.0285552 0)
(0.217377 0.0207468 0)
(0.216259 0.012987 0)
(0.214927 0.0052669 0)
(0.213377 -0.00242269 0)
(0.211602 -0.0100909 0)
(0.209597 -0.0177461 0)
(0.207354 -0.025397 0)
(0.204868 -0.0330518 0)
(0.202131 -0.0407183 0)
(0.199138 -0.0484041 0)
(0.19588 -0.0561162 0)
(0.19235 -0.063861 0)
(0.18854 -0.071644 0)
(0.184442 -0.0794703 0)
(0.180048 -0.0873435 0)
(0.175349 -0.0952666 0)
(0.170339 -0.103241 0)
(0.165008 -0.111268 0)
(0.15935 -0.119346 0)
(0.153358 -0.127475 0)
(0.230497 0.0932142 0)
(0.231189 0.0848457 0)
(0.231702 0.0766045 0)
(0.232032 0.0684825 0)
(0.232174 0.0604708 0)
(0.232125 0.0525604 0)
(0.231879 0.044742 0)
(0.231432 0.0370061 0)
(0.230777 0.0293434 0)
(0.22991 0.0217445 0)
(0.228824 0.0142002 0)
(0.227514 0.00670128 0)
(0.225973 -0.000761183 0)
(0.224196 -0.0081956 0)
(0.222176 -0.0156108 0)
(0.219907 -0.0230151 0)
(0.217381 -0.0304164 0)
(0.214591 -0.0378224 0)
(0.21153 -0.0452402 0)
(0.208189 -0.0526765 0)
(0.204561 -0.0601375 0)
(0.200637 -0.0676284 0)
(0.196409 -0.0751541 0)
(0.191867 -0.0827181 0)
(0.187003 -0.0903235 0)
(0.181807 -0.097972 0)
(0.176271 -0.105665 0)
(0.170388 -0.113402 0)
(0.164152 -0.121185 0)
(0.24222 0.0923529 0)
(0.243076 0.0841708 0)
(0.243736 0.0761187 0)
(0.244197 0.0681891 0)
(0.244455 0.0603738 0)
(0.244508 0.0526641 0)
(0.24435 0.0450512 0)
(0.243978 0.0375259 0)
(0.243385 0.0300791 0)
(0.242567 0.0227017 0)
(0.241519 0.0153846 0)
(0.240233 0.00811901 0)
(0.238705 0.000896049 0)
(0.236928 -0.00629241 0)
(0.234895 -0.013455 0)
(0.232599 -0.0205996 0)
(0.230032 -0.027734 0)
(0.227188 -0.0348653 0)
(0.224059 -0.0420005 0)
(0.220634 -0.0491458 0)
(0.216907 -0.0563071 0)
(0.212868 -0.0634895 0)
(0.208507 -0.0706973 0)
(0.203815 -0.0779343 0)
(0.198782 -0.0852034 0)
(0.1934 -0.0925068 0)
(0.187658 -0.0998462 0)
(0.18155 -0.107223 0)
(0.175068 -0.114639 0)
(0.253912 0.0913091 0)
(0.254952 0.0833319 0)
(0.255777 0.0754862 0)
(0.256384 0.0677652 0)
(0.256773 0.0601617 0)
(0.25694 0.0526675 0)
(0.256881 0.0452742 0)
(0.256593 0.0379731 0)
(0.256071 0.0307556 0)
(0.255309 0.0236128 0)
(0.254303 0.016536 0)
(0.253047 0.0095167 0)
(0.251534 0.0025465 0)
(0.249759 -0.00438299 0)
(0.247714 -0.0112796 0)
(0.245393 -0.0181509 0)
(0.242787 -0.0250043 0)
(0.239889 -0.0318465 0)
(0.23669 -0.038684 0)
(0.233181 -0.0455229 0)
(0.229354 -0.0523685 0)
(0.225198 -0.0592256 0)
(0.220704 -0.0660985 0)
(0.215861 -0.0729907 0)
(0.21066 -0.0799054 0)
(0.205091 -0.0868451 0)
(0.199146 -0.0938122 0)
(0.192815 -0.100809 0)
(0.186092 -0.10784 0)
(0.265508 0.0900615 0)
(0.266752 0.0823094 0)
(0.26776 0.0746892 0)
(0.268532 0.0671951 0)
(0.269067 0.0598205 0)
(0.269362 0.0525582 0)
(0.269414 0.0454003 0)
(0.269221 0.0383387 0)
(0.268777 0.0313651 0)
(0.26808 0.0244713 0)
(0.267123 0.0176489 0)
(0.265901 0.0108898 0)
(0.264408 0.00418607 0)
(0.262639 -0.00247027 0)
(0.260585 -0.00908668 0)
(0.25824 -0.0156703 0)
(0.255596 -0.022228 0)
(0.252645 -0.0287661 0)
(0.249377 -0.0352908 0)
(0.245785 -0.0418076 0)
(0.241858 -0.0483214 0)
(0.237586 -0.0548369 0)
(0.23296 -0.061358 0)
(0.227968 -0.0678883 0)
(0.222602 -0.074431 0)
(0.216851 -0.0809893 0)
(0.210705 -0.0875663 0)
(0.204158 -0.094166 0)
(0.197202 -0.100793 0)
(0.276927 0.0885875 0)
(0.278397 0.0810826 0)
(0.27961 0.0737088 0)
(0.280564 0.0664615 0)
(0.281261 0.059335 0)
(0.281699 0.0523227 0)
(0.281876 0.0454176 0)
(0.281789 0.0386121 0)
(0.281435 0.0318987 0)
(0.28081 0.0252695 0)
(0.27991 0.0187169 0)
(0.278729 0.0122331 0)
(0.277262 0.00581068 0)
(0.275503 -0.000557774 0)
(0.273444 -0.00687902 0)
(0.271079 -0.0131599 0)
(0.268399 -0.0194069 0)
(0.265397 -0.0256258 0)
(0.262064 -0.0318222 0)
(0.25839 -0.0380012 0)
(0.254366 -0.0441675 0)
(0.249982 -0.0503252 0)
(0.245227 -0.0564784 0)
(0.240092 -0.0626305 0)
(0.234566 -0.0687851 0)
(0.22864 -0.0749457 0)
(0.222305 -0.0811166 0)
(0.215553 -0.0873031 0)
(0.208379 -0.0935122 0)
(0.288077 0.0868639 0)
(0.289796 0.0796298 0)
(0.291233 0.0725253 0)
(0.292389 0.0655465 0)
(0.293266 0.0586887 0)
(0.293863 0.0519462 0)
(0.294178 0.0453128 0)
(0.294211 0.0387817 0)
(0.293958 0.0323459 0)
(0.293417 0.0259985 0)
(0.292582 0.0197321 0)
(0.29145 0.0135398 0)
(0.290016 0.00741468 0)
(0.288273 0.00134988 0)
(0.286214 -0.00466078 0)
(0.283834 -0.0106237 0)
(0.281124 -0.0165446 0)
(0.278076 -0.0224289 0)
(0.274681 -0.0282817 0)
(0.270931 -0.0341077 0)
(0.266816 -0.0399111 0)
(0.262326 -0.045696 0)
(0.257452 -0.0514661 0)
(0.252182 -0.0572252 0)
(0.246509 -0.062977 0)
(0.240422 -0.068726 0)
(0.233914 -0.0744772 0)
(0.226978 -0.0802376 0)
(0.219608 -0.0860164 0)
(0.298854 0.0848675 0)
(0.300844 0.0779296 0)
(0.302527 0.0711184 0)
(0.303904 0.0644313 0)
(0.304979 0.0578644 0)
(0.305751 0.051413 0)
(0.306221 0.0450717 0)
(0.306387 0.0388345 0)
(0.306248 0.0326954 0)
(0.3058 0.0266478 0)
(0.305042 0.0206854 0)
(0.303969 0.0148018 0)
(0.302575 0.0089906 0)
(0.300856 0.00324588 0)
(0.298806 -0.00243835 0)
(0.296418 -0.00806756 0)
(0.293685 -0.013647 0)
(0.290599 -0.0191817 0)
(0.287152 -0.024676 0)
(0.283335 -0.0301344 0)
(0.279139 -0.0355608 0)
(0.274555 -0.040959 0)
(0.269575 -0.0463328 0)
(0.264187 -0.0516861 0)
(0.258385 -0.0570232 0)
(0.25216 -0.0623493 0)
(0.245505 -0.0676707 0)
(0.238414 -0.0729959 0)
(0.230884 -0.0783364 0)
(0.309146 0.0825763 0)
(0.311428 0.0759608 0)
(0.313375 0.0694683 0)
(0.314993 0.0630973 0)
(0.316283 0.0568448 0)
(0.317247 0.050707 0)
(0.317887 0.0446794 0)
(0.318201 0.038757 0)
(0.318189 0.0329344 0)
(0.317849 0.0272059 0)
(0.317179 0.0215659 0)
(0.316176 0.0160088 0)
(0.314834 0.0105288 0)
(0.313151 0.00512072 0)
(0.31112 -0.000220916 0)
(0.308735 -0.00550078 0)
(0.30599 -0.0107237 0)
(0.302878 -0.0158942 0)
(0.299391 -0.0210162 0)
(0.295523 -0.0260938 0)
(0.291264 -0.0311307 0)
(0.286606 -0.0361306 0)
(0.281541 -0.0410974 0)
(0.276062 -0.0460353 0)
(0.270161 -0.0509492 0)
(0.263832 -0.0558452 0)
(0.257068 -0.0607309 0)
(0.249866 -0.0656166 0)
(0.242224 -0.0705159 0)
(0.318831 0.0799698 0)
(0.321423 0.0737035 0)
(0.323655 0.0675559 0)
(0.32553 0.0615262 0)
(0.327053 0.0556125 0)
(0.328227 0.0498117 0)
(0.329052 0.0441204 0)
(0.329529 0.0385343 0)
(0.32966 0.0330489 0)
(0.329442 0.0276594 0)
(0.328874 0.0223609 0)
(0.327954 0.0171484 0)
(0.326679 0.0120171 0)
(0.325046 0.00696211 0)
(0.323049 0.00197889 0)
(0.320683 -0.00293683 0)
(0.317944 -0.00778928 0)
(0.314826 -0.0125825 0)
(0.311322 -0.0173202 0)
(0.307425 -0.022006 0)
(0.30313 -0.0266436 0)
(0.298428 -0.0312367 0)
(0.293315 -0.0357894 0)
(0.287783 -0.0403063 0)
(0.281826 -0.0447931 0)
(0.275442 -0.0492568 0)
(0.268624 -0.0537064 0)
(0.261373 -0.0581538 0)
(0.253686 -0.0626148 0)
(0.327784 0.0770298 0)
(0.330703 0.07114 0)
(0.333235 0.0653637 0)
(0.335385 0.059701 0)
(0.337158 0.0541507 0)
(0.338557 0.0487108 0)
(0.339584 0.0433786 0)
(0.340242 0.0381508 0)
(0.340531 0.0330235 0)
(0.340453 0.0279929 0)
(0.340005 0.0230546 0)
(0.339188 0.0182046 0)
(0.337999 0.0134386 0)
(0.336436 0.00875241 0)
(0.334495 0.00414211 0)
(0.332174 -0.000396286 0)
(0.329468 -0.00486627 0)
(0.326373 -0.00927159 0)
(0.322885 -0.0136157 0)
(0.318998 -0.0179022 0)
(0.314707 -0.0221346 0)
(0.310008 -0.0263168 0)
(0.304897 -0.0304531 0)
(0.299369 -0.0345489 0)
(0.29342 -0.0386103 0)
(0.28705 -0.0426455 0)
(0.280255 -0.0466648 0)
(0.273035 -0.0506817 0)
(0.265393 -0.0547137 0)
(0.335879 0.073741 0)
(0.33914 0.0682545 0)
(0.341988 0.0628756 0)
(0.344429 0.0576051 0)
(0.346468 0.0524427 0)
(0.348111 0.0473872 0)
(0.349359 0.0424366 0)
(0.350217 0.0375883 0)
(0.350687 0.0328393 0)
(0.35077 0.0281864 0)
(0.350467 0.0236262 0)
(0.349779 0.019155 0)
(0.348704 0.0147693 0)
(0.347244 0.0104654 0)
(0.345395 0.00623996 0)
(0.343156 0.00208937 0)
(0.340525 -0.0019896 0)
(0.3375 -0.00600022 0)
(0.334078 -0.00994591 0)
(0.330256 -0.0138301 0)
(0.326032 -0.0176566 0)
(0.321404 -0.0214293 0)
(0.316369 -0.0251531 0)
(0.310925 -0.0288336 0)
(0.305072 -0.032478 0)
(0.29881 -0.0360953 0)
(0.292138 -0.0396968 0)
(0.285058 -0.0432975 0)
(0.277574 -0.0469164 0)
(0.343005 0.0700902 0)
(0.346622 0.0650325 0)
(0.349803 0.0600758 0)
(0.352553 0.0552216 0)
(0.35488 0.0504701 0)
(0.356788 0.0458209 0)
(0.358283 0.0412725 0)
(0.359369 0.0368232 0)
(0.36005 0.0324707 0)
(0.360329 0.0282122 0)
(0.360208 0.024045 0)
(0.359689 0.0199661 0)
(0.358775 0.0159723 0)
(0.357466 0.0120607 0)
(0.355763 0.00822794 0)
(0.353665 0.00447111 0)
(0.351174 0.000786962 0)
(0.34829 -0.00282748 0)
(0.345011 -0.00637553 0)
(0.341338 -0.00986068 0)
(0.33727 -0.0132867 0)
(0.332808 -0.016658 0)
(0.327952 -0.0199797 0)
(0.322703 -0.0232579 0)
(0.317062 -0.0265004 0)
(0.311029 -0.029717 0)
(0.304609 -0.0329199 0)
(0.297804 -0.0361249 0)
(0.290617 -0.0393521 0)
(0.349098 0.0660629 0)
(0.353093 0.0614569 0)
(0.35663 0.0569445 0)
(0.359718 0.0525277 0)
(0.362364 0.0482073 0)
(0.364574 0.0439831 0)
(0.366356 0.0398544 0)
(0.367715 0.03582 0)
(0.368657 0.031878 0)
(0.369186 0.0280264 0)
(0.369308 0.0242628 0)
(0.369025 0.0205847 0)
(0.368342 0.0169895 0)
(0.367263 0.0134743 0)
(0.365789 0.0100366 0)
(0.363924 0.00667326 0)
(0.361669 0.00338154 0)
(0.359028 0.000158329 0)
(0.356003 -0.00299953 0)
(0.352595 -0.00609553 0)
(0.348808 -0.0091336 0)
(0.344642 -0.0121183 0)
(0.340101 -0.0150549 0)
(0.335188 -0.0179502 0)
(0.329905 -0.0208121 0)
(0.324255 -0.0236509 0)
(0.318242 -0.0264793 0)
(0.31187 -0.0293136 0)
(0.305142 -0.0321742 0)
(0.354241 0.0616349 0)
(0.358652 0.0574991 0)
(0.36259 0.0534486 0)
(0.366066 0.0494855 0)
(0.369088 0.0456109 0)
(0.371664 0.0418252 0)
(0.373803 0.038128 0)
(0.375512 0.0345185 0)
(0.376797 0.0309953 0)
(0.377667 0.0275568 0)
(0.378128 0.024201 0)
(0.378184 0.0209259 0)
(0.377844 0.0177291 0)
(0.377111 0.0146081 0)
(0.37599 0.0115606 0)
(0.374488 0.00858385 0)
(0.372607 0.00567515 0)
(0.370353 0.00283158 0)
(0.36773 5.00114e-05 0)
(0.364742 -0.00267304 0)
(0.361393 -0.00534153 0)
(0.357687 -0.00796 0)
(0.353629 -0.0105339 0)
(0.349222 -0.01307 0)
(0.344471 -0.0155765 0)
(0.339378 -0.0180637 0)
(0.333949 -0.0205442 0)
(0.328186 -0.0230342 0)
(0.322092 -0.0255539 0)
(0.358886 0.0567566 0)
(0.36379 0.0531026 0)
(0.368215 0.0495244 0)
(0.372172 0.046024 0)
(0.375671 0.042603 0)
(0.378721 0.0392618 0)
(0.381332 0.0360005 0)
(0.383513 0.0328186 0)
(0.385274 0.029715 0)
(0.386622 0.0266885 0)
(0.387566 0.0237376 0)
(0.388113 0.0208604 0)
(0.388271 0.018055 0)
(0.388047 0.0153192 0)
(0.387448 0.012651 0)
(0.38648 0.0100478 0)
(0.38515 0.00750724 0)
(0.383463 0.00502657 0)
(0.381425 0.00260282 0)
(0.379041 0.00023266 0)
(0.376317 -0.00208778 0)
(0.373259 -0.00436309 0)
(0.36987 -0.00659838 0)
(0.366155 -0.00880021 0)
(0.362119 -0.0109766 0)
(0.357765 -0.0131375 0)
(0.353097 -0.0152951 0)
(0.348116 -0.0174649 0)
(0.342825 -0.0196663 0)
(0.364319 0.0513299 0)
(0.36985 0.0481608 0)
(0.374904 0.0450568 0)
(0.379491 0.0420201 0)
(0.383623 0.0390522 0)
(0.38731 0.0361539 0)
(0.390564 0.0333254 0)
(0.393393 0.0305665 0)
(0.395809 0.0278767 0)
(0.39782 0.0252549 0)
(0.399436 0.0227 0)
(0.400665 0.0202105 0)
(0.401517 0.0177848 0)
(0.401998 0.0154213 0)
(0.402118 0.013118 0)
(0.401882 0.0108729 0)
(0.401299 0.00868369 0)
(0.400374 0.00654805 0)
(0.399114 0.00446328 0)
(0.397526 0.00242635 0)
(0.395614 0.000433726 0)
(0.393384 -0.00151889 0)
(0.390841 -0.00343665 0)
(0.38799 -0.00532534 0)
(0.384834 -0.0071924 0)
(0.381376 -0.00904704 0)
(0.377618 -0.0109007 0)
(0.373562 -0.0127678 0)
(0.369207 -0.0146661 0)
(0.373422 0.0451934 0)
(0.379763 0.0425049 0)
(0.385633 0.0398703 0)
(0.391042 0.0372918 0)
(0.396002 0.0347709 0)
(0.400524 0.0323088 0)
(0.404618 0.0299058 0)
(0.408294 0.0275621 0)
(0.411564 0.0252773 0)
(0.414436 0.0230509 0)
(0.416919 0.0208822 0)
(0.419024 0.0187699 0)
(0.420758 0.016713 0)
(0.422131 0.0147101 0)
(0.423149 0.0127597 0)
(0.42382 0.01086 0)
(0.424152 0.00900931 0)
(0.42415 0.0072055 0)
(0.423823 0.00544627 0)
(0.423175 0.00372896 0)
(0.422212 0.0020505 0)
(0.420939 0.000407193 0)
(0.419361 -0.00120576 0)
(0.417483 -0.00279379 0)
(0.415306 -0.0043633 0)
(0.412833 -0.00592248 0)
(0.410066 -0.00748164 0)
(0.407004 -0.00905362 0)
(0.403645 -0.0106544 0)
(0.391604 0.0381503 0)
(0.398916 0.0359357 0)
(0.40576 0.0337643 0)
(0.412147 0.0316381 0)
(0.418087 0.0295589 0)
(0.42359 0.0275277 0)
(0.428667 0.0255452 0)
(0.433326 0.0236119 0)
(0.437578 0.0217278 0)
(0.441433 0.0198925 0)
(0.444898 0.0181057 0)
(0.447984 0.0163666 0)
(0.450698 0.0146745 0)
(0.453048 0.0130284 0)
(0.455043 0.011427 0)
(0.456689 0.00986908 0)
(0.457995 0.00835321 0)
(0.458965 0.0068777 0)
(0.459608 0.00544068 0)
(0.459929 0.00403987 0)
(0.459933 0.00267264 0)
(0.459625 0.00133568 0)
(0.45901 2.52543e-05 0)
(0.458092 -0.00126379 0)
(0.456874 -0.00253682 0)
(0.455358 -0.00380084 0)
(0.453543 -0.00506476 0)
(0.45143 -0.00633965 0)
(0.449014 -0.00763925 0)
(0.427378 0.030086 0)
(0.435631 0.0283439 0)
(0.443414 0.0266353 0)
(0.450735 0.0249624 0)
(0.457604 0.0233267 0)
(0.464029 0.0217293 0)
(0.470019 0.0201712 0)
(0.475585 0.0186528 0)
(0.480734 0.0171742 0)
(0.485477 0.0157356 0)
(0.489821 0.0143368 0)
(0.493776 0.0129772 0)
(0.497349 0.0116564 0)
(0.50055 0.0103736 0)
(0.503386 0.00912802 0)
(0.505864 0.00791855 0)
(0.507993 0.00674405 0)
(0.509779 0.00560317 0)
(0.51123 0.00449462 0)
(0.512351 0.00341665 0)
(0.513148 0.00236707 0)
(0.513628 0.00134251 0)
(0.513795 0.000339994 0)
(0.513653 -0.000644172 0)
(0.513206 -0.00161459 0)
(0.512457 -0.00257725 0)
(0.511405 -0.00353947 0)
(0.510049 -0.00451033 0)
(0.508387 -0.00550106 0)
(0.491612 0.0211777 0)
(0.500352 0.0199147 0)
(0.508617 0.0186773 0)
(0.516414 0.017467 0)
(0.52375 0.0162852 0)
(0.530636 0.0151329 0)
(0.53708 0.0140108 0)
(0.543091 0.0129195 0)
(0.548678 0.0118591 0)
(0.55385 0.0108297 0)
(0.558616 0.00983118 0)
(0.562987 0.00886329 0)
(0.56697 0.00792563 0)
(0.570575 0.00701766 0)
(0.573811 0.00613875 0)
(0.576686 0.00528802 0)
(0.579209 0.00446446 0)
(0.581388 0.00366648 0)
(0.583231 0.00289353 0)
(0.584745 0.00214466 0)
(0.585937 0.00141861 0)
(0.586814 0.000710967 0)
(0.587382 2.04372e-05 0)
(0.587647 -0.000654655 0)
(0.587612 -0.00131888 0)
(0.587281 -0.0019773 0)
(0.586655 -0.00263552 0)
(0.585733 -0.00330036 0)
(0.584512 -0.00398034 0)
(0.594381 0.0120991 0)
(0.602536 0.0113216 0)
(0.610231 0.010562 0)
(0.617473 0.0098214 0)
(0.624273 0.00910063 0)
(0.630637 0.00840032 0)
(0.636577 0.00772091 0)
(0.642102 0.00706266 0)
(0.647221 0.00642567 0)
(0.651945 0.0058099 0)
(0.656284 0.0052152 0)
(0.660248 0.00464131 0)
(0.663847 0.00408788 0)
(0.667091 0.0035545 0)
(0.669991 0.0030407 0)
(0.672555 0.00254591 0)
(0.674793 0.00206959 0)
(0.676715 0.00160959 0)
(0.678331 0.00116519 0)
(0.679649 0.000736219 0)
(0.680673 0.000320686 0)
(0.681414 -8.00112e-05 0)
(0.68188 -0.00046863 0)
(0.682076 -0.000847834 0)
(0.682006 -0.00122077 0)
(0.681673 -0.00159067 0)
(0.68108 -0.00196122 0)
(0.680226 -0.00233697 0)
(0.67911 -0.00272358 0)
(0.738917 0.00431907 0)
(0.744846 0.00398899 0)
(0.750397 0.00366888 0)
(0.755578 0.00335913 0)
(0.760397 0.00306001 0)
(0.764866 0.00277166 0)
(0.768992 0.00249416 0)
(0.772787 0.00222748 0)
(0.77626 0.00197153 0)
(0.779421 0.00172615 0)
(0.782281 0.00149112 0)
(0.784849 0.0012662 0)
(0.787137 0.00105101 0)
(0.789152 0.000845295 0)
(0.790906 0.000648458 0)
(0.792408 0.000460618 0)
(0.793664 0.000281028 0)
(0.794685 0.000112158 0)
(0.795481 -4.88874e-05 0)
(0.796059 -0.000205068 0)
(0.796426 -0.000357586 0)
(0.796591 -0.000503166 0)
(0.796556 -0.000643477 0)
(0.796328 -0.000781018 0)
(0.79591 -0.000916896 0)
(0.795305 -0.00105241 0)
(0.794516 -0.00118944 0)
(0.79354 -0.00133037 0)
(0.792376 -0.00147811 0)
(0.913622 0.000495424 0)
(0.915683 0.000432316 0)
(0.917568 0.000372191 0)