/*--------------------------------*- C++ -*----------------------------------*\
  =========                 |
  \\      /  F ield         | OpenFOAM: The Open Source CFD Toolbox
   \\    /   O peration     | Website:  https://openfoam.org
    \\  /    A nd           | Version:  9
     \\/     M anipulation  |
\*---------------------------------------------------------------------------*/
FoamFile
{
    format      ascii;
    class       volVectorField;
    location    "0";
    object      vorticity;
}
// * * * * * * * * * * * * * * * * * * * * * * * * * * * * * * * * * * * * * //

dimensions      [0 0 -1 0 0 0 0];

internalField   uniform (0 0 0);

boundaryField
{
    movingWall
    {
        type            calculated;
        value           nonuniform List<vector> 0();
    }
    fixedWalls
    {
        type            calculated;
        value           uniform (0 0 0);
    }
    frontAndBack
    {
        type            empty;
    }
    procBoundary6to1
    {
        type            processor;
        value           uniform (0 0 0);
    }
    procBoundary6to3
    {
        type            processor;
        value           uniform (0 0 0);
    }
    procBoundary6to4
    {
        type            processor;
        value           uniform (0 0 0);
    }
    procBoundary6to5
    {
        type            processor;
        value           uniform (0 0 0);
    }
    procBoundary6to7
    {
        type            processor;
        value           uniform (0 0 0);
    }
}


// ************************************************************************* //
