/*--------------------------------*- C++ -*----------------------------------*\
  =========                 |
  \\      /  F ield         | OpenFOAM: The Open Source CFD Toolbox
   \\    /   O peration     | Website:  https://openfoam.org
    \\  /    A nd           | Version:  9
     \\/     M anipulation  |
\*---------------------------------------------------------------------------*/
FoamFile
{
    format      ascii;
    class       volScalarField;
    location    "1.5";
    object      p;
}
// * * * * * * * * * * * * * * * * * * * * * * * * * * * * * * * * * * * * * //

dimensions      [0 2 -2 0 0 0 0];

internalField   nonuniform List<scalar> 
1250
(
-0.0416517
-0.0439248
-0.0462708
-0.0486714
-0.0511087
-0.0535651
-0.0560237
-0.0584689
-0.0608863
-0.0632631
-0.0655881
-0.0678511
-0.0700434
-0.072157
-0.0741848
-0.0761205
-0.0779578
-0.079691
-0.0213894
-0.0212634
-0.0211828
-0.02113
-0.0211019
-0.0211044
-0.0211434
-0.0212243
-0.0213533
-0.0215367
-0.0217813
-0.0220945
-0.0224839
-0.022958
-0.0235255
-0.0241956
-0.0249778
-0.0258809
-0.0269134
-0.028082
-0.0293918
-0.0308453
-0.0324423
-0.0341793
-0.0360498
-0.0380442
-0.0401505
-0.042354
-0.0446379
-0.0469852
-0.0493781
-0.0517987
-0.05423
-0.0566557
-0.0590607
-0.0614314
-0.0637554
-0.066022
-0.0682211
-0.0703442
-0.0723834
-0.0743315
-0.0761819
-0.0779284
-0.0213736
-0.0212527
-0.0211728
-0.0211166
-0.0210799
-0.0210677
-0.0210847
-0.0211363
-0.0212282
-0.0213671
-0.0215601
-0.021815
-0.02214
-0.022544
-0.0230361
-0.023626
-0.0243234
-0.0251379
-0.0260782
-0.027152
-0.0283652
-0.0297215
-0.0312218
-0.0328641
-0.0346432
-0.036551
-0.0385766
-0.0407061
-0.0429243
-0.0452145
-0.0475592
-0.0499407
-0.0523416
-0.054745
-0.0571354
-0.0594982
-0.0618203
-0.0640896
-0.0662955
-0.0684284
-0.0704797
-0.0724414
-0.0743063
-0.0760677
-0.0213413
-0.0212267
-0.0211485
-0.0210895
-0.0210448
-0.021018
-0.0210129
-0.0210343
-0.0210878
-0.0211802
-0.0213191
-0.0215129
-0.0217703
-0.0221008
-0.0225142
-0.0230206
-0.0236303
-0.0243531
-0.0251986
-0.0261751
-0.0272893
-0.028546
-0.0299471
-0.0314921
-0.033177
-0.0349951
-0.0369366
-0.0389891
-0.0411382
-0.043368
-0.0456611
-0.0480002
-0.0503675
-0.052746
-0.0551193
-0.0574723
-0.0597908
-0.062062
-0.0642742
-0.066417
-0.0684808
-0.070457
-0.0723377
-0.0741155
-0.0212948
-0.0211876
-0.021112
-0.0210511
-0.0209989
-0.0209576
-0.0209301
-0.0209205
-0.0209341
-0.020978
-0.0210603
-0.02119
-0.0213767
-0.0216305
-0.0219619
-0.0223817
-0.0229006
-0.0235292
-0.0242776
-0.0251546
-0.026168
-0.0273232
-0.0286235
-0.0300692
-0.031658
-0.0333842
-0.0352393
-0.0372121
-0.0392892
-0.0414553
-0.0436937
-0.045987
-0.0483177
-0.0506683
-0.053022
-0.0553629
-0.0576762
-0.059948
-0.0621658
-0.0643183
-0.0663949
-0.0683863
-0.0702838
-0.0720795
-0.0212362
-0.0211378
-0.0210658
-0.0210037
-0.0209445
-0.0208889
-0.0208387
-0.0207972
-0.0207695
-0.020763
-0.0207863
-0.0208491
-0.0209619
-0.0211359
-0.0213822
-0.0217125
-0.0221381
-0.0226702
-0.0233195
-0.0240955
-0.0250066
-0.0260591
-0.0272573
-0.0286027
-0.0300939
-0.0317266
-0.0334935
-0.0353845
-0.0373871
-0.0394868
-0.0416675
-0.0439122
-0.0462033
-0.0485232
-0.0508547
-0.0531813
-0.0554874
-0.0577584
-0.0599808
-0.0621424
-0.0642318
-0.0662388
-0.0681539
-0.0699686
-0.0211677
-0.0210794
-0.021012
-0.0209495
-0.0208838
-0.0208141
-0.0207407
-0.0206662
-0.0205958
-0.0205368
-0.0204986
-0.0204917
-0.0205279
-0.020619
-0.0207775
-0.0210156
-0.0213456
-0.0217793
-0.022328
-0.0230019
-0.0238099
-0.0247592
-0.0258549
-0.0270995
-0.0284926
-0.030031
-0.0317085
-0.0335162
-0.0354425
-0.0374737
-0.0395944
-0.0417879
-0.0440367
-0.0463233
-0.0486301
-0.0509401
-0.053237
-0.0555055
-0.0577312
-0.0599011
-0.0620029
-0.0640255
-0.0659588
-0.0677933
-0.0210912
-0.0210146
-0.0209531
-0.0208909
-0.0208191
-0.020735
-0.0206378
-0.0205293
-0.0204143
-0.0203006
-0.0201984
-0.0201191
-0.0200757
-0.0200812
-0.0201491
-0.0202928
-0.0205253
-0.0208592
-0.0213064
-0.0218776
-0.0225824
-0.0234287
-0.0244222
-0.0255662
-0.0268615
-0.0283056
-0.0298937
-0.0316175
-0.0334665
-0.0354279
-0.0374868
-0.0396271
-0.0418315
-0.0440824
-0.0463622
-0.0486533
-0.0509389
-0.0532031
-0.0554308
-0.0576079
-0.0597214
-0.0617594
-0.0637109
-0.0655659
-0.021009
-0.0209459
-0.0208914
-0.0208302
-0.0207525
-0.0206538
-0.0205317
-0.0203876
-0.0202261
-0.0200554
-0.0198864
-0.019732
-0.0196061
-0.0195234
-0.0194985
-0.0195458
-0.0196793
-0.0199124
-0.0202576
-0.0207262
-0.0213284
-0.0220726
-0.022965
-0.0240098
-0.0252084
-0.0265594
-0.0280586
-0.0296989
-0.0314706
-0.0333617
-0.0353579
-0.0374436
-0.0396019
-0.0418153
-0.0440659
-0.0463361
-0.0486086
-0.0508667
-0.0530946
-0.0552777
-0.057402
-0.0594549
-0.0614246
-0.0633002
-0.0209231
-0.0208758
-0.0208296
-0.0207701
-0.0206865
-0.0205723
-0.0204241
-0.0202424
-0.0200319
-0.0198016
-0.0195631
-0.0193306
-0.0191197
-0.0189463
-0.0188265
-0.0187759
-0.0188095
-0.0189414
-0.0191848
-0.0195517
-0.0200525
-0.0206962
-0.0214896
-0.0224373
-0.0235414
-0.0248012
-0.0262133
-0.0277714
-0.0294667
-0.0312878
-0.0332212
-0.0352518
-0.037363
-0.0395375
-0.0417575
-0.044005
-0.0462624
-0.0485127
-0.0507394
-0.0529271
-0.0550611
-0.0571281
-0.0591155
-0.0610116
-0.020836
-0.0208072
-0.0207707
-0.0207135
-0.0206236
-0.0204928
-0.0203165
-0.0200947
-0.0198325
-0.0195394
-0.0192284
-0.0189151
-0.0186165
-0.0183503
-0.0181339
-0.0179843
-0.0179175
-0.0179485
-0.0180911
-0.0183577
-0.0187593
-0.019305
-0.0200022
-0.0208558
-0.0218684
-0.02304
-0.0243677
-0.025846
-0.0274668
-0.0292193
-0.0310907
-0.0330664
-0.0351303
-0.0372653
-0.0394535
-0.0416771
-0.0439181
-0.046159
-0.048383
-0.0505738
-0.0527164
-0.0547965
-0.0568009
-0.0587173
-0.0207503
-0.0207433
-0.0207183
-0.0206636
-0.0205667
-0.0204175
-0.0202105
-0.0199456
-0.0196283
-0.0192689
-0.0188821
-0.018485
-0.0180963
-0.0177354
-0.0174212
-0.0171721
-0.0170052
-0.0169362
-0.0169796
-0.0171482
-0.0174533
-0.0179045
-0.0185091
-0.0192725
-0.0201977
-0.0212849
-0.0225319
-0.0239338
-0.0254829
-0.0271692
-0.0289804
-0.0309025
-0.0329197
-0.0350151
-0.0371713
-0.0393702
-0.0415937
-0.043824
-0.0460439
-0.0482367
-0.0503867
-0.0524789
-0.0544994
-0.0564355
-0.0206692
-0.0206888
-0.0206767
-0.0206246
-0.0205194
-0.0203493
-0.0201082
-0.0197961
-0.0194195
-0.01899
-0.0185238
-0.0180398
-0.0175588
-0.0171016
-0.016689
-0.0163405
-0.0160743
-0.0159069
-0.0158535
-0.0159272
-0.0161396
-0.0165003
-0.017017
-0.017695
-0.0185375
-0.0195452
-0.0207162
-0.0220458
-0.0235271
-0.0251505
-0.0269043
-0.0287748
-0.0307468
-0.0328037
-0.0349281
-0.0371022
-0.0393077
-0.0415267
-0.0437415
-0.0459352
-0.0480913
-0.0501946
-0.0522305
-0.0541855
-0.0205973
-0.0206487
-0.0206518
-0.0206018
-0.020486
-0.0202914
-0.0200117
-0.0196476
-0.0192067
-0.0187025
-0.018153
-0.0175792
-0.0170036
-0.0164491
-0.0159378
-0.0154906
-0.0151268
-0.0148636
-0.0147166
-0.0146993
-0.0148234
-0.0150986
-0.0155326
-0.0161308
-0.0168964
-0.0178302
-0.0189306
-0.0201932
-0.0216114
-0.0231761
-0.0248761
-0.026698
-0.0286272
-0.0306472
-0.032741
-0.0348908
-0.0370784
-0.0392858
-0.041495
-0.0436887
-0.0458502
-0.0479636
-0.050014
-0.0519871
-0.0205403
-0.0206306
-0.0206511
-0.0206022
-0.0204725
-0.0202484
-0.0199242
-0.0195018
-0.0189909
-0.0184066
-0.0177696
-0.0171029
-0.0164308
-0.0157782
-0.0151687
-0.0146243
-0.0141652
-0.0138095
-0.0135729
-0.0134693
-0.0135104
-0.0137058
-0.0140632
-0.0145879
-0.015283
-0.0161493
-0.0171852
-0.0183868
-0.0197475
-0.0212586
-0.0229092
-0.0246864
-0.0265759
-0.0285616
-0.0306267
-0.0327534
-0.0349239
-0.0371198
-0.0393233
-0.0415166
-0.0436829
-0.0458057
-0.0478697
-0.0498603
-0.0205066
-0.020645
-0.0206851
-0.0206351
-0.0204865
-0.0202262
-0.0198498
-0.0193615
-0.0187734
-0.0181033
-0.0173741
-0.0166112
-0.015841
-0.0150901
-0.0143833
-0.0137439
-0.0131928
-0.0127485
-0.0124273
-0.0122428
-0.0122069
-0.012329
-0.0126165
-0.0130746
-0.0137062
-0.014512
-0.0154904
-0.0166374
-0.0179468
-0.01941
-0.0210164
-0.0227536
-0.0246072
-0.0265618
-0.0286007
-0.0307065
-0.0328611
-0.0350464
-0.0372445
-0.0394375
-0.0416081
-0.0437399
-0.045817
-0.0478243
-0.0205081
-0.0207068
-0.0207685
-0.0207133
-0.0205386
-0.0202329
-0.0197944
-0.0192308
-0.018557
-0.0177942
-0.0169678
-0.0161057
-0.0152357
-0.0143867
-0.0135844
-0.0128529
-0.0122138
-0.0116858
-0.0112854
-0.0110264
-0.0109201
-0.0109759
-0.0112008
-0.0115997
-0.0121752
-0.012928
-0.0138561
-0.0149557
-0.0162205
-0.0176421
-0.0192101
-0.0209122
-0.0227346
-0.024662
-0.026678
-0.0287652
-0.0309059
-0.0330821
-0.0352756
-0.0374686
-0.0396438
-0.0417842
-0.0438739
-0.0458975
-0.0205632
-0.0208377
-0.0209223
-0.0208551
-0.0206434
-0.0202797
-0.0197665
-0.0191157
-0.0183464
-0.0174829
-0.0165537
-0.0155887
-0.0146183
-0.0136716
-0.012776
-0.011956
-0.0112335
-0.0106275
-0.0101543
-0.00982734
-0.00965792
-0.00965488
-0.00982486
-0.0101724
-0.0106997
-0.0114071
-0.0122927
-0.0133521
-0.0145793
-0.0159659
-0.0175016
-0.0191744
-0.0209706
-0.0228751
-0.0248718
-0.0269436
-0.0290728
-0.0312416
-0.0334319
-0.0356258
-0.0378059
-0.0399551
-0.0420572
-0.0440966
-0.0206994
-0.02107
-0.0211767
-0.0210859
-0.0208213
-0.0203824
-0.0197779
-0.0190253
-0.0181484
-0.0171752
-0.0161369
-0.0150656
-0.0139934
-0.0129503
-0.011964
-0.0110597
-0.0102592
-0.00958128
-0.00904193
-0.0086544
-0.0084294
-0.00837533
-0.00849833
-0.00880244
-0.00928957
-0.00995954
-0.0108101
-0.011837
-0.0130337
-0.0143921
-0.0159019
-0.0175512
-0.0193264
-0.0212127
-0.0231942
-0.0252539
-0.0273746
-0.0295382
-0.0317269
-0.0339228
-0.0361085
-0.0382667
-0.0403813
-0.0424362
-0.0209599
-0.0214522
-0.0215759
-0.0214417
-0.0211005
-0.0205626
-0.0198452
-0.0189727
-0.0179737
-0.01688
-0.0157254
-0.014544
-0.0133688
-0.0122304
-0.0111567
-0.0101727
-0.00929978
-0.00855648
-0.00795818
-0.00751756
-0.00724475
-0.00714756
-0.00723157
-0.00750026
-0.00795506
-0.00859539
-0.00941865
-0.0104203
-0.0115937
-0.0129307
-0.0144209
-0.0160524
-0.017812
-0.019685
-0.0216555
-0.0237069
-0.0258219
-0.0279828
-0.0301718
-0.032371
-0.0345631
-0.0367308
-0.0388577
-0.0409278
-0.0214138
-0.0220587
-0.0221847
-0.0219739
-0.0215203
-0.0208504
-0.0199917
-0.018976
-0.0178371
-0.0166101
-0.015331
-0.014035
-0.0127554
-0.0115229
-0.0103651
-0.00930604
-0.00836668
-0.00756461
-0.00691455
-0.00642837
-0.00611547
-0.00598295
-0.00603576
-0.00627678
-0.00670689
-0.00732506
-0.00812831
-0.00911178
-0.0102687
-0.0115907
-0.0130673
-0.0146869
-0.0164361
-0.0183003
-0.020264
-0.0223105
-0.0244229
-0.0265835
-0.0287745
-0.0309785
-0.0331777
-0.0353551
-0.0374944
-0.0395792
-0.0221749
-0.0230054
-0.0230985
-0.0227542
-0.022134
-0.0212857
-0.020248
-0.0190599
-0.0177592
-0.0163835
-0.0149699
-0.0135537
-0.0121679
-0.0108423
-0.00960324
-0.00847386
-0.00747381
-0.00661936
-0.00592455
-0.00540005
-0.00505443
-0.00489398
-0.00492292
-0.00514348
-0.00555599
-0.0061589
-0.00694884
-0.00792061
-0.00906725
-0.0103801
-0.0118487
-0.0134614
-0.0152049
-0.0170646
-0.019025
-0.0210699
-0.0231822
-0.0253445
-0.0275392
-0.0297486
-0.0319555
-0.0341426
-0.0362936
-0.0383922
-0.0234392
-0.0244758
-0.0244569
-0.0238806
-0.0230111
-0.0219192
-0.0206525
-0.0192545
-0.0177649
-0.0162219
-0.0146618
-0.0131188
-0.0116241
-0.0102057
-0.00888805
-0.00769248
-0.00663695
-0.00573638
-0.00500316
-0.00444699
-0.00407535
-0.00389364
-0.00390528
-0.00411179
-0.0045129
-0.00510655
-0.00588893
-0.0068545
-0.00799602
-0.00930461
-0.0107698
-0.0123798
-0.0141212
-0.0159797
-0.0179398
-0.0199853
-0.0220993
-0.0242646
-0.0264636
-0.0286788
-0.0308929
-0.0330889
-0.0352504
-0.0373611
-0.025559
-0.0267665
-0.0264583
-0.025478
-0.0242325
-0.0228056
-0.0212435
-0.0195881
-0.0178765
-0.0161438
-0.0144232
-0.0127456
-0.0111387
-0.00962748
-0.00823364
-0.00697584
-0.00586987
-0.00492864
-0.00416304
-0.00358127
-0.00318965
-0.00299256
-0.00299256
-0.00319043
-0.00358528
-0.00417451
-0.00495387
-0.00591746
-0.00705775
-0.00836567
-0.00983064
-0.0114407
-0.0131825
-0.0150418
-0.0170031
-0.0190503
-0.0211666
-0.023335
-0.0255379
-0.027758
-0.0299782
-0.0321813
-0.0343512
-0.0364716
-0.0292133
-0.0303594
-0.0293552
-0.0276705
-0.0258587
-0.0239698
-0.0220253
-0.0200533
-0.0180807
-0.0161341
-0.0142391
-0.0124203
-0.0107
-0.00909816
-0.00763253
-0.00631829
-0.0051684
-0.00419352
-0.00340238
-0.00280171
-0.00239648
-0.00218997
-0.00218382
-0.00237807
-0.00277118
-0.00336002
-0.00413993
-0.00510464
-0.00624638
-0.00755587
-0.0090224
-0.0106339
-0.0123772
-0.0142378
-0.0162005
-0.0182492
-0.0203673
-0.0225377
-0.0247431
-0.0269664
-0.0291905
-0.0313983
-0.0335738
-0.0357008
-0.0358682
-0.0360238
-0.0333764
-0.0304867
-0.0278356
-0.0253136
-0.0228769
-0.0205212
-0.0182508
-0.0160741
-0.0140023
-0.0120484
-0.0102255
-0.00854672
-0.00702395
-0.00566803
-0.00448843
-0.00349314
-0.00268868
-0.00208012
-0.0016711
-0.0014638
-0.00145901
-0.00165608
-0.0020529
-0.00264591
-0.00343008
-0.0043989
-0.00554438
-0.00685713
-0.00832637
-0.00994004
-0.0116849
-0.0135466
-0.0155101
-0.0175593
-0.0196777
-0.0218486
-0.0240548
-0.0262791
-0.0285046
-0.0307146
-0.032893
-0.0350237
-0.0490191
-0.0447901
-0.0385599
-0.0336913
-0.0297918
-0.0264135
-0.0233772
-0.0206018
-0.0180406
-0.0156649
-0.0134587
-0.0114157
-0.00953599
-0.00782296
-0.006282
-0.00491913
-0.00374035
-0.00275116
-0.00195626
-0.00135937
-0.000963142
-0.000769042
-0.000777304
-0.000986872
-0.00139535
-0.00199898
-0.00279257
-0.00376953
-0.00492186
-0.00624016
-0.00771373
-0.00933059
-0.0110776
-0.0129407
-0.0149048
-0.0169541
-0.0190724
-0.0212429
-0.0234488
-0.0256731
-0.027899
-0.0301099
-0.0322899
-0.0344231
-0.0764396
-0.0562397
-0.0430805
-0.0351447
-0.0296412
-0.025438
-0.0220166
-0.0190941
-0.0165033
-0.0141545
-0.0120039
-0.0100306
-0.00822545
-0.00658658
-0.00511648
-0.00381979
-0.00270193
-0.00176821
-0.00102346
-0.000471634
-0.000115685
4.25821e-05
2.59822e-06
-0.000234906
-0.000667847
-0.00129275
-0.00210472
-0.00309743
-0.00426315
-0.00559275
-0.00707579
-0.00870056
-0.0104542
-0.0123228
-0.0142917
-0.0163452
-0.0184674
-0.0206417
-0.0228515
-0.02508
-0.0273105
-0.0295265
-0.0317124
-0.0338521
-0.163549
-0.0622949
-0.03194
-0.0245609
-0.0205631
-0.0173881
-0.0150377
-0.0131918
-0.0115302
-0.00992851
-0.00837357
-0.00687964
-0.00546305
-0.00414064
-0.00292974
-0.00184679
-0.000906361
-0.000120887
0.000499325
0.000945972
0.00121267
0.00129485
0.00118974
0.000896257
0.000414998
-0.0002518
-0.00110028
-0.00212502
-0.00331904
-0.00467388
-0.00617968
-0.00782525
-0.0095982
-0.011485
-0.0134714
-0.015542
-0.017681
-0.0198723
-0.0220994
-0.0243455
-0.0265942
-0.028829
-0.0310343
-0.0331942
)
;

boundaryField
{
    movingWall
    {
        type            zeroGradient;
    }
    fixedWalls
    {
        type            zeroGradient;
    }
    frontAndBack
    {
        type            empty;
    }
    procBoundary2to3
    {
        type            processor;
        value           nonuniform List<scalar> 
45
(
-0.043073
-0.0454117
-0.0478152
-0.0502651
-0.0527431
-0.0552318
-0.0577147
-0.0601767
-0.0626044
-0.0649859
-0.0673108
-0.0695699
-0.0717554
-0.07386
-0.0758776
-0.077802
-0.0796279
-0.0813496
-0.0213866
-0.0212567
-0.0211761
-0.0211277
-0.0211087
-0.0211263
-0.021187
-0.0212966
-0.0214613
-0.0216873
-0.0219812
-0.0223499
-0.0228006
-0.0233415
-0.0239809
-0.024728
-0.0255915
-0.0265802
-0.0277018
-0.0289622
-0.0303656
-0.0319134
-0.033604
-0.0354325
-0.037391
-0.0394686
-0.0394686
)
;
    }
    procBoundary2to5
    {
        type            processor;
        value           nonuniform List<scalar> 
29
(
-0.0813147
-0.0795651
-0.0777193
-0.0757838
-0.0737661
-0.0716749
-0.0695207
-0.0673152
-0.0650719
-0.0628061
-0.0605345
-0.0582752
-0.0560472
-0.0538702
-0.0517641
-0.0497482
-0.0478409
-0.046059
-0.044417
-0.0429266
-0.0415951
-0.0404238
-0.0394064
-0.0385277
-0.0377644
-0.0370918
-0.0364942
-0.0359306
-0.0352937
)
;
    }
}


// ************************************************************************* //
