/*--------------------------------*- C++ -*----------------------------------*\
  =========                 |
  \\      /  F ield         | OpenFOAM: The Open Source CFD Toolbox
   \\    /   O peration     | Website:  https://openfoam.org
    \\  /    A nd           | Version:  9
     \\/     M anipulation  |
\*---------------------------------------------------------------------------*/
FoamFile
{
    format      ascii;
    class       surfaceScalarField;
    location    "1.5";
    object      phi;
}
// * * * * * * * * * * * * * * * * * * * * * * * * * * * * * * * * * * * * * //

dimensions      [0 3 -1 0 0 0 0];

internalField   nonuniform List<scalar> 
2427
(
1.17578e-06
2.7232e-06
1.21986e-06
2.68836e-06
1.26081e-06
2.64321e-06
1.29856e-06
2.58862e-06
1.3331e-06
2.5256e-06
1.36452e-06
2.45522e-06
1.39299e-06
2.37857e-06
1.41871e-06
2.29674e-06
1.44193e-06
2.21073e-06
1.4629e-06
2.12145e-06
1.48187e-06
2.02968e-06
1.49907e-06
1.93609e-06
1.51468e-06
1.8412e-06
1.52887e-06
1.74543e-06
1.54176e-06
1.64905e-06
1.55341e-06
1.55227e-06
1.56385e-06
1.4552e-06
1.35789e-06
5.80749e-09
1.0707e-07
2.14763e-08
3.22454e-07
4.53922e-08
5.3646e-07
7.5984e-08
7.45956e-07
1.11727e-07
9.47718e-07
1.51204e-07
1.13885e-06
1.9319e-07
1.31713e-06
2.3672e-07
1.48123e-06
2.81136e-07
1.63071e-06
3.26092e-07
1.76601e-06
3.71517e-07
1.88818e-06
4.17558e-07
1.99865e-06
4.64498e-07
2.09899e-06
5.12671e-07
2.19064e-06
5.62386e-07
2.27477e-06
6.13864e-07
2.35213e-06
6.67197e-07
2.42307e-06
7.22326e-07
2.4875e-06
7.79036e-07
2.54499e-06
8.36974e-07
2.5949e-06
8.95671e-07
2.63641e-06
9.54579e-07
2.66869e-06
1.0131e-06
2.691e-06
1.07064e-06
2.70274e-06
1.12662e-06
2.70351e-06
1.18051e-06
2.69317e-06
1.23188e-06
2.67182e-06
1.28039e-06
2.63984e-06
1.32579e-06
2.59781e-06
1.36794e-06
2.54648e-06
1.40679e-06
2.48675e-06
1.44238e-06
2.41962e-06
1.47485e-06
2.34611e-06
1.50436e-06
2.26723e-06
1.53114e-06
2.18396e-06
1.55541e-06
2.09718e-06
1.57742e-06
2.00768e-06
1.59738e-06
1.91612e-06
1.61551e-06
1.82308e-06
1.63197e-06
1.72897e-06
1.64688e-06
1.63414e-06
1.66034e-06
1.53881e-06
1.67239e-06
1.44314e-06
1.34724e-06
5.51397e-09
1.01556e-07
2.05204e-08
3.07448e-07
4.36196e-08
5.13361e-07
7.34392e-08
7.16136e-07
1.08623e-07
9.12534e-07
1.47879e-07
1.09959e-06
1.90055e-07
1.27496e-06
2.34214e-07
1.43707e-06
2.79676e-07
1.58525e-06
3.26048e-07
1.71964e-06
3.73192e-07
1.84103e-06
4.21186e-07
1.95066e-06
4.70253e-07
2.04992e-06
5.20682e-07
2.14021e-06
5.72756e-07
2.22269e-06
6.26692e-07
2.2982e-06
6.82591e-07
2.36717e-06
7.40416e-07
2.42967e-06
7.99979e-07
2.48543e-06
8.60954e-07
2.53392e-06
9.22896e-07
2.57446e-06
9.85271e-07
2.60632e-06
1.04749e-06
2.62878e-06
1.10895e-06
2.64128e-06
1.16905e-06
2.64341e-06
1.22725e-06
2.63497e-06
1.28306e-06
2.61601e-06
1.3361e-06
2.5868e-06
1.38607e-06
2.54784e-06
1.43278e-06
2.49976e-06
1.47614e-06
2.44339e-06
1.51614e-06
2.37962e-06
1.55286e-06
2.30939e-06
1.58643e-06
2.23366e-06
1.61704e-06
2.15335e-06
1.64491e-06
2.06932e-06
1.67024e-06
1.98234e-06
1.69326e-06
1.8931e-06
1.71417e-06
1.80217e-06
1.73315e-06
1.71e-06
1.75032e-06
1.61696e-06
1.76581e-06
1.52333e-06
1.77967e-06
1.42929e-06
1.33497e-06
5.17613e-09
9.63794e-08
1.93859e-08
2.93238e-07
4.14484e-08
4.91299e-07
7.02002e-08
6.87384e-07
1.04468e-07
8.78267e-07
1.43105e-07
1.06096e-06
1.85056e-07
1.23301e-06
2.29427e-07
1.3927e-06
2.75542e-07
1.53914e-06
3.22969e-07
1.67221e-06
3.71515e-07
1.79249e-06
4.21191e-07
1.90098e-06
4.72156e-07
1.99896e-06
5.2465e-07
2.08772e-06
5.78921e-07
2.16842e-06
6.35171e-07
2.24195e-06
6.93505e-07
2.30883e-06
7.539e-07
2.36928e-06
8.16194e-07
2.42314e-06
8.80088e-07
2.47003e-06
9.45162e-07
2.50939e-06
1.0109e-06
2.54058e-06
1.07673e-06
2.56296e-06
1.14203e-06
2.57598e-06
1.20621e-06
2.57923e-06
1.26869e-06
2.57249e-06
1.32896e-06
2.55574e-06
1.38659e-06
2.52918e-06
1.44123e-06
2.49319e-06
1.49264e-06
2.44835e-06
1.54068e-06
2.39536e-06
1.58529e-06
2.33501e-06
1.62649e-06
2.26819e-06
1.66438e-06
2.19577e-06
1.6991e-06
2.11862e-06
1.73084e-06
2.03757e-06
1.7598e-06
1.95339e-06
1.78617e-06
1.86673e-06
1.81016e-06
1.77818e-06
1.83193e-06
1.68823e-06
1.85163e-06
1.59726e-06
1.86939e-06
1.50557e-06
1.88527e-06
1.4134e-06
1.3209e-06
4.7921e-09
9.15874e-08
1.80652e-08
2.79965e-07
3.88625e-08
4.70501e-07
6.624e-08
6.60007e-07
9.92231e-08
8.45283e-07
1.36828e-07
1.02335e-06
1.78118e-07
1.19172e-06
2.22266e-07
1.34855e-06
2.68615e-07
1.49279e-06
3.16714e-07
1.62412e-06
3.66322e-07
1.74288e-06
4.17388e-07
1.84991e-06
4.70007e-07
1.94634e-06
5.2436e-07
2.03337e-06
5.80658e-07
2.11212e-06
6.39076e-07
2.18353e-06
6.99714e-07
2.2482e-06
7.62557e-07
2.30643e-06
8.27464e-07
2.35823e-06
8.9416e-07
2.40333e-06
9.6225e-07
2.4413e-06
1.03124e-06
2.47158e-06
1.10057e-06
2.49363e-06
1.16964e-06
2.50691e-06
1.23782e-06
2.51104e-06
1.30454e-06
2.50577e-06
1.36926e-06
2.49103e-06
1.43149e-06
2.46694e-06
1.49087e-06
2.43382e-06
1.54708e-06
2.39214e-06
1.59993e-06
2.3425e-06
1.64932e-06
2.28563e-06
1.69521e-06
2.2223e-06
1.73765e-06
2.15332e-06
1.77675e-06
2.07952e-06
1.81264e-06
2.00168e-06
1.84551e-06
1.92052e-06
1.87553e-06
1.83671e-06
1.90288e-06
1.75083e-06
1.92774e-06
1.66337e-06
1.95025e-06
1.57474e-06
1.97055e-06
1.48528e-06
1.98872e-06
1.39523e-06
1.30479e-06
4.35896e-09
8.72284e-08
1.65471e-08
2.67777e-07
3.58393e-08
4.51209e-07
6.15233e-08
6.34323e-07
9.28394e-08
8.13967e-07
1.28987e-07
9.87205e-07
1.69166e-07
1.15154e-06
2.12639e-07
1.30508e-06
2.58788e-07
1.44664e-06
3.07158e-07
1.57575e-06
3.5747e-07
1.69257e-06
4.09619e-07
1.79777e-06
4.63633e-07
1.89232e-06
5.19635e-07
1.97736e-06
5.77784e-07
2.05398e-06
6.38225e-07
2.12309e-06
7.01039e-07
2.18538e-06
7.66214e-07
2.24126e-06
8.3362e-07
2.29082e-06
9.03004e-07
2.33395e-06
9.73996e-07
2.37031e-06
1.04613e-06
2.39945e-06
1.11885e-06
2.4209e-06
1.19157e-06
2.43419e-06
1.26367e-06
2.43894e-06
1.33456e-06
2.43488e-06
1.40367e-06
2.42192e-06
1.4705e-06
2.40011e-06
1.53462e-06
2.3697e-06
1.59569e-06
2.33107e-06
1.65346e-06
2.28474e-06
1.70775e-06
2.23133e-06
1.7585e-06
2.17155e-06
1.80569e-06
2.10613e-06
1.84939e-06
2.03583e-06
1.88969e-06
1.96138e-06
1.92674e-06
1.88347e-06
1.96069e-06
1.80276e-06
1.99171e-06
1.71981e-06
2.01995e-06
1.63513e-06
2.04557e-06
1.54913e-06
2.06868e-06
1.46216e-06
2.08941e-06
1.37451e-06
1.28639e-06
3.8713e-09
8.33571e-08
1.48125e-08
2.56836e-07
3.23416e-08
4.3368e-07
5.59944e-08
6.1067e-07
8.52445e-08
7.84717e-07
1.19493e-07
9.52957e-07
1.58099e-07
1.11293e-06
2.00433e-07
1.26274e-06
2.45935e-07
1.40113e-06
2.94162e-07
1.52752e-06
3.4481e-07
1.64192e-06
3.97722e-07
1.74485e-06
4.52865e-07
1.83718e-06
5.10297e-07
1.91993e-06
5.70122e-07
1.99415e-06
6.3244e-07
2.06077e-06
6.97309e-07
2.12051e-06
7.64706e-07
2.17386e-06
8.34505e-07
2.22102e-06
9.06471e-07
2.26198e-06
9.80254e-07
2.29652e-06
1.05541e-06
2.3243e-06
1.1314e-06
2.34491e-06
1.20766e-06
2.35794e-06
1.28357e-06
2.36302e-06
1.35853e-06
2.35992e-06
1.43197e-06
2.34848e-06
1.50333e-06
2.32874e-06
1.57218e-06
2.30086e-06
1.63811e-06
2.26514e-06
1.70083e-06
2.22202e-06
1.76011e-06
2.17205e-06
1.81584e-06
2.11583e-06
1.86794e-06
2.05403e-06
1.91643e-06
1.98734e-06
1.96136e-06
1.91645e-06
2.00283e-06
1.842e-06
2.04098e-06
1.76461e-06
2.07594e-06
1.68485e-06
2.10785e-06
1.60321e-06
2.13686e-06
1.52012e-06
2.16309e-06
1.43593e-06
2.18664e-06
1.35096e-06
1.26543e-06
3.32037e-09
8.00367e-08
1.28313e-08
2.47325e-07
2.83126e-08
4.18199e-07
4.95702e-08
5.89413e-07
7.63325e-08
7.57955e-07
1.08223e-07
9.21066e-07
1.44781e-07
1.07637e-06
1.85503e-07
1.22202e-06
2.29905e-07
1.35673e-06
2.77569e-07
1.47986e-06
3.28177e-07
1.59131e-06
3.81529e-07
1.6915e-06
4.37531e-07
1.78118e-06
4.96173e-07
1.86129e-06
5.57498e-07
1.93283e-06
6.21554e-07
1.99671e-06
6.88362e-07
2.05371e-06
7.57879e-07
2.10434e-06
8.29978e-07
2.14893e-06
9.04428e-07
2.18753e-06
9.80898e-07
2.22005e-06
1.05896e-06
2.24624e-06
1.13811e-06
2.26576e-06
1.21778e-06
2.27826e-06
1.29738e-06
2.28343e-06
1.37629e-06
2.281e-06
1.45393e-06
2.27084e-06
1.52975e-06
2.25292e-06
1.60325e-06
2.22736e-06
1.674e-06
2.19438e-06
1.74167e-06
2.15436e-06
1.80598e-06
2.10774e-06
1.86675e-06
2.05506e-06
1.92386e-06
1.99691e-06
1.97728e-06
1.93392e-06
2.02701e-06
1.86671e-06
2.07312e-06
1.79589e-06
2.1157e-06
1.72204e-06
2.15485e-06
1.6457e-06
2.1907e-06
1.56736e-06
2.22338e-06
1.48744e-06
2.25299e-06
1.40632e-06
2.27966e-06
1.3243e-06
1.24164e-06
2.69309e-09
7.73436e-08
1.05597e-08
2.39458e-07
2.36702e-08
4.05088e-07
4.21313e-08
5.70951e-07
6.5954e-08
7.34132e-07
9.50081e-08
8.92012e-07
1.2903e-07
1.04235e-06
1.67662e-07
1.18339e-06
2.10509e-07
1.31389e-06
2.57191e-07
1.43317e-06
3.07388e-07
1.54111e-06
3.60859e-07
1.63803e-06
4.17452e-07
1.72459e-06
4.7709e-07
1.80165e-06
5.39744e-07
1.87017e-06
6.05405e-07
1.93105e-06
6.74047e-07
1.98506e-06
7.45597e-07
2.03279e-06
8.19912e-07
2.07461e-06
8.96762e-07
2.11068e-06
9.75826e-07
2.14099e-06
1.0567e-06
2.16537e-06
1.13888e-06
2.18357e-06
1.22184e-06
2.19531e-06
1.30498e-06
2.20029e-06
1.3877e-06
2.19828e-06
1.46942e-06
2.18913e-06
1.54956e-06
2.17278e-06
1.62761e-06
2.14931e-06
1.7031e-06
2.11889e-06
1.77566e-06
2.0818e-06
1.84497e-06
2.03843e-06
1.91079e-06
1.98924e-06
1.97297e-06
1.93474e-06
2.0314e-06
1.87549e-06
2.08606e-06
1.81205e-06
2.13696e-06
1.74499e-06
2.18414e-06
1.67485e-06
2.2277e-06
1.60215e-06
2.26772e-06
1.52734e-06
2.30431e-06
1.45085e-06
2.33757e-06
1.37305e-06
2.3676e-06
1.29427e-06
1.21475e-06
1.97072e-09
7.53729e-08
7.93514e-09
2.33494e-07
1.82987e-08
3.94724e-07
3.35124e-08
5.55738e-07
5.39046e-08
7.1374e-07
7.96172e-08
8.66299e-07
1.10604e-07
1.01137e-06
1.46666e-07
1.14733e-06
1.8751e-07
1.27304e-06
2.32804e-07
1.38788e-06
2.8223e-07
1.49169e-06
3.35513e-07
1.58475e-06
3.92443e-07
1.66766e-06
4.52872e-07
1.74122e-06
5.16699e-07
1.80635e-06
5.83845e-07
1.86391e-06
6.54229e-07
1.91468e-06
7.27737e-07
1.95928e-06
8.04201e-07
1.99815e-06
8.83382e-07
2.0315e-06
9.64963e-07
2.05941e-06
1.04854e-06
2.08179e-06
1.13366e-06
2.09846e-06
1.21977e-06
2.10919e-06
1.30632e-06
2.11374e-06
1.39271e-06
2.11189e-06
1.47834e-06
2.10349e-06
1.56265e-06
2.08848e-06
1.6451e-06
2.06686e-06
1.72521e-06
2.03878e-06
1.80255e-06
2.00446e-06
1.87677e-06
1.9642e-06
1.9476e-06
1.91841e-06
2.01483e-06
1.86751e-06
2.0783e-06
1.81201e-06
2.13795e-06
1.75241e-06
2.19372e-06
1.68921e-06
2.24565e-06
1.62293e-06
2.29377e-06
1.55403e-06
2.33814e-06
1.48297e-06
2.37885e-06
1.41014e-06
2.41598e-06
1.33592e-06
2.44962e-06
1.26063e-06
1.18453e-06
1.12783e-09
7.42451e-08
4.87054e-09
2.29751e-07
1.20386e-08
3.87556e-07
2.34882e-08
5.44288e-07
3.99092e-08
6.97319e-07
6.17458e-08
8.44463e-07
8.91876e-08
9.83925e-07
1.22206e-07
1.11431e-06
1.60616e-07
1.23463e-06
2.04137e-07
1.34436e-06
2.52457e-07
1.44337e-06
3.0527e-07
1.53194e-06
3.62307e-07
1.61062e-06
4.23346e-07
1.68018e-06
4.88206e-07
1.74148e-06
5.56736e-07
1.79538e-06
6.28788e-07
1.84263e-06
7.04197e-07
1.88388e-06
7.82761e-07
1.91958e-06
8.64223e-07
1.95004e-06
9.48258e-07
1.97537e-06
1.03447e-06
1.99557e-06
1.12242e-06
2.01052e-06
1.21157e-06
2.02004e-06
1.30138e-06
2.02393e-06
1.39127e-06
2.022e-06
1.48065e-06
2.01411e-06
1.56896e-06
2.00017e-06
1.65563e-06
1.98019e-06
1.74018e-06
1.95423e-06
1.82215e-06
1.92248e-06
1.90117e-06
1.88519e-06
1.9769e-06
1.84268e-06
2.04909e-06
1.79532e-06
2.11756e-06
1.74354e-06
2.18218e-06
1.68779e-06
2.24287e-06
1.62852e-06
2.2996e-06
1.5662e-06
2.35238e-06
1.50125e-06
2.40123e-06
1.43411e-06
2.44621e-06
1.36516e-06
2.48738e-06
1.29475e-06
2.52482e-06
1.2232e-06
1.15077e-06
1.22755e-10
7.41223e-08
1.23958e-09
2.28634e-07
4.67182e-09
3.84124e-07
1.17574e-08
5.37203e-07
2.36048e-08
6.85472e-07
4.09972e-08
8.2707e-07
6.43764e-08
9.60546e-07
9.38904e-08
1.08479e-06
1.29462e-07
1.19906e-06
1.70863e-07
1.30296e-06
2.17783e-07
1.39645e-06
2.69883e-07
1.47984e-06
3.26832e-07
1.55367e-06
3.88332e-07
1.61868e-06
4.54118e-07
1.6757e-06
5.23955e-07
1.72554e-06
5.97624e-07
1.76896e-06
6.749e-07
1.8066e-06
7.55535e-07
1.83895e-06
8.39245e-07
1.86633e-06
9.25692e-07
1.88893e-06
1.01448e-06
1.90678e-06
1.10517e-06
1.91983e-06
1.19725e-06
1.92795e-06
1.2902e-06
1.93099e-06
1.38343e-06
1.92877e-06
1.47638e-06
1.92116e-06
1.56849e-06
1.90807e-06
1.65919e-06
1.88948e-06
1.74798e-06
1.86544e-06
1.83439e-06
1.83607e-06
1.918e-06
1.80157e-06
1.99847e-06
1.76221e-06
2.0755e-06
1.71829e-06
2.14886e-06
1.67018e-06
2.21839e-06
1.61827e-06
2.28395e-06
1.56296e-06
2.34547e-06
1.50467e-06
2.40294e-06
1.44379e-06
2.45633e-06
1.38072e-06
2.50567e-06
1.31582e-06
2.551e-06
1.24942e-06
2.59238e-06
1.18182e-06
1.1133e-06
-1.0941e-09
7.52164e-08
-3.10499e-09
2.30645e-07
-4.08587e-09
3.85105e-07
-2.08149e-09
5.35198e-07
4.51852e-09
6.78872e-07
1.68627e-08
8.14726e-07
3.56587e-08
9.4175e-07
6.12315e-08
1.05922e-06
9.36036e-08
1.16669e-06
1.3259e-07
1.26397e-06
1.77874e-07
1.35117e-06
2.29074e-07
1.42864e-06
2.85794e-07
1.49695e-06
3.47652e-07
1.55683e-06
4.14293e-07
1.60906e-06
4.85397e-07
1.65444e-06
5.60661e-07
1.6937e-06
6.39793e-07
1.72747e-06
7.22495e-07
1.75625e-06
8.08443e-07
1.78038e-06
8.97279e-07
1.80009e-06
9.88603e-07
1.81546e-06
1.08197e-06
1.82647e-06
1.17689e-06
1.83304e-06
1.27284e-06
1.83504e-06
1.36926e-06
1.83234e-06
1.46561e-06
1.82481e-06
1.56131e-06
1.81237e-06
1.65582e-06
1.79497e-06
1.74863e-06
1.77264e-06
1.83925e-06
1.74546e-06
1.92724e-06
1.71358e-06
2.01224e-06
1.67721e-06
2.09391e-06
1.63661e-06
2.172e-06
1.5921e-06
2.24628e-06
1.54399e-06
2.3166e-06
1.49264e-06
2.38285e-06
1.43842e-06
2.44495e-06
1.38169e-06
2.50288e-06
1.3228e-06
2.5566e-06
1.26209e-06
2.60615e-06
1.19987e-06
2.65154e-06
1.13644e-06
1.07204e-06
-2.59066e-09
7.78071e-08
-8.39915e-09
2.36454e-07
-1.46183e-08
3.91324e-07
-1.85332e-08
5.39113e-07
-1.79507e-08
6.78289e-07
-1.12989e-08
8.08074e-07
2.40274e-09
9.28048e-07
2.36348e-08
1.03799e-06
5.25062e-08
1.13782e-06
8.88571e-08
1.22762e-06
1.32344e-07
1.30768e-06
1.82533e-07
1.37845e-06
2.38951e-07
1.44053e-06
3.01124e-07
1.49465e-06
3.68604e-07
1.54158e-06
4.40975e-07
1.58207e-06
5.17849e-07
1.61682e-06
5.9886e-07
1.64646e-06
6.83649e-07
1.67146e-06
7.71849e-07
1.69218e-06
8.63074e-07
1.70887e-06
9.56909e-07
1.72162e-06
1.0529e-06
1.73047e-06
1.15058e-06
1.73536e-06
1.24942e-06
1.7362e-06
1.3489e-06
1.73286e-06
1.44847e-06
1.72525e-06
1.54757e-06
1.71327e-06
1.64566e-06
1.69687e-06
1.74224e-06
1.67606e-06
1.83682e-06
1.65088e-06
1.92894e-06
1.62145e-06
2.01821e-06
1.58794e-06
2.10429e-06
1.55054e-06
2.18687e-06
1.50951e-06
2.26571e-06
1.46514e-06
2.34062e-06
1.41773e-06
2.41145e-06
1.3676e-06
2.47808e-06
1.31505e-06
2.54045e-06
1.26043e-06
2.59852e-06
1.20402e-06
2.65226e-06
1.14613e-06
2.70168e-06
1.08702e-06
1.02694e-06
-4.47402e-09
8.22811e-08
-1.49444e-08
2.46924e-07
-2.74465e-08
4.03826e-07
-3.82899e-08
5.49956e-07
-4.45795e-08
6.84579e-07
-4.42913e-08
8.07786e-07
-3.61789e-08
9.19936e-07
-1.96172e-08
1.02143e-06
5.54802e-09
1.11265e-06
3.91325e-08
1.19403e-06
8.07612e-08
1.26605e-06
1.29922e-07
1.32929e-06
1.86051e-07
1.3844e-06
2.48574e-07
1.43213e-06
3.16938e-07
1.47321e-06
3.9063e-07
1.50837e-06
4.69172e-07
1.53828e-06
5.52119e-07
1.56351e-06
6.39045e-07
1.58453e-06
7.29537e-07
1.60169e-06
8.23171e-07
1.61523e-06
9.19516e-07
1.62528e-06
1.01811e-06
1.63187e-06
1.11849e-06
1.63499e-06
1.22013e-06
1.63455e-06
1.32253e-06
1.63047e-06
1.42514e-06
1.62263e-06
1.52745e-06
1.61097e-06
1.6289e-06
1.59541e-06
1.72901e-06
1.57595e-06
1.82727e-06
1.55262e-06
1.92324e-06
1.52548e-06
2.01651e-06
1.49467e-06
2.10671e-06
1.46034e-06
2.19353e-06
1.4227e-06
2.27667e-06
1.38199e-06
2.35594e-06
1.33847e-06
2.43113e-06
1.2924e-06
2.50212e-06
1.24407e-06
2.56879e-06
1.19376e-06
2.63107e-06
1.14174e-06
2.68893e-06
1.08828e-06
2.74232e-06
1.03363e-06
9.78015e-07
-6.88565e-09
8.91668e-08
-2.31536e-08
2.63192e-07
-4.32477e-08
4.2392e-07
-6.2218e-08
5.68927e-07
-7.63371e-08
6.98698e-07
-8.30981e-08
8.14547e-07
-8.10132e-08
9.17851e-07
-6.9372e-08
1.00979e-06
-4.80224e-08
1.0913e-06
-1.71882e-08
1.1632e-06
2.26503e-08
1.22621e-06
7.08803e-08
1.28106e-06
1.2684e-07
1.32844e-06
1.89836e-07
1.36914e-06
2.59207e-07
1.40384e-06
3.34337e-07
1.43324e-06
4.14655e-07
1.45796e-06
4.99633e-07
1.47853e-06
5.8878e-07
1.49538e-06
6.81627e-07
1.50884e-06
7.77716e-07
1.51914e-06
8.76588e-07
1.5264e-06
9.77778e-07
1.53068e-06
1.0808e-06
1.53196e-06
1.18517e-06
1.53018e-06
1.29037e-06
1.52526e-06
1.39589e-06
1.51711e-06
1.50121e-06
1.50565e-06
1.60581e-06
1.49081e-06
1.70919e-06
1.47257e-06
1.81087e-06
1.45094e-06
1.91041e-06
1.42595e-06
2.00737e-06
1.3977e-06
2.10139e-06
1.36632e-06
2.19213e-06
1.33197e-06
2.2793e-06
1.29483e-06
2.36263e-06
1.25513e-06
2.44194e-06
1.2131e-06
2.51704e-06
1.16897e-06
2.5878e-06
1.12299e-06
2.65413e-06
1.07541e-06
2.71595e-06
1.02646e-06
2.7732e-06
9.76373e-07
9.25357e-07
-1.00305e-08
9.91973e-08
-3.3598e-08
2.8676e-07
-6.29285e-08
4.53251e-07
-9.14419e-08
5.9744e-07
-1.14436e-07
7.21692e-07
-1.28914e-07
8.29025e-07
-1.33207e-07
9.22144e-07
-1.26594e-07
1.00317e-06
-1.08998e-07
1.07371e-06
-8.07657e-08
1.13497e-06
-4.24979e-08
1.18794e-06
5.06106e-09
1.2335e-06
6.1079e-08
1.27242e-06
1.24774e-07
1.30544e-06
1.95362e-07
1.33325e-06
2.72118e-07
1.35649e-06
3.54374e-07
1.37571e-06
4.41524e-07
1.39138e-06
5.33007e-07
1.4039e-06
6.28302e-07
1.41355e-06
7.26911e-07
1.42053e-06
8.2835e-07
1.42497e-06
9.32138e-07
1.42689e-06
1.03779e-06
1.42631e-06
1.14482e-06
1.42315e-06
1.25273e-06
1.41735e-06
1.36102e-06
1.40883e-06
1.46918e-06
1.39749e-06
1.57671e-06
1.38328e-06
1.68313e-06
1.36615e-06
1.78797e-06
1.3461e-06
1.89078e-06
1.32314e-06
1.99113e-06
1.29734e-06
2.08866e-06
1.26879e-06
2.18301e-06
1.23762e-06
2.27387e-06
1.20397e-06
2.36097e-06
1.16803e-06
2.44409e-06
1.12998e-06
2.52303e-06
1.09003e-06
2.59764e-06
1.04839e-06
2.66778e-06
1.00526e-06
2.73336e-06
9.60874e-07
2.79432e-06
9.1542e-07
8.69092e-07
-1.42089e-08
1.13406e-07
-4.70749e-08
3.19626e-07
-8.77016e-08
4.93878e-07
-1.27405e-07
6.37144e-07
-1.60373e-07
7.54659e-07
-1.83162e-07
8.51815e-07
-1.94031e-07
9.33012e-07
-1.92362e-07
1.0015e-06
-1.78261e-07
1.05961e-06
-1.52268e-07
1.10897e-06
-1.15177e-07
1.15085e-06
-6.79116e-08
1.18623e-06
-1.14234e-08
1.21594e-06
5.33206e-08
1.2407e-06
1.25432e-07
1.26114e-06
2.04077e-07
1.27784e-06
2.88497e-07
1.29129e-06
3.78006e-07
1.30187e-06
4.71979e-07
1.30993e-06
5.69841e-07
1.31569e-06
6.71058e-07
1.31932e-06
7.7512e-07
1.3209e-06
8.81532e-07
1.32048e-06
9.89806e-07
1.31803e-06
1.09946e-06
1.3135e-06
1.20999e-06
1.30682e-06
1.32093e-06
1.29789e-06
1.43178e-06
1.28664e-06
1.54207e-06
1.273e-06
1.65131e-06
1.25691e-06
1.75905e-06
1.23836e-06
1.86486e-06
1.21734e-06
1.96831e-06
1.19389e-06
2.06903e-06
1.16807e-06
2.16667e-06
1.13998e-06
2.26091e-06
1.10973e-06
2.35147e-06
1.07747e-06
2.4381e-06
1.04335e-06
2.52059e-06
1.00753e-06
2.59877e-06
9.70203e-07
2.6725e-06
9.31541e-07
2.74164e-06
8.91727e-07
2.80612e-06
8.50942e-07
8.09354e-07
-1.98714e-08
1.33278e-07
-6.47119e-08
3.64466e-07
-1.19194e-07
5.4836e-07
-1.7195e-07
6.899e-07
-2.15969e-07
7.98677e-07
-2.4749e-07
8.83336e-07
-2.6488e-07
9.50402e-07
-2.67799e-07
1.00442e-06
-2.56661e-07
1.04847e-06
-2.32297e-07
1.08461e-06
-1.95757e-07
1.11431e-06
-1.48175e-07
1.13865e-06
-9.0695e-08
1.15846e-06
-2.44131e-08
1.17441e-06
4.96389e-08
1.18709e-06
1.30527e-07
1.19695e-06
2.17407e-07
1.20441e-06
3.09517e-07
1.20976e-06
4.06174e-07
1.21327e-06
5.06759e-07
1.2151e-06
6.10701e-07
1.21537e-06
7.17469e-07
1.21414e-06
8.26553e-07
1.2114e-06
9.37463e-07
1.20712e-06
1.04971e-06
1.20125e-06
1.16283e-06
1.1937e-06
1.27634e-06
1.18438e-06
1.38977e-06
1.17321e-06
1.50265e-06
1.16012e-06
1.61453e-06
1.14503e-06
1.72497e-06
1.12792e-06
1.83354e-06
1.10877e-06
1.93984e-06
1.08759e-06
2.04349e-06
1.06442e-06
2.14415e-06
1.03933e-06
2.24149e-06
1.01239e-06
2.33523e-06
9.83734e-07
2.42511e-06
9.53466e-07
2.51091e-06
9.21728e-07
2.59245e-06
8.88664e-07
2.66956e-06
8.54428e-07
2.74212e-06
8.19172e-07
2.81001e-06
7.83051e-07
7.46212e-07
-2.7715e-08
1.60992e-07
-8.81301e-08
4.24881e-07
-1.59595e-07
6.19825e-07
-2.27397e-07
7.57701e-07
-2.8336e-07
8.54641e-07
-3.23686e-07
9.23662e-07
-3.47138e-07
9.73854e-07
-3.5388e-07
1.01117e-06
-3.44796e-07
1.03938e-06
-3.21118e-07
1.06093e-06
-2.84213e-07
1.07741e-06
-2.35474e-07
1.08991e-06
-1.7624e-07
1.09922e-06
-1.0777e-07
1.10594e-06
-3.12108e-08
1.11053e-06
5.23981e-08
1.11335e-06
1.42134e-07
1.11467e-06
2.37175e-07
1.11472e-06
3.36788e-07
1.11366e-06
4.40314e-07
1.11158e-06
5.47159e-07
1.10853e-06
6.5677e-07
1.10453e-06
7.6863e-07
1.09954e-06
8.82247e-07
1.09351e-06
9.97142e-07
1.08636e-06
1.11285e-06
1.07799e-06
1.22891e-06
1.06832e-06
1.34487e-06
1.05726e-06
1.46028e-06
1.0447e-06
1.5747e-06
1.0306e-06
1.68773e-06
1.0149e-06
1.79893e-06
9.9756e-07
1.90793e-06
9.78586e-07
2.01436e-06
9.5799e-07
2.11787e-06
9.35811e-07
2.21816e-06
9.12108e-07
2.31494e-06
8.8696e-07
2.40794e-06
8.6046e-07
2.49695e-06
8.32714e-07
2.58178e-06
8.03839e-07
2.66225e-06
7.73958e-07
2.73823e-06
7.43197e-07
2.80959e-06
7.11684e-07
6.79545e-07
-3.88555e-08
1.99848e-07
-1.19699e-07
5.05725e-07
-2.11839e-07
7.11965e-07
-2.96568e-07
8.42431e-07
-3.64865e-07
9.22937e-07
-4.13398e-07
9.72196e-07
-4.41759e-07
1.00221e-06
-4.50907e-07
1.02031e-06
-4.42383e-07
1.03086e-06
-4.17927e-07
1.03648e-06
-3.79291e-07
1.03877e-06
-3.28153e-07
1.03877e-06
-2.66064e-07
1.03713e-06
-1.94438e-07
1.03432e-06
-1.1454e-07
1.03063e-06
-2.74906e-08
1.0263e-06
6.57168e-08
1.02146e-06
1.64216e-07
1.01622e-06
2.67235e-07
1.01064e-06
3.74092e-07
1.00472e-06
4.84173e-07
9.98448e-07
5.96918e-07
9.91781e-07
7.11807e-07
9.84649e-07
8.2835e-07
9.76963e-07
9.4608e-07
9.68625e-07
1.06454e-06
9.5953e-07
1.1833e-06
9.4957e-07
1.30191e-06
9.38643e-07
1.41995e-06
9.26659e-07
1.53702e-06
9.13537e-07
1.6527e-06
8.99215e-07
1.76661e-06
8.8365e-07
1.87838e-06
8.66817e-07
1.98766e-06
8.48713e-07
2.09411e-06
8.29355e-07
2.19744e-06
8.08776e-07
2.29737e-06
7.87029e-07
2.39365e-06
7.6418e-07
2.48606e-06
7.40308e-07
2.5744e-06
7.155e-07
2.65851e-06
6.89853e-07
2.73824e-06
6.63466e-07
2.81348e-06
6.36444e-07
6.08889e-07
-5.51502e-08
2.54998e-07
-1.62938e-07
6.13513e-07
-2.79778e-07
8.28804e-07
-3.82622e-07
9.45275e-07
-4.62457e-07
1.00277e-06
-5.17289e-07
1.02703e-06
-5.48124e-07
1.03305e-06
-5.57071e-07
1.02926e-06
-5.46526e-07
1.02032e-06
-5.18847e-07
1.0088e-06
-4.76222e-07
9.96148e-07
-4.20634e-07
9.83182e-07
-3.53849e-07
9.7035e-07
-2.77427e-07
9.57896e-07
-1.92733e-07
9.45938e-07
-1.00956e-07
9.3452e-07
-3.1302e-09
9.23637e-07
9.98376e-08
9.13254e-07
2.07168e-07
9.03307e-07
3.18166e-07
8.9372e-07
4.32216e-07
8.84398e-07
5.4876e-07
8.75237e-07
6.67288e-07
8.66121e-07
7.87324e-07
8.56928e-07
9.08415e-07
8.47534e-07
1.03013e-06
8.37815e-07
1.15205e-06
8.27651e-07
1.27376e-06
8.16928e-07
1.39488e-06
8.05544e-07
1.51501e-06
7.9341e-07
1.63377e-06
7.80451e-07
1.75081e-06
7.66611e-07
1.86578e-06
7.5185e-07
1.97834e-06
7.36146e-07
2.0882e-06
7.19496e-07
2.19507e-06
7.01913e-07
2.29867e-06
6.83424e-07
2.39878e-06
6.64071e-07
2.49518e-06
6.43907e-07
2.58769e-06
6.22995e-07
2.67613e-06
6.01405e-07
2.76039e-06
5.79213e-07
2.84033e-06
5.56499e-07
5.33343e-07
-7.98142e-08
3.34812e-07
-2.23119e-07
7.56817e-07
-3.68174e-07
9.7386e-07
-4.88235e-07
1.06534e-06
-5.76169e-07
1.09071e-06
-6.32676e-07
1.08353e-06
-6.60943e-07
1.06132e-06
-6.64634e-07
1.03295e-06
-6.47211e-07
1.00289e-06
-6.11752e-07
9.73337e-07
-5.6093e-07
9.45326e-07
-4.97049e-07
9.193e-07
-4.2208e-07
8.95382e-07
-3.37713e-07
8.73528e-07
-2.45387e-07
8.53612e-07
-1.46333e-07
8.35466e-07
-4.16037e-08
8.18907e-07
6.79045e-08
8.03746e-07
1.81408e-07
7.89803e-07
2.98232e-07
7.76896e-07
4.1778e-07
7.64851e-07
5.39519e-07
7.53498e-07
6.62966e-07
7.42674e-07
7.87674e-07
7.3222e-07
9.13225e-07
7.21984e-07
1.03922e-06
7.11821e-07
1.16527e-06
7.01596e-07
1.29102e-06
6.91184e-07
1.41609e-06
6.80471e-07
1.54014e-06
6.69358e-07
1.66283e-06
6.57761e-07
1.78383e-06
6.4561e-07
1.90283e-06
6.32853e-07
2.01952e-06
6.19453e-07
2.13363e-06
6.05389e-07
2.24489e-06
5.90653e-07
2.35306e-06
5.75255e-07
2.45792e-06
5.59214e-07
2.55926e-06
5.4256e-07
2.65692e-06
5.25333e-07
2.75075e-06
5.07583e-07
2.8406e-06
4.89361e-07
2.92637e-06
4.70726e-07
4.51739e-07
-1.18637e-07
4.5345e-07
-3.08081e-07
9.46261e-07
-4.81824e-07
1.1476e-06
-6.12782e-07
1.19629e-06
-6.99393e-07
1.17732e-06
-7.4705e-07
1.13119e-06
-7.62089e-07
1.07636e-06
-7.50211e-07
1.02107e-06
-7.16195e-07
9.68877e-07
-6.63966e-07
9.21108e-07
-5.96728e-07
8.78089e-07
-5.17105e-07
8.39677e-07
-4.27246e-07
8.05523e-07
-3.28922e-07
7.75205e-07
-2.23597e-07
7.48287e-07
-1.12483e-07
7.24352e-07
3.40872e-09
7.03015e-07
1.23224e-07
6.83931e-07
2.4625e-07
6.66778e-07
3.71871e-07
6.51275e-07
4.99555e-07
6.37166e-07
6.28834e-07
6.24219e-07
7.59288e-07
6.1222e-07
8.90533e-07
6.00975e-07
1.02221e-06
5.90305e-07
1.15399e-06
5.80046e-07
1.28553e-06
5.70049e-07
1.41654e-06
5.60178e-07
1.5467e-06
5.5031e-07
1.67572e-06
5.40341e-07
1.8033e-06
5.30176e-07
1.92917e-06
5.19739e-07
2.05306e-06
5.08966e-07
2.1747e-06
4.9781e-07
2.29385e-06
4.86237e-07
2.41028e-06
4.74224e-07
2.52377e-06
4.61764e-07
2.63413e-06
4.4886e-07
2.74116e-06
4.35524e-07
2.84472e-06
4.21777e-07
2.94466e-06
4.07648e-07
3.04084e-06
3.93172e-07
3.13318e-06
3.78388e-07
3.6334e-07
-1.82532e-07
6.35982e-07
-4.28751e-07
1.19248e-06
-6.21035e-07
1.33989e-06
-7.42776e-07
1.31804e-06
-8.04806e-07
1.23935e-06
-8.20092e-07
1.14648e-06
-7.99412e-07
1.05568e-06
-7.51139e-07
9.72799e-07
-6.81657e-07
8.99395e-07
-5.9581e-07
8.3526e-07
-4.97274e-07
7.79553e-07
-3.88862e-07
7.31265e-07
-2.72745e-07
6.89406e-07
-1.5061e-07
6.5307e-07
-2.37803e-08
6.21457e-07
1.06699e-07
5.93872e-07
2.39995e-07
5.69719e-07
3.75441e-07
5.48485e-07
5.12489e-07
5.2973e-07
6.50688e-07
5.13075e-07
7.89661e-07
4.98193e-07
9.29083e-07
4.84797e-07
1.06867e-06
4.72636e-07
1.20815e-06
4.61489e-07
1.3473e-06
4.51158e-07
1.48588e-06
4.41469e-07
1.62366e-06
4.32264e-07
1.76044e-06
4.23404e-07
1.89598e-06
4.14766e-07
2.03008e-06
4.06243e-07
2.16251e-06
3.9774e-07
2.29307e-06
3.89178e-07
2.42155e-06
3.80491e-07
2.54774e-06
3.71625e-07
2.67143e-06
3.62541e-07
2.79245e-06
3.53208e-07
2.9106e-06
3.43609e-07
3.02573e-06
3.33734e-07
3.13767e-06
3.23584e-07
3.24628e-06
3.13167e-07
3.35143e-06
3.02497e-07
3.45301e-06
2.91594e-07
3.55091e-06
2.80483e-07
2.69193e-07
-2.93217e-07
9.29199e-07
-5.94213e-07
1.49348e-06
-7.60546e-07
1.50622e-06
-8.17478e-07
1.37497e-06
-8.00359e-07
1.22223e-06
-7.33713e-07
1.07983e-06
-6.33973e-07
9.55936e-07
-5.12306e-07
8.51132e-07
-3.76296e-07
7.63385e-07
-2.31044e-07
6.90008e-07
-7.99831e-08
6.28492e-07
7.45556e-08
5.76726e-07
2.30977e-07
5.32984e-07
3.88187e-07
4.9586e-07
5.45435e-07
4.64208e-07
7.02211e-07
4.37097e-07
8.58165e-07
4.13765e-07
1.01307e-06
3.93585e-07
1.16675e-06
3.76041e-07
1.31913e-06
3.60703e-07
1.47011e-06
3.47208e-07
1.61966e-06
3.35254e-07
1.76771e-06
3.24579e-07
1.91424e-06
3.14962e-07
2.05919e-06
3.06209e-07
2.2025e-06
2.98154e-07
2.34412e-06
2.90651e-07
2.48395e-06
2.83572e-07
2.62191e-06
2.76806e-07
2.75789e-06
2.70257e-07
2.89179e-06
2.63841e-07
3.02348e-06
2.57488e-07
3.15283e-06
2.51139e-07
3.27971e-06
2.44745e-07
3.40399e-06
2.38268e-07
3.52552e-06
2.31679e-07
3.64417e-06
2.24957e-07
3.75981e-06
2.18091e-07
3.87232e-06
2.11074e-07
3.98158e-06
2.03906e-07
4.08748e-06
1.96595e-07
4.18993e-06
1.8915e-07
4.28882e-06
1.81586e-07
1.73921e-07
-4.93672e-07
1.42287e-06
-7.57451e-07
1.75725e-06
-7.44815e-07
1.49358e-06
-5.98964e-07
1.22912e-06
-3.93897e-07
1.01716e-06
-1.63185e-07
8.4912e-07
7.65086e-08
7.16242e-07
3.15903e-07
6.11738e-07
5.50043e-07
5.29245e-07
7.76617e-07
4.63434e-07
9.94764e-07
4.10345e-07
1.20438e-06
3.67115e-07
1.40574e-06
3.31624e-07
1.59933e-06
3.02264e-07
1.78574e-06
2.77802e-07
1.96555e-06
2.57284e-07
2.13935e-06
2.39962e-07
2.30769e-06
2.25248e-07
2.47106e-06
2.1267e-07
2.62992e-06
2.01847e-07
2.78465e-06
1.92472e-07
2.93562e-06
1.84291e-07
3.0831e-06
1.77092e-07
3.22737e-06
1.707e-07
3.36861e-06
1.64966e-07
3.507e-06
1.59766e-07
3.64266e-06
1.54992e-07
3.77568e-06
1.50551e-07
3.90612e-06
1.46365e-07
4.03401e-06
1.42367e-07
4.15935e-06
1.38498e-07
4.28213e-06
1.34712e-07
4.4023e-06
1.30966e-07
4.51982e-06
1.2723e-07
4.63461e-06
1.23476e-07
4.7466e-06
1.19684e-07
4.85572e-06
1.15842e-07
4.96187e-06
1.11938e-07
5.06498e-06
1.07969e-07
5.16495e-06
1.03933e-07
5.26171e-06
9.98335e-08
5.35519e-06
9.56757e-08
5.44531e-06
9.14664e-08
8.72171e-08
-6.74561e-07
2.09743e-06
-3.76262e-07
1.45895e-06
1.95263e-07
9.22058e-07
7.41056e-07
6.83325e-07
1.23005e-06
5.28167e-07
1.66757e-06
4.11604e-07
2.05811e-06
3.25696e-07
2.40648e-06
2.63371e-07
2.71828e-06
2.1744e-07
2.99898e-06
1.82735e-07
3.25332e-06
1.56002e-07
3.48531e-06
1.35125e-07
3.69831e-06
1.18629e-07
3.89512e-06
1.05449e-07
4.07812e-06
9.4807e-08
4.24927e-06
8.61327e-08
4.41023e-06
7.9e-08
4.56239e-06
7.30856e-08
4.70692e-06
6.8141e-08
4.8448e-06
6.39728e-08
4.97684e-06
6.04289e-08
5.10374e-06
5.73884e-08
5.22608e-06
5.47541e-08
5.34433e-06
5.24469e-08
5.4589e-06
5.04022e-08
5.5701e-06
4.85666e-08
5.67819e-06
4.68954e-08
5.78339e-06
4.53515e-08
5.88585e-06
4.39036e-08
5.9857e-06
4.25256e-08
6.083e-06
4.11959e-08
6.17781e-06
3.98966e-08
6.27017e-06
3.8613e-08
6.36006e-06
3.73336e-08
6.44749e-06
3.60496e-08
6.53242e-06
3.47545e-08
6.61482e-06
3.3444e-08
6.69464e-06
3.21156e-08
6.77184e-06
3.07684e-08
6.84637e-06
2.94032e-08
6.91818e-06
2.80214e-08
6.98723e-06
2.66262e-08
7.05348e-06
2.52201e-08
2.38074e-08
2.09743e-06
3.55639e-06
4.47845e-06
5.16177e-06
5.68994e-06
6.10154e-06
6.42724e-06
6.69061e-06
6.90805e-06
7.09078e-06
7.24679e-06
7.38191e-06
7.50054e-06
7.60599e-06
7.7008e-06
7.78693e-06
7.86593e-06
7.93901e-06
8.00716e-06
8.07113e-06
8.13156e-06
8.18895e-06
8.2437e-06
8.29615e-06
8.34655e-06
8.39512e-06
8.44201e-06
8.48736e-06
8.53127e-06
8.57379e-06
8.61499e-06
8.65488e-06
8.6935e-06
8.73083e-06
8.76688e-06
8.80163e-06
8.83508e-06
8.86719e-06
8.89796e-06
8.92737e-06
8.95539e-06
8.98201e-06
9.00723e-06
)
;

boundaryField
{
    movingWall
    {
        type            calculated;
        value           uniform 0;
    }
    fixedWalls
    {
        type            calculated;
        value           uniform 0;
    }
    frontAndBack
    {
        type            empty;