/*--------------------------------*- C++ -*----------------------------------*\
  =========                 |
  \\      /  F ield         | OpenFOAM: The Open Source CFD Toolbox
   \\    /   O peration     | Website:  https://openfoam.org
    \\  /    A nd           | Version:  9
     \\/     M anipulation  |
\*---------------------------------------------------------------------------*/
FoamFile
{
    format      ascii;
    class       volVectorField;
    location    "1.5";
    object      U;
}
// * * * * * * * * * * * * * * * * * * * * * * * * * * * * * * * * * * * * * //

dimensions      [0 1 -1 0 0 0 0];

internalField   nonuniform List<vector> 
1250
(
(0.115289 0.274784 0)
(0.119847 0.271153 0)
(0.124102 0.266482 0)
(0.128038 0.260861 0)
(0.131651 0.254396 0)
(0.134947 0.247199 0)
(0.137937 0.239382 0)
(0.140642 0.231056 0)
(0.143084 0.222324 0)
(0.145288 0.213277 0)
(0.14728 0.203993 0)
(0.149084 0.194539 0)
(0.15072 0.184965 0)
(0.152207 0.17531 0)
(0.153559 0.165601 0)
(0.154785 0.155856 0)
(0.155889 0.146083 0)
(0.156873 0.136288 0)
(0.000163508 0.0109916 0)
(0.00112487 0.0330153 0)
(0.00314924 0.0548255 0)
(0.00592509 0.0761108 0)
(0.00927918 0.0965506 0)
(0.0130733 0.11586 0)
(0.0171745 0.133824 0)
(0.021471 0.150321 0)
(0.025881 0.165324 0)
(0.0303547 0.17889 0)
(0.0348726 0.191137 0)
(0.0394404 0.202221 0)
(0.0440816 0.212303 0)
(0.0488291 0.221533 0)
(0.0537167 0.230025 0)
(0.0587722 0.237852 0)
(0.0640119 0.245041 0)
(0.0694378 0.251577 0)
(0.075036 0.25741 0)
(0.0807775 0.262467 0)
(0.0866205 0.266661 0)
(0.0925134 0.269905 0)
(0.0983982 0.272123 0)
(0.104214 0.273253 0)
(0.109902 0.273257 0)
(0.115407 0.272123 0)
(0.120677 0.269865 0)
(0.125679 0.266527 0)
(0.130379 0.262169 0)
(0.134758 0.256872 0)
(0.138807 0.250733 0)
(0.142528 0.243855 0)
(0.145928 0.236343 0)
(0.149023 0.228303 0)
(0.151832 0.219833 0)
(0.15438 0.211023 0)
(0.156689 0.201953 0)
(0.158783 0.192689 0)
(0.160683 0.183285 0)
(0.162409 0.173784 0)
(0.163975 0.164217 0)
(0.165392 0.154606 0)
(0.166667 0.144964 0)
(0.167803 0.135298 0)
(0.000153595 0.0104245 0)
(0.00106919 0.0314783 0)
(0.00301381 0.0524693 0)
(0.00570499 0.073083 0)
(0.00898891 0.0929956 0)
(0.0127417 0.111913 0)
(0.0168404 0.129605 0)
(0.021178 0.145926 0)
(0.0256729 0.16082 0)
(0.0302714 0.174315 0)
(0.0349478 0.1865 0)
(0.0397008 0.197511 0)
(0.0445474 0.207496 0)
(0.0495148 0.216597 0)
(0.0546336 0.22493 0)
(0.0599299 0.232576 0)
(0.0654205 0.239575 0)
(0.0711089 0.245925 0)
(0.0769839 0.251592 0)
(0.0830193 0.256516 0)
(0.0891761 0.260625 0)
(0.0954044 0.263838 0)
(0.101647 0.266083 0)
(0.107844 0.267301 0)
(0.113935 0.267452 0)
(0.119861 0.266519 0)
(0.125572 0.264508 0)
(0.131022 0.261452 0)
(0.136178 0.257404 0)
(0.141015 0.252434 0)
(0.14552 0.246628 0)
(0.149687 0.240081 0)
(0.15352 0.23289 0)
(0.157032 0.225155 0)
(0.160237 0.21697 0)
(0.163156 0.208423 0)
(0.165811 0.199593 0)
(0.168224 0.190546 0)
(0.170417 0.18134 0)
(0.172407 0.17202 0)
(0.174212 0.162619 0)
(0.175844 0.153165 0)
(0.17731 0.143674 0)
(0.178616 0.134157 0)
(0.00014264 0.00988882 0)
(0.00100468 0.0300141 0)
(0.0028516 0.0502057 0)
(0.00543189 0.070147 0)
(0.00861261 0.0895141 0)
(0.0122859 0.108009 0)
(0.0163408 0.125389 0)
(0.0206775 0.14149 0)
(0.0252163 0.156232 0)
(0.0299015 0.169616 0)
(0.0347025 0.181709 0)
(0.0396115 0.192622 0)
(0.0446385 0.20249 0)
(0.0498051 0.211448 0)
(0.0551374 0.219611 0)
(0.0606594 0.227066 0)
(0.0663873 0.233862 0)
(0.0723255 0.240013 0)
(0.0784649 0.245498 0)
(0.0847823 0.250272 0)
(0.0912412 0.254273 0)
(0.097794 0.257431 0)
(0.104385 0.25968 0)
(0.110955 0.260963 0)
(0.117442 0.261238 0)
(0.123787 0.260485 0)
(0.129935 0.258705 0)
(0.135839 0.25592 0)
(0.141458 0.252175 0)
(0.146766 0.247531 0)
(0.151741 0.242063 0)
(0.156373 0.235856 0)
(0.160662 0.229 0)
(0.164615 0.221589 0)
(0.168242 0.213711 0)
(0.171561 0.205451 0)
(0.174592 0.196887 0)
(0.177354 0.188085 0)
(0.179868 0.179104 0)
(0.182152 0.169991 0)
(0.184223 0.160783 0)
(0.186094 0.15151 0)
(0.187774 0.142193 0)
(0.189272 0.132847 0)
(0.000130597 0.00938921 0)
(0.000930965 0.0286364 0)
(0.00266147 0.0480569 0)
(0.0051037 0.0673327 0)
(0.00814701 0.0861421 0)
(0.0117012 0.104186 0)
(0.0156694 0.121215 0)
(0.0199611 0.137053 0)
(0.0245007 0.151598 0)
(0.0292323 0.16483 0)
(0.0341216 0.176792 0)
(0.0391548 0.187577 0)
(0.0443355 0.197304 0)
(0.049679 0.2061 0)
(0.0552065 0.214077 0)
(0.0609385 0.221328 0)
(0.0668899 0.22791 0)
(0.0730654 0.233847 0)
(0.0794574 0.239135 0)
(0.0860449 0.243739 0)
(0.0927941 0.247612 0)
(0.0996601 0.250692 0)
(0.106589 0.252919 0)
(0.113522 0.254242 0)
(0.120398 0.254618 0)
(0.127156 0.254024 0)
(0.133739 0.252455 0)
(0.140096 0.249927 0)
(0.146184 0.246476 0)
(0.151969 0.242152 0)
(0.157425 0.237022 0)
(0.162539 0.231161 0)
(0.167303 0.224651 0)
(0.171718 0.217579 0)
(0.175792 0.210027 0)
(0.179539 0.202077 0)
(0.182973 0.193804 0)
(0.186113 0.185274 0)
(0.188978 0.176546 0)
(0.191585 0.167668 0)
(0.193951 0.158681 0)
(0.196089 0.149616 0)
(0.198011 0.140498 0)
(0.199724 0.131345 0)
(0.000117397 0.00893036 0)
(0.00084744 0.0273595 0)
(0.00244179 0.0460462 0)
(0.00471754 0.0646715 0)
(0.00758793 0.0829173 0)
(0.0109821 0.100487 0)
(0.0148193 0.11713 0)
(0.0190204 0.13266 0)
(0.0235162 0.146962 0)
(0.0282521 0.159996 0)
(0.0331915 0.171786 0)
(0.0383157 0.182408 0)
(0.0436218 0.191966 0)
(0.0491189 0.200576 0)
(0.0548224 0.20835 0)
(0.0607487 0.215381 0)
(0.0669102 0.221733 0)
(0.0733109 0.227443 0)
(0.079944 0.232516 0)
(0.0867904 0.236932 0)
(0.0938185 0.240654 0)
(0.100986 0.243632 0)
(0.108241 0.245814 0)
(0.115527 0.24715 0)
(0.122781 0.2476 0)
(0.129944 0.247141 0)
(0.136956 0.245762 0)
(0.143763 0.243473 0)
(0.150319 0.240302 0)
(0.156586 0.236289 0)
(0.162532 0.231493 0)
(0.168137 0.22598 0)
(0.173391 0.219824 0)
(0.178287 0.213102 0)
(0.18283 0.205894 0)
(0.187028 0.198274 0)
(0.190892 0.190316 0)
(0.194439 0.182084 0)
(0.197684 0.173635 0)
(0.200643 0.165021 0)
(0.203334 0.156282 0)
(0.205768 0.147454 0)
(0.207958 0.138562 0)
(0.209913 0.129627 0)
(0.000102877 0.0085174 0)
(0.000753045 0.0261988 0)
(0.00218981 0.0441985 0)
(0.00426874 0.062196 0)
(0.00692891 0.0798788 0)
(0.0101206 0.0969562 0)
(0.0137811 0.113179 0)
(0.0178449 0.128358 0)
(0.0222509 0.142368 0)
(0.0269478 0.155155 0)
(0.0318979 0.166729 0)
(0.0370785 0.177147 0)
(0.0424809 0.186501 0)
(0.0481074 0.194899 0)
(0.0539674 0.202447 0)
(0.0600722 0.209239 0)
(0.0664306 0.215346 0)
(0.0730452 0.220812 0)
(0.0799088 0.225653 0)
(0.0870035 0.229862 0)
(0.0942997 0.233413 0)
(0.101757 0.236265 0)
(0.109327 0.238375 0)
(0.116953 0.239698 0)
(0.124575 0.240197 0)
(0.132132 0.239846 0)
(0.139564 0.238633 0)
(0.146815 0.236562 0)
(0.153835 0.233652 0)
(0.160581 0.229939 0)
(0.16702 0.22547 0)
(0.173124 0.220303 0)
(0.178877 0.214503 0)
(0.184269 0.208141 0)
(0.189298 0.201289 0)
(0.193967 0.194018 0)
(0.198285 0.186396 0)
(0.202264 0.178486 0)
(0.205916 0.170344 0)
(0.209257 0.162021 0)
(0.2123 0.153559 0)
(0.21506 0.144995 0)
(0.217547 0.136356 0)
(0.219771 0.127667 0)
(8.67651e-05 0.00815612 0)
(0.000646085 0.0251714 0)
(0.00190124 0.0425405 0)
(0.00375024 0.0599411 0)
(0.00616039 0.0770674 0)
(0.00910506 0.0936376 0)
(0.0125418 0.109409 0)
(0.0164204 0.124193 0)
(0.0206898 0.137861 0)
(0.0253037 0.15035 0)
(0.0302246 0.161656 0)
(0.0354267 0.171825 0)
(0.0408956 0.180937 0)
(0.0466272 0.189089 0)
(0.0526241 0.196385 0)
(0.0588917 0.202917 0)
(0.0654347 0.208759 0)
(0.0722525 0.213964 0)
(0.079337 0.218556 0)
(0.0866705 0.222539 0)
(0.0942249 0.225898 0)
(0.101962 0.228602 0)
(0.109834 0.230615 0)
(0.117788 0.231898 0)
(0.125765 0.232418 0)
(0.133704 0.232149 0)
(0.141544 0.231076 0)
(0.149229 0.2292 0)
(0.156705 0.226533 0)
(0.163926 0.223104 0)
(0.170854 0.218951 0)
(0.177458 0.214123 0)
(0.183716 0.20868 0)
(0.189612 0.202683 0)
(0.195139 0.196198 0)
(0.200296 0.18929 0)
(0.205087 0.182022 0)
(0.209519 0.174456 0)
(0.213603 0.166645 0)
(0.217351 0.15864 0)
(0.220775 0.150483 0)
(0.223887 0.14221 0)
(0.226699 0.133853 0)
(0.229221 0.125437 0)
(6.86378e-05 0.00785341 0)
(0.000524044 0.0242968 0)
(0.00156987 0.0411025 0)
(0.00315187 0.0579447 0)
(0.00526875 0.0745265 0)
(0.00791939 0.0905781 0)
(0.0110836 0.105868 0)
(0.0147283 0.120213 0)
(0.0188142 0.133487 0)
(0.0233011 0.145622 0)
(0.0281531 0.156606 0)
(0.0333419 0.166476 0)
(0.038848 0.1753 0)
(0.0446606 0.18317 0)
(0.0507753 0.190182 0)
(0.057191 0.196428 0)
(0.0639067 0.201984 0)
(0.0709183 0.206908 0)
(0.0782154 0.211233 0)
(0.0857796 0.214972 0)
(0.0935834 0.218119 0)
(0.10159 0.220653 0)
(0.109754 0.222545 0)
(0.118024 0.223764 0)
(0.126342 0.224278 0)
(0.134649 0.224063 0)
(0.142884 0.223105 0)
(0.150988 0.221399 0)
(0.158909 0.218953 0)
(0.166595 0.215789 0)
(0.174006 0.211938 0)
(0.181105 0.207442 0)
(0.187866 0.20235 0)
(0.19427 0.196719 0)
(0.200302 0.190607 0)
(0.205957 0.184073 0)
(0.211234 0.177176 0)
(0.216137 0.169973 0)
(0.220673 0.162516 0)
(0.22485 0.154852 0)
(0.228678 0.147026 0)
(0.232169 0.139073 0)
(0.235332 0.131026 0)
(0.238177 0.12291 0)
(4.78752e-05 0.00761768 0)
(0.000383321 0.0235984 0)
(0.00118688 0.0399189 0)
(0.00245937 0.0562492 0)
(0.00423517 0.0723031 0)
(0.0065415 0.0878269 0)
(0.00938256 0.102605 0)
(0.0127442 0.116466 0)
(0.0165999 0.129291 0)
(0.0209169 0.141013 0)
(0.0256615 0.151616 0)
(0.0308036 0.16113 0)
(0.0363189 0.169617 0)
(0.0421897 0.177161 0)
(0.0484042 0.183854 0)
(0.0549542 0.189784 0)
(0.0618324 0.195031 0)
(0.0690297 0.199653 0)
(0.0765326 0.203693 0)
(0.0843208 0.207169 0)
(0.0923668 0.210085 0)
(0.100634 0.212428 0)
(0.10908 0.214177 0)
(0.117654 0.215307 0)
(0.1263 0.21579 0)
(0.13496 0.215604 0)
(0.143574 0.214733 0)
(0.152083 0.213172 0)
(0.160433 0.210924 0)
(0.168571 0.208005 0)
(0.176452 0.204439 0)
(0.184037 0.200262 0)
(0.191296 0.195516 0)
(0.198203 0.190249 0)
(0.20474 0.184512 0)
(0.210898 0.178359 0)
(0.21667 0.171844 0)
(0.222055 0.16502 0)
(0.227056 0.157936 0)
(0.231679 0.150637 0)
(0.235932 0.143166 0)
(0.239822 0.135559 0)
(0.243359 0.127849 0)
(0.246551 0.120061 0)
(2.36139e-05 0.00745953 0)
(0.000218881 0.0231046 0)
(0.000740072 0.0390305 0)
(0.00165324 0.0549026 0)
(0.00303421 0.0704486 0)
(0.00494194 0.0854359 0)
(0.00740731 0.0996706 0)
(0.0104364 0.113 0)
(0.0140166 0.125318 0)
(0.0181228 0.136563 0)
(0.0227241 0.146721 0)
(0.0277886 0.155819 0)
(0.0332873 0.163914 0)
(0.0391958 0.171083 0)
(0.0454944 0.177416 0)
(0.0521669 0.182998 0)
(0.059199 0.187907 0)
(0.0665757 0.192206 0)
(0.0742792 0.19594 0)
(0.0822867 0.199136 0)
(0.0905693 0.201803 0)
(0.0990913 0.203936 0)
(0.10781 0.205523 0)
(0.116677 0.206541 0)
(0.125638 0.206969 0)
(0.134636 0.206786 0)
(0.143612 0.205978 0)
(0.152509 0.204537 0)
(0.161269 0.202463 0)
(0.169841 0.199767 0)
(0.178177 0.196469 0)
(0.186234 0.192597 0)
(0.193978 0.188185 0)
(0.201379 0.183275 0)
(0.208417 0.177912 0)
(0.215074 0.172145 0)
(0.221341 0.166021 0)
(0.227213 0.159588 0)
(0.232688 0.152893 0)
(0.237769 0.145979 0)
(0.242459 0.138886 0)
(0.246766 0.131649 0)
(0.250695 0.1243 0)
(0.254254 0.116867 0)
(-5.29064e-06 0.00739287 0)
(2.37352e-05 0.0228511 0)
(0.000212645 0.0384862 0)
(0.000707191 0.0539601 0)
(0.00163206 0.0690197 0)
(0.00308208 0.0834601 0)
(0.00511723 0.0971167 0)
(0.00776487 0.109863 0)
(0.0110262 0.121609 0)
(0.0148841 0.132308 0)
(0.0193099 0.141952 0)
(0.0242701 0.150568 0)
(0.0297305 0.15821 0)
(0.0356596 0.164953 0)
(0.0420295 0.170881 0)
(0.0488154 0.176078 0)
(0.0559953 0.180621 0)
(0.0635474 0.184572 0)
(0.0714486 0.18798 0)
(0.0796725 0.190877 0)
(0.0881883 0.193278 0)
(0.0969594 0.195185 0)
(0.105944 0.196589 0)
(0.115094 0.197476 0)
(0.124357 0.197828 0)
(0.133679 0.197626 0)
(0.143001 0.196857 0)
(0.152266 0.195512 0)
(0.161419 0.193589 0)
(0.170404 0.191095 0)
(0.179174 0.188045 0)
(0.187684 0.18446 0)
(0.195896 0.18037 0)
(0.203777 0.175809 0)
(0.211301 0.170817 0)
(0.218449 0.165435 0)
(0.225206 0.159707 0)
(0.231562 0.153675 0)
(0.237512 0.147382 0)
(0.243055 0.140868 0)
(0.248192 0.134171 0)
(0.252925 0.127326 0)
(0.257259 0.120363 0)
(0.261201 0.11331 0)
(-4.06494e-05 0.00743601 0)
(-0.000212179 0.0228824 0)
(-0.0004184 0.0383461 0)
(-0.000413731 0.0534872 0)
(-1.55308e-05 0.0680801 0)
(0.000912065 0.0819582 0)
(0.00246059 0.0949953 0)
(0.00467899 0.107098 0)
(0.0075819 0.118204 0)
(0.0111588 0.128283 0)
(0.0153828 0.137337 0)
(0.0202175 0.145399 0)
(0.0256234 0.152524 0)
(0.031561 0.158784 0)
(0.0379936 0.164259 0)
(0.0448877 0.169031 0)
(0.0522123 0.173174 0)
(0.0599384 0.176752 0)
(0.0680368 0.179814 0)
(0.0764766 0.182395 0)
(0.0852241 0.184514 0)
(0.0942414 0.186179 0)
(0.103486 0.187385 0)
(0.112912 0.188124 0)
(0.122467 0.18838 0)
(0.132098 0.188139 0)
(0.141749 0.187387 0)
(0.151364 0.186116 0)
(0.160887 0.184323 0)
(0.170264 0.182009 0)
(0.179445 0.179187 0)
(0.188385 0.175873 0)
(0.197043 0.172091 0)
(0.205383 0.167869 0)
(0.213377 0.16324 0)
(0.221 0.158241 0)
(0.228233 0.152909 0)
(0.235065 0.147283 0)
(0.241484 0.141401 0)
(0.247486 0.135301 0)
(0.253069 0.129017 0)
(0.258233 0.122582 0)
(0.26298 0.116027 0)
(0.267313 0.109376 0)
(-8.54231e-05 0.00761305 0)
(-0.000502274 0.0232561 0)
(-0.00118319 0.0386844 0)
(-0.00175611 0.053561 0)
(-0.00196633 0.0677017 0)
(-0.00163155 0.0809926 0)
(-0.000627354 0.0933583 0)
(0.00111662 0.104749 0)
(0.00362665 0.115135 0)
(0.00689698 0.124512 0)
(0.0109004 0.132896 0)
(0.0155964 0.140328 0)
(0.0209386 0.146866 0)
(0.0268791 0.152582 0)
(0.0333717 0.157554 0)
(0.0403731 0.161858 0)
(0.0478435 0.165568 0)
(0.0557455 0.168746 0)
(0.0640434 0.17144 0)
(0.072701 0.173688 0)
(0.081681 0.175511 0)
(0.0909434 0.176921 0)
(0.100445 0.177917 0)
(0.11014 0.178493 0)
(0.119977 0.178638 0)
(0.129905 0.178341 0)
(0.13987 0.177588 0)
(0.149815 0.176371 0)
(0.159687 0.174686 0)
(0.169432 0.172534 0)
(0.179 0.169921 0)
(0.188345 0.16686 0)
(0.197423 0.16337 0)
(0.206198 0.159474 0)
(0.214637 0.1552 0)
(0.222714 0.150578 0)
(0.230406 0.145642 0)
(0.237696 0.140424 0)
(0.244571 0.13496 0)
(0.251024 0.129283 0)
(0.257047 0.123425 0)
(0.262638 0.117416 0)
(0.267796 0.111286 0)
(0.272523 0.105057 0)
(-0.000143283 0.00795667 0)
(-0.000865216 0.0240477 0)
(-0.0021229 0.0395936 0)
(-0.00338054 0.0542733 0)
(-0.00429413 0.0679658 0)
(-0.00462896 0.0806296 0)
(-0.00422654 0.0922567 0)
(-0.0029975 0.102852 0)
(-0.00090736 0.11243 0)
(0.00204011 0.121014 0)
(0.00581439 0.12864 0)
(0.0103682 0.135362 0)
(0.0156468 0.141241 0)
(0.0215928 0.14635 0)
(0.0281494 0.150764 0)
(0.0352633 0.154558 0)
(0.0428851 0.1578 0)
(0.050969 0.16055 0)
(0.0594718 0.162857 0)
(0.0683519 0.164755 0)
(0.0775675 0.16627 0)
(0.0870762 0.167412 0)
(0.0968337 0.168187 0)
(0.106793 0.168589 0)
(0.116905 0.168612 0)
(0.127119 0.168244 0)
(0.137382 0.167475 0)
(0.147639 0.166296 0)
(0.157839 0.164703 0)
(0.167928 0.162693 0)
(0.177857 0.160272 0)
(0.187579 0.157448 0)
(0.19705 0.154235 0)
(0.206232 0.150652 0)
(0.215089 0.146723 0)
(0.223593 0.142471 0)
(0.231719 0.137926 0)
(0.239446 0.133117 0)
(0.246758 0.128073 0)
(0.253644 0.122826 0)
(0.260094 0.117403 0)
(0.266102 0.111833 0)
(0.271665 0.106142 0)
(0.276782 0.100354 0)
(-0.000219723 0.00851167 0)
(-0.00132718 0.0253557 0)
(-0.0032932 0.0411901 0)
(-0.00536675 0.0557341 0)
(-0.0070932 0.0689632 0)
(-0.00817963 0.0809377 0)
(-0.00843445 0.0917378 0)
(-0.00775338 0.101438 0)
(-0.00609864 0.110104 0)
(-0.00347796 0.117795 0)
(7.08056e-05 0.124571 0)
(0.0044911 0.130497 0)
(0.00971757 0.135642 0)
(0.0156814 0.140079 0)
(0.0223145 0.143882 0)
(0.029553 0.147121 0)
(0.0373375 0.149861 0)
(0.0456135 0.152158 0)
(0.0543303 0.154056 0)
(0.0634402 0.155591 0)
(0.0728971 0.156785 0)
(0.0826553 0.157653 0)
(0.0926689 0.158198 0)
(0.10289 0.158419 0)
(0.113271 0.15831 0)
(0.123761 0.157861 0)
(0.134309 0.157064 0)
(0.144862 0.155911 0)
(0.155369 0.154394 0)
(0.165779 0.152512 0)
(0.176043 0.150267 0)
(0.186114 0.147665 0)
(0.195948 0.144715 0)
(0.205506 0.141433 0)
(0.214751 0.137836 0)
(0.223653 0.133947 0)
(0.232184 0.129788 0)
(0.24032 0.125384 0)
(0.248045 0.120762 0)
(0.255341 0.115947 0)
(0.262199 0.110966 0)
(0.268608 0.105844 0)
(0.274563 0.100606 0)
(0.28006 0.0952716 0)
(-0.000323081 0.00933975 0)
(-0.00192523 0.0273098 0)
(-0.00476963 0.0436202 0)
(-0.00781937 0.0580738 0)
(-0.0104832 0.0707947 0)
(-0.012406 0.0819858 0)
(-0.0133673 0.0918428 0)
(-0.0132554 0.100526 0)
(-0.0120372 0.108162 0)
(-0.009731 0.114849 0)
(-0.00638773 0.120675 0)
(-0.00207789 0.125717 0)
(0.00312074 0.130051 0)
(0.0091265 0.133753 0)
(0.0158582 0.136891 0)
(0.0232411 0.139533 0)
(0.0312059 0.141738 0)
(0.0396892 0.143556 0)
(0.0486328 0.145029 0)
(0.057983 0.146187 0)
(0.067689 0.147053 0)
(0.077702 0.147639 0)
(0.0879741 0.14795 0)
(0.098457 0.147985 0)
(0.109102 0.147739 0)
(0.11986 0.147204 0)
(0.130681 0.146371 0)
(0.141515 0.145233 0)
(0.15231 0.143782 0)
(0.163019 0.142016 0)
(0.173592 0.139934 0)
(0.183984 0.13754 0)
(0.194152 0.13484 0)
(0.204054 0.131847 0)
(0.213656 0.128573 0)
(0.222923 0.125037 0)
(0.231827 0.121257 0)
(0.240344 0.117254 0)
(0.248451 0.113051 0)
(0.256133 0.108671 0)
(0.263373 0.104136 0)
(0.270163 0.0994679 0)
(0.276491 0.0946897 0)
(0.282355 0.0898207 0)
(-0.000466245 0.0105272 0)
(-0.00271272 0.0300823 0)
(-0.0066556 0.0470678 0)
(-0.0108756 0.061446 0)
(-0.0146148 0.073569 0)
(-0.0174565 0.0838389 0)
(-0.019161 0.0926009 0)
(-0.0196214 0.100119 0)
(-0.0188206 0.106588 0)
(-0.0167965 0.112151 0)
(-0.0136197 0.116921 0)
(-0.00937847 0.120989 0)
(-0.00416806 0.124439 0)
(0.0019155 0.127342 0)
(0.0087787 0.129767 0)
(0.0163347 0.131772 0)
(0.0245043 0.133412 0)
(0.0332154 0.13473 0)
(0.0424028 0.135761 0)
(0.0520068 0.136533 0)
(0.0619724 0.137065 0)
(0.0722476 0.137366 0)
(0.0827822 0.137441 0)
(0.0935273 0.137289 0)
(0.104434 0.136904 0)
(0.115455 0.13628 0)
(0.126539 0.135407 0)
(0.13764 0.134278 0)
(0.148707 0.132887 0)
(0.159694 0.131227 0)
(0.170553 0.129299 0)
(0.18124 0.127102 0)
(0.191712 0.124642 0)
(0.20193 0.121926 0)
(0.211856 0.118965 0)
(0.221457 0.115773 0)
(0.230703 0.112365 0)
(0.239568 0.108758 0)
(0.248029 0.104971 0)
(0.256067 0.101023 0)
(0.263666 0.0969348 0)
(0.270813 0.0927247 0)
(0.277496 0.0884124 0)
(0.28371 0.0840158 0)
(-0.000669751 0.0121968 0)
(-0.00376798 0.0339033 0)
(-0.00909393 0.0517628 0)
(-0.0147151 0.0660278 0)
(-0.0196756 0.0773981 0)
(-0.023507 0.0865513 0)
(-0.0259689 0.0940224 0)
(-0.0269776 0.100198 0)
(-0.0265471 0.105346 0)
(-0.0247463 0.109655 0)
(-0.021673 0.11326 0)
(-0.0174388 0.116266 0)
(-0.0121589 0.118758 0)
(-0.00594587 0.120807 0)
(0.00109352 0.122472 0)
(0.00886108 0.123807 0)
(0.0172677 0.124856 0)
(0.0262334 0.125657 0)
(0.0356864 0.126236 0)
(0.0455618 0.126616 0)
(0.0558004 0.126811 0)
(0.0663476 0.126828 0)
(0.0771513 0.126668 0)
(0.0881618 0.126331 0)
(0.0993306 0.125809 0)
(0.11061 0.125096 0)
(0.121951 0.124183 0)
(0.133308 0.123062 0)
(0.144634 0.121725 0)
(0.155883 0.120167 0)
(0.167008 0.118385 0)
(0.177968 0.116378 0)
(0.188721 0.114148 0)
(0.199227 0.111701 0)
(0.209451 0.109044 0)
(0.219358 0.106187 0)
(0.228918 0.103143 0)
(0.238105 0.0999252 0)
(0.246894 0.0965493 0)
(0.255266 0.0930312 0)
(0.263203 0.0893876 0)
(0.27069 0.0856351 0)
(0.277714 0.0817904 0)
(0.28427 0.0778694 0)
(-0.000967602 0.014527 0)
(-0.00520883 0.0390823 0)
(-0.0122837 0.0579899 0)
(-0.0195723 0.072016 0)
(-0.0258941 0.0823862 0)
(-0.0307564 0.0901532 0)
(-0.0339503 0.0960868 0)
(-0.0354415 0.10071 0)
(-0.0352947 0.104366 0)
(-0.0336225 0.107284 0)
(-0.0305587 0.109617 0)
(-0.0262431 0.111477 0)
(-0.0208134 0.112947 0)
(-0.0144 0.11409 0)
(-0.00712333 0.11496 0)
(0.000907522 0.115598 0)
(0.00959473 0.116039 0)
(0.0188512 0.11631 0)
(0.0285995 0.116432 0)
(0.0387706 0.116418 0)
(0.049302 0.116278 0)
(0.0601367 0.116014 0)
(0.0712216 0.115625 0)
(0.0825063 0.115108 0)
(0.0939424 0.114454 0)
(0.105483 0.113657 0)
(0.117081 0.112706 0)
(0.128692 0.111593 0)
(0.140271 0.11031 0)
(0.151772 0.10885 0)
(0.163154 0.10721 0)
(0.174374 0.105386 0)
(0.185393 0.10338 0)
(0.196173 0.101193 0)
(0.206678 0.0988317 0)
(0.216875 0.0963023 0)
(0.226735 0.0936141 0)
(0.23623 0.0907781 0)
(0.245336 0.0878062 0)
(0.254033 0.0847116 0)
(0.262302 0.081508 0)
(0.270128 0.0782092 0)
(0.277497 0.0748295 0)
(0.284403 0.0713823 0)
(-0.00141848 0.0177839 0)
(-0.00721729 0.0460375 0)
(-0.0165046 0.0660938 0)
(-0.0257472 0.0796137 0)
(-0.0335334 0.0886083 0)
(-0.0394049 0.0946289 0)
(-0.043235 0.0987224 0)
(-0.0450748 0.101554 0)
(-0.0450626 0.103536 0)
(-0.0433693 0.104925 0)
(-0.0401723 0.105885 0)
(-0.0356446 0.106523 0)
(-0.0299479 0.106916 0)
(-0.0232308 0.107117 0)
(-0.0156269 0.107164 0)
(-0.00725531 0.107089 0)
(0.00177874 0.106913 0)
(0.0113828 0.106651 0)
(0.0214752 0.106316 0)
(0.0319836 0.105913 0)
(0.0428437 0.105444 0)
(0.0539971 0.104907 0)
(0.0653901 0.104297 0)
(0.0769724 0.103608 0)
(0.0886964 0.10283 0)
(0.100516 0.101955 0)
(0.112387 0.100971 0)
(0.124265 0.0998697 0)
(0.136107 0.0986418 0)
(0.147871 0.09728 0)
(0.159518 0.0957787 0)
(0.171006 0.0941343 0)
(0.182298 0.0923451 0)
(0.193358 0.0904118 0)
(0.204152 0.088337 0)
(0.214649 0.0861255 0)
(0.224818 0.0837835 0)
(0.234635 0.0813191 0)
(0.244074 0.0787414 0)
(0.253116 0.0760605 0)
(0.261742 0.0732875 0)
(0.269938 0.0704335 0)
(0.277689 0.0675103 0)
(0.284988 0.064529 0)
(-0.00212808 0.0223777 0)
(-0.0100825 0.0553345 0)
(-0.0221496 0.0764725 0)
(-0.0336074 0.0889944 0)
(-0.0428574 0.0960656 0)
(-0.0495855 0.0998732 0)
(-0.0538238 0.101768 0)
(-0.0557538 0.102546 0)
(-0.0556135 0.102667 0)
(-0.0536458 0.102398 0)
(-0.0500796 0.101895 0)
(-0.0451239 0.101254 0)
(-0.0389658 0.100533 0)
(-0.0317712 0.0997683 0)
(-0.0236857 0.098983 0)
(-0.0148365 0.0981909 0)
(-0.00533459 0.0973996 0)
(0.00472435 0.0966126 0)
(0.0152564 0.0958299 0)
(0.0261877 0.0950485 0)
(0.0374533 0.0942629 0)
(0.0489951 0.0934657 0)
(0.0607598 0.0926477 0)
(0.0726983 0.0917988 0)
(0.0847645 0.0909077 0)
(0.0969143 0.0899631 0)
(0.109105 0.0889536 0)
(0.121296 0.0878686 0)
(0.133446 0.0866984 0)
(0.145517 0.0854346 0)
(0.15747 0.0840702 0)
(0.169268 0.0826004 0)
(0.180876 0.0810219 0)
(0.19226 0.0793333 0)
(0.203388 0.0775353 0)
(0.214231 0.0756301 0)
(0.224761 0.0736217 0)
(0.234952 0.0715153 0)
(0.244782 0.0693176 0)
(0.254232 0.0670359 0)
(0.263284 0.0646786 0)
(0.271923 0.0622544 0)
(0.280135 0.0597724 0)
(0.287914 0.0572418 0)
(-0.00329449 0.028965 0)
(-0.0142766 0.0677328 0)
(-0.0297626 0.0895342 0)
(-0.0435493 0.100215 0)
(-0.054009 0.10459 0)
(-0.0611655 0.1056 0)
(-0.0653153 0.104889 0)
(-0.0668236 0.103341 0)
(-0.0660558 0.101423 0)
(-0.0633412 0.0993847 0)
(-0.0589668 0.0973553 0)
(-0.0531805 0.0954017 0)
(-0.0461946 0.0935555 0)
(-0.038191 0.0918286 0)
(-0.0293253 0.0902221 0)
(-0.0197299 0.0887304 0)
(-0.00951829 0.0873447 0)
(0.00121283 0.0860544 0)
(0.0123801 0.0848472 0)
(0.0239109 0.0837105 0)
(0.0357422 0.082631 0)
(0.047818 0.0815949 0)
(0.0600877 0.0805884 0)
(0.0725052 0.0795976 0)
(0.0850272 0.0786086 0)
(0.0976131 0.077608 0)
(0.110224 0.0765831 0)
(0.122822 0.0755219 0)
(0.135371 0.0744137 0)
(0.147835 0.073249 0)
(0.160179 0.0720199 0)
(0.172371 0.07072 0)
(0.184378 0.0693447 0)
(0.196169 0.0678909 0)
(0.207715 0.0663574 0)
(0.21899 0.0647444 0)
(0.229967 0.0630535 0)
(0.240623 0.0612879 0)
(0.250938 0.0594514 0)
(0.260893 0.0575494 0)
(0.270471 0.0555875 0)
(0.279658 0.0535722 0)
(0.288441 0.0515103 0)
(0.296814 0.0494088 0)
(-0.00530211 0.0386506 0)
(-0.0205872 0.0842212 0)
(-0.0400518 0.105551 0)
(-0.0558171 0.113006 0)
(-0.0666345 0.113627 0)
(-0.0731865 0.111138 0)
(-0.0761713 0.107379 0)
(-0.0762001 0.10324 0)
(-0.0737985 0.0991386 0)
(-0.0693993 0.0952635 0)
(-0.0633556 0.091691 0)
(-0.0559554 0.088441 0)
(-0.0474347 0.085506 0)
(-0.0379875 0.0828648 0)
(-0.0277738 0.0804908 0)
(-0.016926 0.0783555 0)
(-0.00555459 0.0764312 0)
(0.00624871 0.0746914 0)
(0.0184062 0.0731111 0)
(0.0308516 0.0716671 0)
(0.0435281 0.070338 0)
(0.0563862 0.0691036 0)
(0.0693817 0.067945 0)
(0.0824748 0.0668446 0)
(0.0956286 0.0657856 0)
(0.108808 0.0647526 0)
(0.121981 0.0637314 0)
(0.135116 0.0627087 0)
(0.148181 0.0616728 0)
(0.161146 0.0606133 0)
(0.173982 0.0595213 0)
(0.186661 0.0583893 0)
(0.199155 0.0572115 0)
(0.211438 0.0559835 0)
(0.223483 0.0547024 0)
(0.235267 0.0533668 0)
(0.246768 0.0519765 0)
(0.257965 0.0505324 0)
(0.268839 0.0490367 0)
(0.279372 0.0474923 0)
(0.28955 0.045903 0)
(0.29936 0.044273 0)
(0.308788 0.0426072 0)
(0.31783 0.0409106 0)
(-0.00892315 0.0534211 0)
(-0.0303456 0.105969 0)
(-0.0537305 0.124254 0)
(-0.0698027 0.126288 0)
(-0.0786897 0.121769 0)
(-0.0822445 0.114978 0)
(-0.0817389 0.107741 0)
(-0.0781101 0.100814 0)
(-0.0720848 0.0944787 0)
(-0.0642147 0.0888103 0)
(-0.0549171 0.0837933 0)
(-0.0445099 0.0793762 0)
(-0.0332376 0.0754957 0)
(-0.0212896 0.0720874 0)
(-0.00881372 0.0690906 0)
(0.00407349 0.06645 0)
(0.0172795 0.0641166 0)
(0.0307304 0.0620473 0)
(0.0443662 0.0602037 0)
(0.0581377 0.0585525 0)
(0.072004 0.0570642 0)
(0.0859303 0.0557125 0)
(0.0998864 0.0544738 0)
(0.113845 0.0533271 0)
(0.127782 0.0522532 0)
(0.141672 0.0512351 0)
(0.155495 0.0502571 0)
(0.169228 0.0493054 0)
(0.182848 0.0483674 0)
(0.196335 0.0474323 0)
(0.209666 0.0464905 0)
(0.22282 0.0455341 0)
(0.235777 0.0445563 0)
(0.248514 0.0435521 0)
(0.261013 0.0425174 0)
(0.273253 0.0414496 0)
(0.285215 0.0403471 0)
(0.296884 0.0392096 0)
(0.308241 0.0380374 0)
(0.319272 0.036832 0)
(0.329963 0.0355953 0)
(0.340303 0.03433 0)
(0.350279 0.0330391 0)
(0.359886 0.0317262 0)
(-0.0157392 0.0769532 0)
(-0.0456754 0.133782 0)
(-0.0703097 0.143771 0)
(-0.081209 0.137027 0)
(-0.0824227 0.125641 0)
(-0.0777035 0.113794 0)
(-0.0690447 0.102874 0)
(-0.0577447 0.0932648 0)
(-0.0447061 0.0849733 0)
(-0.0305392 0.0778724 0)
(-0.0156538 0.071803 0)
(-0.000326511 0.0666118 0)
(0.0152535 0.062163 0)
(0.0309567 0.0583401 0)
(0.0466941 0.0550444 0)
(0.0624047 0.0521928 0)
(0.0780473 0.0497157 0)
(0.0935938 0.0475547 0)
(0.109026 0.0456605 0)
(0.12433 0.0439913 0)
(0.139498 0.0425116 0)
(0.154525 0.0411908 0)
(0.169405 0.0400026 0)
(0.184135 0.0389239 0)
(0.198709 0.0379347 0)
(0.213123 0.0370173 0)
(0.22737 0.036156 0)
(0.241443 0.0353372 0)
(0.255335 0.0345486 0)
(0.269034 0.0337798 0)
(0.28253 0.0330216 0)
(0.295812 0.0322661 0)
(0.308867 0.0315069 0)
(0.321681 0.0307387 0)
(0.334242 0.0299571 0)
(0.346535 0.0291591 0)
(0.358547 0.0283426 0)
(0.370265 0.0275062 0)
(0.381676 0.0266496 0)
(0.392767 0.0257729 0)
(0.403528 0.0248771 0)
(0.413948 0.0239635 0)
(0.424017 0.023034 0)
(0.433729 0.0220908 0)
(-0.0286649 0.11567 0)
(-0.0679353 0.164395 0)
(-0.0798128 0.155273 0)
(-0.0696322 0.135412 0)
(-0.0507078 0.116323 0)
(-0.0282925 0.0999933 0)
(-0.00444447 0.0865117 0)
(0.0196887 0.0755219 0)
(0.0434559 0.0665631 0)
(0.0665326 0.0592196 0)
(0.0887827 0.0531619 0)
(0.11017 0.0481347 0)
(0.13071 0.0439383 0)
(0.150444 0.0404155 0)
(0.16943 0.0374416 0)
(0.187726 0.0349177 0)
(0.205392 0.0327642 0)
(0.222485 0.0309172 0)
(0.239058 0.0293242 0)
(0.255158 0.0279426 0)
(0.270828 0.0267368 0)
(0.286104 0.0256773 0)
(0.301019 0.0247392 0)
(0.315599 0.0239015 0)
(0.329869 0.0231461 0)
(0.343846 0.0224578 0)
(0.357545 0.0218231 0)
(0.370976 0.0212305 0)
(0.384148 0.0206701 0)
(0.397063 0.0201333 0)
(0.409724 0.0196127 0)
(0.42213 0.0191021 0)
(0.434278 0.0185961 0)
(0.446163 0.0180905 0)
(0.45778 0.0175818 0)
(0.469121 0.0170674 0)
(0.480179 0.0165454 0)
(0.490944 0.0160144 0)
(0.501409 0.0154738 0)
(0.511565 0.0149235 0)
(0.521404 0.0143636 0)
(0.530919 0.013795 0)
(0.540099 0.0132184 0)
(0.548944 0.0126354 0)
(-0.049987 0.20039 0)
(-0.0663188 0.178101 0)
(-0.0109377 0.128456 0)
(0.0473765 0.0998315 0)
(0.0994815 0.0798708 0)
(0.145889 0.0644384 0)
(0.187273 0.0526294 0)
(0.224141 0.0437137 0)
(0.257043 0.0369158 0)
(0.286559 0.0316312 0)
(0.313211 0.0274551 0)
(0.337442 0.0241154 0)
(0.359618 0.0214186 0)
(0.380046 0.0192214 0)
(0.398984 0.0174164 0)
(0.416646 0.0159223 0)
(0.433214 0.0146768 0)
(0.448838 0.0136314 0)
(0.463646 0.0127481 0)
(0.477743 0.0119966 0)
(0.491219 0.0113526 0)
(0.50415 0.0107965 0)
(0.516598 0.0103122 0)
(0.528616 0.00988649 0)
(0.540247 0.00950828 0)
(0.551527 0.00916839 0)
(0.562485 0.00885904 0)
(0.573144 0.00857369 0)
(0.583523 0.00830675 0)
(0.593635 0.00805352 0)
(0.60349 0.00781004 0)
(0.613094 0.00757299 0)
(0.622451 0.00733966 0)
(0.631564 0.00710783 0)
(0.64043 0.00687577 0)
(0.649048 0.00664217 0)
(0.657415 0.00640612 0)
(0.665527 0.00616701 0)
(0.67338 0.00592455 0)
(0.680968 0.00567872 0)
(0.688286 0.00542968 0)
(0.695331 0.00517786 0)
(0.702096 0.00492366 0)
(0.708581 0.00466779 0)
(0.229627 0.140095 0)
(0.278252 0.113217 0)
(0.393769 0.0761012 0)
(0.483793 0.0532614 0)
(0.546028 0.0387252 0)
(0.591962 0.0285478 0)
(0.628027 0.0212655 0)
(0.657101 0.0160923 0)
(0.680897 0.0124104 0)
(0.7007 0.0097564 0)
(0.717471 0.00781448 0)
(0.731902 0.00637491 0)
(0.744497 0.0052951 0)
(0.755629 0.00447571 0)
(0.765585 0.00384673 0)
(0.774588 0.00335851 0)
(0.78281 0.00297544 0)
(0.790386 0.0026717 0)
(0.797425 0.00242834 0)
(0.804013 0.00223128 0)
(0.810218 0.00206996 0)
(0.816097 0.00193634 0)
(0.821694 0.00182428 0)
(0.827046 0.00172897 0)
(0.832181 0.00164668 0)
(0.837125 0.00157442 0)
(0.841893 0.00150981 0)
(0.846502 0.00145093 0)
(0.850962 0.00139624 0)
(0.855281 0.00134447 0)
(0.859466 0.00129463 0)
(0.863519 0.00124591 0)
(0.867444 0.00119767 0)
(0.871241 0.00114944 0)
(0.87491 0.00110086 0)
(0.87845 0.0010517 0)
(0.88186 0.00100182 0)
(0.885139 0.000951171 0)
(0.888283 0.00089976 0)
(0.891293 0.00084768 0)
(0.894164 0.000795033 0)
(0.896898 0.000742012 0)
(0.89949 0.000688784 0)
(0.901942 0.000635508 0)
)
;

boundaryField
{
    movingWall
    {
        type            fixedValue;
        value           uniform (1 0 0);
    }
    fixedWalls
    {
        type            noSlip;
    }
    frontAndBack
    {
        type            empty;
    }
    procBoundary2to3
    {
        type            processor;
        value           nonuniform List<vector> 
45
(
(0.10943 0.279266 0)
(0.11356 0.275342 0)
(0.117385 0.270359 0)
(0.120895 0.26442 0)
(0.124093 0.257639 0)
(0.126987 0.250137 0)
(0.129594 0.242034 0)
(0.131937 0.233445 0)
(0.134039 0.224475 0)