/*--------------------------------*- C++ -*----------------------------------*\
  =========                 |
  \\      /  F ield         | OpenFOAM: The Open Source CFD Toolbox
   \\    /   O peration     | Website:  https://openfoam.org
    \\  /    A nd           | Version:  9
     \\/     M anipulation  |
\*---------------------------------------------------------------------------*/
FoamFile
{
    format      ascii;
    class       surfaceScalarField;
    location    "1.25";
    object      phi;
}
// * * * * * * * * * * * * * * * * * * * * * * * * * * * * * * * * * * * * * //

dimensions      [0 3 -1 0 0 0 0];

internalField   nonuniform List<scalar> 
2420
(
-2.34284e-08
1.56065e-09
-2.50422e-08
1.61388e-09
-2.67042e-08
1.66196e-09
-2.84071e-08
1.70294e-09
-3.01421e-08
1.73498e-09
-3.18983e-08
1.75623e-09
-3.36632e-08
1.76482e-09
-3.5422e-08
1.75884e-09
-3.71583e-08
1.73635e-09
-3.88538e-08
1.69546e-09
-4.04882e-08
1.63438e-09
-4.20396e-08
1.55141e-09
-4.34846e-08
1.44507e-09
-4.47988e-08
1.31414e-09
-4.59565e-08
1.15772e-09
-4.69318e-08
9.75332e-10
-4.76988e-08
7.66946e-10
-4.82319e-08
5.33088e-10
-4.85068e-08
2.74915e-10
-4.85008e-08
-6.01594e-12
-4.81938e-08
-3.07012e-10
-4.75685e-08
-6.25265e-10
-4.66117e-08
-9.56781e-10
-4.53145e-08
-1.29717e-09
-4.36731e-08
-1.64143e-09
-4.16891e-08
-1.98402e-09
-3.93701e-08
-2.31901e-09
-3.67299e-08
-2.64016e-09
-3.37888e-08
-2.94108e-09
-3.05735e-08
-3.21535e-09
-2.71166e-08
-3.45688e-09
-2.34562e-08
-3.6604e-09
-3.82156e-09
-7.07456e-08
5.98725e-09
-7.52983e-08
6.16652e-09
-7.99607e-08
6.3244e-09
-8.47118e-08
6.45403e-09
-8.95255e-08
6.54871e-09
-9.4371e-08
6.6017e-09
-9.92124e-08
6.60621e-09
-1.04009e-07
6.55538e-09
-1.08715e-07
6.44247e-09
-1.13281e-07
6.26097e-09
-1.17651e-07
6.00477e-09
-1.21768e-07
5.66836e-09
-1.2557e-07
5.24706e-09
-1.28993e-07
4.73723e-09
-1.31972e-07
4.13648e-09
-1.3444e-07
3.44396e-09
-1.36334e-07
2.66048e-09
-1.3759e-07
1.7888e-09
-1.38148e-07
8.33622e-10
-1.37957e-07
-1.96954e-10
-1.36968e-07
-1.29635e-09
-1.35143e-07
-2.45075e-09
-1.32452e-07
-3.6471e-09
-1.2888e-07
-4.8697e-09
-1.2442e-07
-6.10098e-09
-1.19082e-07
-7.32184e-09
-1.12889e-07
-8.51197e-09
-1.05879e-07
-9.65028e-09
-9.8105e-08
-1.07153e-08
-8.96345e-08
-1.16858e-08
-8.05499e-08
-1.25415e-08
-7.09458e-08
-1.32645e-08
-1.38396e-08
-1.18477e-07
1.3095e-08
-1.25762e-07
1.34511e-08
-1.33195e-07
1.37582e-08
-1.40743e-07
1.4002e-08
-1.48363e-07
1.41686e-08
-1.56005e-07
1.42437e-08
-1.63612e-07
1.42132e-08
-1.7112e-07
1.40629e-08
-1.78456e-07
1.37792e-08
-1.85544e-07
1.33489e-08
-1.923e-07
1.276e-08
-1.98633e-07
1.20019e-08
-2.04452e-07
1.1066e-08
-2.09661e-07
9.94567e-09
-2.14162e-07
8.63746e-09
-2.17858e-07
7.14085e-09
-2.20657e-07
5.45898e-09
-2.22467e-07
3.59887e-09
-2.23205e-07
1.57185e-09
-2.22796e-07
-6.06079e-10
-2.21175e-07
-2.91736e-09
-2.18291e-07
-5.33531e-09
-2.14105e-07
-7.83212e-09
-2.086e-07
-1.03756e-08
-2.01771e-07
-1.293e-08
-1.93635e-07
-1.54571e-08
-1.84231e-07
-1.79163e-08
-1.73616e-07
-2.02658e-08
-1.61867e-07
-2.24634e-08
-1.49086e-07
-2.44674e-08
-1.35389e-07
-2.62379e-08
-1.20915e-07
-2.77394e-08
-2.89412e-08
-1.66656e-07
2.27629e-08
-1.76539e-07
2.33339e-08
-1.86598e-07
2.38168e-08
-1.96784e-07
2.41881e-08
-2.0704e-07
2.44242e-08
-2.17297e-07
2.45015e-08
-2.27481e-07
2.43965e-08
-2.37504e-07
2.40859e-08
-2.47272e-07
2.35474e-08
-2.56683e-07
2.27599e-08
-2.65627e-07
2.17045e-08
-2.7399e-07
2.03649e-08
-2.81652e-07
1.8728e-08
-2.88492e-07
1.6785e-08
-2.94386e-07
1.45317e-08
-2.99214e-07
1.19692e-08
-3.0286e-07
9.10449e-09
-3.05212e-07
5.95098e-09
-3.06169e-07
2.52901e-09
-3.05641e-07
-1.13444e-09
-3.0355e-07
-5.00782e-09
-2.99838e-07
-9.04805e-09
-2.94461e-07
-1.32088e-08
-2.87399e-07
-1.74376e-08
-2.78652e-07
-2.16768e-08
-2.68244e-07
-2.58646e-08
-2.56224e-07
-2.99365e-08
-2.42664e-07
-3.38262e-08
-2.27661e-07
-3.74667e-08
-2.11336e-07
-4.0792e-08
-1.93835e-07
-4.3739e-08
-1.75324e-07
-4.62506e-08
-4.82777e-08
-2.15385e-07
3.49305e-08
-2.27801e-07
3.57498e-08
-2.40415e-07
3.6431e-08
-2.53166e-07
3.69393e-08
-2.65982e-07
3.72398e-08
-2.78778e-07
3.72979e-08
-2.91461e-07
3.70789e-08
-3.03924e-07
3.65491e-08
-3.16053e-07
3.56761e-08
-3.27723e-07
3.44302e-08
-3.38803e-07
3.27849e-08
-3.49156e-07
3.07177e-08
-3.5864e-07
2.82117e-08
-3.67111e-07
2.52559e-08
-3.74425e-07
2.18463e-08
-3.80443e-07
1.79868e-08
-3.85028e-07
1.36899e-08
-3.88055e-07
8.97719e-09
-3.89406e-07
3.87999e-09
-3.88979e-07
-1.56087e-09
-3.86688e-07
-7.29859e-09
-3.82466e-07
-1.32702e-08
-3.76267e-07
-1.94085e-08
-3.68066e-07
-2.56379e-08
-3.57867e-07
-3.18761e-08
-3.45696e-07
-3.80352e-08
-3.31609e-07
-4.40239e-08
-3.15686e-07
-4.97489e-08
-2.98037e-07
-5.51158e-08
-2.78798e-07
-6.00313e-08
-2.58131e-07
-6.44059e-08
-2.36224e-07
-6.81578e-08
-7.12168e-08
-2.64826e-07
4.9598e-08
-2.79777e-07
5.07015e-08
-2.94953e-07
5.16068e-08
-3.1028e-07
5.22657e-08
-3.25671e-07
5.26308e-08
-3.41027e-07
5.26545e-08
-3.56238e-07
5.22899e-08
-3.71181e-07
5.14914e-08
-3.85721e-07
5.0216e-08
-3.99715e-07
4.84243e-08
-4.13012e-07
4.60819e-08
-4.25454e-07
4.31602e-08
-4.36881e-07
3.96384e-08
-4.47129e-07
3.55039e-08
-4.56036e-07
3.07537e-08
-4.63445e-07
2.53955e-08
-4.69203e-07
1.94485e-08
-4.7317e-07
1.29438e-08
-4.75215e-07
5.92513e-09
-4.75226e-07
-1.55011e-09
-4.73104e-07
-9.42082e-09
-4.68774e-07
-1.76002e-08
-4.62183e-07
-2.59991e-08
-4.53304e-07
-3.4517e-08
-4.42135e-07
-4.30449e-08
-4.28703e-07
-5.14671e-08
-4.13063e-07
-5.96638e-08
-3.953e-07
-6.75123e-08
-3.75527e-07
-7.48891e-08
-3.53888e-07
-8.16704e-08
-3.30556e-07
-8.77372e-08
-3.05734e-07
-9.29803e-08
-9.73056e-08
-3.15202e-07
6.68255e-08
-3.32759e-07
6.8259e-08
-3.50577e-07
6.94244e-08
-3.6857e-07
7.02588e-08
-3.8664e-07
7.07007e-08
-4.04674e-07
7.06884e-08
-4.22545e-07
7.01613e-08
-4.40115e-07
6.90611e-08
-4.57232e-07
6.73329e-08
-4.73735e-07
6.49275e-08
-4.89455e-07
6.18018e-08
-5.04216e-07
5.79214e-08
-5.17839e-07
5.32613e-08
-5.30143e-07
4.78077e-08
-5.40948e-07
4.15593e-08
-5.50081e-07
3.4528e-08
-5.57373e-07
2.67403e-08
-5.62666e-07
1.82375e-08
-5.65818e-07
9.07644e-09
-5.66703e-07
-6.65192e-10
-5.65206e-07
-1.09176e-08
-5.61243e-07
-2.15632e-08
-5.5475e-07
-3.24921e-08
-5.45689e-07
-4.35776e-08
-5.34051e-07
-5.46828e-08
-5.19856e-07
-6.56628e-08
-5.03152e-07
-7.63672e-08
-4.84022e-07
-8.6643e-08
-4.62576e-07
-9.63348e-08
-4.38961e-07
-1.05286e-07
-4.13354e-07
-1.13344e-07
-3.85967e-07
-1.20367e-07
-1.26234e-07
-3.66794e-07
8.6734e-08
-3.87093e-07
8.85588e-08
-4.07706e-07
9.00367e-08
-4.28536e-07
9.1089e-08
-4.49473e-07
9.16383e-08
-4.70393e-07
9.16078e-08
-4.91153e-07
9.09218e-08
-5.116e-07
8.95082e-08
-5.31567e-07
8.72997e-08
-5.50876e-07
8.42362e-08
-5.6934e-07
8.02658e-08
-5.86766e-07
7.53474e-08
-6.02957e-07
6.94522e-08
-6.17714e-07
6.25649e-08
-6.3084e-07
5.46856e-08
-6.42143e-07
4.58307e-08
-6.51437e-07
3.60342e-08
-6.58547e-07
2.53478e-08
-6.63312e-07
1.38415e-08
-6.65588e-07
1.61039e-09
-6.65247e-07
-1.12579e-08
-6.62186e-07
-2.46246e-08
-6.56324e-07
-3.83542e-08
-6.47608e-07
-5.22934e-08
-6.36014e-07
-6.62766e-08
-6.21549e-07
-8.01282e-08
-6.0425e-07
-9.36662e-08
-5.84187e-07
-1.06706e-07
-5.61464e-07
-1.19058e-07
-5.36223e-07
-1.30527e-07
-5.08652e-07
-1.40914e-07
-4.78966e-07
-4.19927e-07
1.09504e-07
-4.4317e-07
1.11802e-07
-4.66801e-07
1.13667e-07
-4.90713e-07
1.15002e-07
-5.14788e-07
1.15713e-07
-5.38885e-07
1.15706e-07
-5.62853e-07
1.14889e-07
-5.86521e-07
1.13176e-07
-6.09707e-07
1.10486e-07
-6.32217e-07
1.06746e-07
-6.53847e-07
1.01895e-07
-6.74385e-07
9.58858e-08
-6.93616e-07
8.86835e-08
-7.11323e-07
8.02714e-08
-7.27288e-07
7.06506e-08
-7.41298e-07
5.98414e-08
-7.53149e-07
4.78847e-08
-7.62643e-07
3.48421e-08
-7.69599e-07
2.0797e-08
-7.73846e-07
5.85729e-09
-7.75243e-07
-9.86082e-09
-7.73657e-07
-2.62102e-08
-7.68988e-07
-4.30235e-08
-7.6116e-07
-6.01208e-08
-7.5013e-07
-7.73075e-08
-7.35882e-07
-9.43759e-08
-7.18436e-07
-1.11112e-07
-6.97846e-07
-1.27296e-07
-6.74207e-07
-1.42697e-07
-6.47663e-07
-4.7496e-07
1.35374e-07
-5.0141e-07
1.38252e-07
-5.28346e-07
1.40603e-07
-5.55657e-07
1.42312e-07
-5.83209e-07
1.43265e-07
-6.10855e-07
1.43351e-07
-6.38426e-07
1.4246e-07
-6.65739e-07
1.40489e-07
-6.92595e-07
1.37342e-07
-7.18784e-07
1.32934e-07
-7.44082e-07
1.27194e-07
-7.6826e-07
1.20064e-07
-7.91081e-07
1.11505e-07
-8.12306e-07
1.01497e-07
-8.31696e-07
9.00409e-08
-8.49015e-07
7.71605e-08
-8.64033e-07
6.2902e-08
-8.76527e-07
4.73364e-08
-8.86289e-07
3.05588e-08
-8.93123e-07
1.26912e-08
-8.96865e-07
-6.11853e-09
-8.97344e-07
-2.57311e-08
-8.94437e-07
-4.59307e-08
-8.88042e-07
-6.6516e-08
-8.78087e-07
-8.72626e-08
-8.64532e-07
-1.0793e-07
-8.47375e-07
-1.28269e-07
-8.26653e-07
-1.48018e-07
-1.66908e-07
-5.32264e-07
1.64633e-07
-5.62239e-07
1.68227e-07
-5.92829e-07
1.71193e-07
-6.23912e-07
1.73395e-07
-6.55346e-07
1.747e-07
-6.86971e-07
1.74976e-07
-7.18606e-07
1.74094e-07
-7.5005e-07
1.71933e-07
-7.81089e-07
1.68381e-07
-8.11492e-07
1.63338e-07
-8.41018e-07
1.56719e-07
-8.69414e-07
1.4846e-07
-8.96421e-07
1.38512e-07
-9.21775e-07
1.26851e-07
-9.45212e-07
1.13477e-07
-9.66467e-07
9.84154e-08
-9.85281e-07
8.17165e-08
-1.0014e-06
6.34594e-08
-1.0146e-06
4.37503e-08
-1.02462e-06
2.27187e-08
-1.03132e-06
5.75773e-10
-1.03443e-06
-2.2616e-08
-1.03384e-06
-4.6522e-08
-1.0294e-06
-7.09532e-08
-1.02102e-06
-9.5649e-08
-1.00861e-06
-1.20335e-07
-9.92161e-07
-1.44722e-07
-9.71671e-07
-1.68508e-07
-1.91383e-07
-5.92204e-07
1.97618e-07
-6.26069e-07
2.02092e-07
-6.60705e-07
2.05829e-07
-6.95983e-07
2.08673e-07
-7.3175e-07
2.10467e-07
-7.67831e-07
2.11057e-07
-8.0403e-07
2.10294e-07
-8.40132e-07
2.08035e-07
-8.75901e-07
2.0415e-07
-9.11086e-07
1.98523e-07
-9.45422e-07
1.91056e-07
-9.78632e-07
1.8167e-07
-1.01043e-06
1.7031e-07
-1.04053e-06
1.56946e-07
-1.06862e-06
1.41574e-07
-1.09443e-06
1.24219e-07
-1.11765e-06
1.04936e-07
-1.138e-06
8.38113e-08
-1.15521e-06
6.09605e-08
-1.16902e-06
3.65333e-08
-1.17917e-06
1.07183e-08
-1.18548e-06
-1.63062e-08
-1.18771e-06
-4.42833e-08
-1.18572e-06
-7.29472e-08
-1.17936e-06
-1.02011e-07
-1.16853e-06
-1.31164e-07
-1.15317e-06
-1.60082e-07
-1.13326e-06
-1.88418e-07
-2.15819e-07
-6.55111e-07
2.34699e-07
-6.93264e-07
2.40244e-07
-7.32373e-07
2.44938e-07
-7.72297e-07
2.48597e-07
-8.12873e-07
2.51042e-07
-8.53909e-07
2.52094e-07
-8.95193e-07
2.51578e-07
-9.36488e-07
2.4933e-07
-9.77537e-07
2.45199e-07
-1.01806e-06
2.39051e-07
-1.05778e-06
2.3077e-07
-1.09637e-06
2.20266e-07
-1.13354e-06
2.07471e-07
-1.16894e-06
1.92349e-07
-1.20226e-06
1.74891e-07
-1.23316e-06
1.55122e-07
-1.26132e-06
1.33099e-07
-1.28642e-06
1.08914e-07
-1.30816e-06
8.2695e-08
-1.32623e-06
5.4604e-08
-1.34035e-06
2.48383e-08
-1.35029e-06
-6.36704e-09
-1.35579e-06
-3.87792e-08
-1.35666e-06
-7.20758e-08
-1.35273e-06
-1.05942e-07
-1.34386e-06
-1.40033e-07
-1.32996e-06
-1.73982e-07
-1.31098e-06
-2.07403e-07
-2.39895e-07
-7.21257e-07
2.76266e-07
-7.64113e-07
2.83101e-07
-8.08133e-07
2.88958e-07
-8.53165e-07
2.93629e-07
-8.99026e-07
2.96904e-07
-9.45511e-07
2.98578e-07
-9.92383e-07
2.9845e-07
-1.03938e-06
2.9633e-07
-1.08623e-06
2.92043e-07
-1.13261e-06
2.85435e-07
-1.17821e-06
2.76373e-07
-1.2227e-06
2.64748e-07
-1.26571e-06
2.50484e-07
-1.30689e-06
2.33533e-07
-1.34589e-06
2.13884e-07
-1.38233e-06
1.9156e-07
-1.41585e-06
1.66622e-07
-1.4461e-06
1.39168e-07
-1.47275e-06
1.09338e-07
-1.49545e-06
7.73061e-08
-1.5139e-06
4.32879e-08
-1.52781e-06
7.54909e-09
-1.53693e-06
-2.96607e-08
-1.54101e-06
-6.7995e-08
-1.53985e-06
-1.07099e-07
-1.53329e-06
-1.46594e-07
-1.5212e-06
-1.86075e-07
-1.50349e-06
-2.25112e-07
-2.63262e-07
-7.90822e-07
3.22714e-07
-8.38795e-07
3.31075e-07
-8.88157e-07
3.38319e-07
-9.38736e-07
3.44208e-07
-9.90334e-07
3.48503e-07
-1.04272e-06
3.50965e-07
-1.09564e-06
3.51364e-07
-1.14879e-06
3.49483e-07
-1.20187e-06
3.45121e-07
-1.25453e-06
3.38099e-07
-1.30642e-06
3.28266e-07
-1.35717e-06
3.15497e-07
-1.40639e-06
2.99702e-07
-1.45368e-06
2.80827e-07
-1.49866e-06
2.58856e-07
-1.54091e-06
2.33811e-07
-1.58004e-06
2.05759e-07
-1.61568e-06
1.74808e-07
-1.64745e-06
1.41108e-07
-1.675e-06
1.04852e-07
-1.69799e-06
6.6273e-08
-1.71609e-06
2.56527e-08
-1.72906e-06
-1.66871e-08
-1.7366e-06
-6.04613e-08
-1.73848e-06
-1.05216e-07
-1.73452e-06
-1.50552e-07
-1.72456e-06
-1.96033e-07
-1.70849e-06
-2.41186e-07
-2.8553e-07
-8.63869e-07
3.74421e-07
-9.17348e-07
3.84553e-07
-9.72443e-07
3.93414e-07
-1.02897e-06
4.0073e-07
-1.08669e-06
4.06227e-07
-1.14536e-06
4.09633e-07
-1.20468e-06
4.10684e-07
-1.26433e-06
4.09131e-07
-1.32395e-06
4.04746e-07
-1.38318e-06
3.97326e-07
-1.44161e-06
3.86699e-07
-1.49884e-06
3.72724e-07
-1.55443e-06
3.553e-07
-1.60797e-06
3.34366e-07
-1.65902e-06
3.09905e-07
-1.70716e-06
2.81944e-07
-1.75195e-06
2.50556e-07
-1.79301e-06
2.15862e-07
-1.82993e-06
1.78027e-07
-1.86234e-06
1.37263e-07
-1.88989e-06
9.38256e-08
-1.91223e-06
4.79973e-08
-1.92918e-06
2.54769e-10
-1.94027e-06
-4.9364e-08
-1.94538e-06
-1.0011e-07
-1.94426e-06
-1.51668e-07
-1.93674e-06
-2.03556e-07
-1.92266e-06
-2.55264e-07
-3.06276e-07
-9.40317e-07
4.31722e-07
-9.99636e-07
4.43872e-07
-1.06079e-06
4.54572e-07
-1.12357e-06
4.63509e-07
-1.18772e-06
4.70373e-07
-1.25293e-06
4.7485e-07
-1.31889e-06
4.76642e-07
-1.38523e-06
4.75467e-07
-1.45155e-06
4.71067e-07
-1.51744e-06
4.63216e-07
-1.58246e-06
4.5172e-07
-1.64616e-06
4.36425e-07
-1.70809e-06
4.17223e-07
-1.76777e-06
3.94051e-07
-1.82476e-06
3.66893e-07
-1.8786e-06
3.35787e-07
-1.92886e-06
3.00818e-07
-1.97513e-06
2.62124e-07
-2.01699e-06
2.19891e-07
-2.05408e-06
1.74353e-07
-2.08604e-06
1.25788e-07
-2.11256e-06
7.45213e-08
-2.13325e-06
2.09383e-08
-2.14798e-06
-3.46334e-08
-2.1564e-06
-9.16924e-08
-2.15829e-06
-1.49776e-07
-2.15346e-06
-2.08387e-07
-2.14173e-06
-2.66991e-07
-3.25047e-07
-1.01991e-06
4.9489e-07
-1.08533e-06
5.09288e-07
-1.15278e-06
5.22025e-07
-1.22202e-06
5.32748e-07
-1.29275e-06
5.41102e-07
-1.36463e-06
5.46733e-07
-1.43729e-06
5.49304e-07
-1.51033e-06
5.48498e-07
-1.58329e-06
5.44029e-07
-1.65572e-06
5.35646e-07
-1.72714e-06
5.2314e-07
-1.79706e-06
5.06349e-07
-1.865e-06
4.85161e-07
-1.93047e-06
4.59516e-07
-1.99298e-06
4.29412e-07
-2.0521e-06
3.949e-07
-2.10737e-06
3.56087e-07
-2.15838e-06
3.13133e-07
-2.20473e-06
2.66249e-07
-2.24608e-06
2.15696e-07
-2.28207e-06
1.61779e-07
-2.3124e-06
1.04848e-07
-2.33674e-06
4.52856e-08
-2.35489e-06
-1.64895e-08
-2.36656e-06
-8.00221e-08
-2.37152e-06
-1.4481e-07
-2.36957e-06
-2.10337e-07
-2.36051e-06
-2.76049e-07
-3.41392e-07
-1.10222e-06
5.64111e-07
-1.17388e-06
5.8095e-07
-1.24774e-06
5.95881e-07
-1.32349e-06
6.08504e-07
-1.40081e-06
6.18416e-07
-1.47929e-06
6.25218e-07
-1.55852e-06
6.28533e-07
-1.63803e-06
6.2801e-07
-1.71734e-06
6.23337e-07
-1.79594e-06
6.14243e-07
-1.87331e-06
6.0051e-07
-1.94893e-06
5.81972e-07
-2.02229e-06
5.58524e-07
-2.09289e-06
5.3012e-07
-2.16026e-06
4.96777e-07
-2.22393e-06
4.58571e-07
-2.28348e-06
4.15638e-07
-2.33852e-06
3.6817e-07
-2.38868e-06
3.16408e-07
-2.43362e-06
2.60643e-07
-2.47305e-06
2.01207e-07
-2.50668e-06
1.38475e-07
-2.53424e-06
7.28494e-08
-2.55551e-06
4.7756e-09
-2.57024e-06
-6.52873e-08
-2.57823e-06
-1.36824e-07
-2.57926e-06
-2.0931e-07
-2.57312e-06
-2.82185e-07
-3.54895e-07
-1.1866e-06
6.39448e-07
-1.26452e-06
6.58875e-07
-1.34474e-06
6.76097e-07
-1.4269e-06
6.90666e-07
-1.51061e-06
7.02125e-07
-1.59542e-06
7.10031e-07
-1.68085e-06
7.13965e-07
-1.76639e-06
7.13546e-07
-1.85149e-06
7.08441e-07
-1.93562e-06
6.98366e-07
-2.01821e-06
6.83102e-07
-2.09873e-06
6.62491e-07
-2.17665e-06
6.36444e-07
-2.25147e-06
6.04941e-07
-2.32272e-06
5.6803e-07
-2.38997e-06
5.25823e-07
-2.45283e-06
4.78495e-07
-2.51094e-06
4.26275e-07
-2.56397e-06
3.69442e-07
-2.61165e-06
3.0832e-07
-2.65371e-06
2.43273e-07
-2.68993e-06
1.74697e-07
-2.7201e-06
1.03016e-07
-2.74401e-06
2.86825e-08
-2.76147e-06
-4.78267e-08
-2.77229e-06
-1.26006e-07
-2.77626e-06
-2.05332e-07
-2.7732e-06
-2.8525e-07
-3.65221e-07
-1.19084e-06
6.96703e-07
-1.27222e-06
7.20832e-07
-1.35627e-06
7.42919e-07
-1.44262e-06
7.62455e-07
-1.53089e-06
7.78929e-07
-1.62059e-06
7.91832e-07
-1.71124e-06
8.00672e-07
-1.80227e-06
8.04997e-07
-1.89312e-06
8.04401e-07
-1.98321e-06
7.98533e-07
-2.07196e-06
7.87112e-07
-2.15878e-06
7.69926e-07
-2.24313e-06
7.46839e-07
-2.32448e-06
7.17792e-07
-2.40235e-06
6.82806e-07
-2.47629e-06
6.41971e-07
-2.54591e-06
5.95447e-07
-2.61087e-06
5.43456e-07
-2.67087e-06
4.86274e-07
-2.72565e-06
4.24224e-07
-2.775e-06
3.57666e-07
-2.81872e-06
2.86995e-07
-2.85665e-06
2.1263e-07
-2.88865e-06
1.3501e-07
-2.91456e-06
5.45937e-08
-2.93424e-06
-2.81451e-08
-2.94754e-06
-1.12703e-07
-2.9543e-06
-1.98576e-07
-2.95432e-06
-2.85233e-07
-3.72163e-07
-1.27087e-06
7.80889e-07
-1.35807e-06
8.08031e-07
-1.44792e-06
8.32773e-07
-1.54002e-06
8.54551e-07
-1.63388e-06
8.72788e-07
-1.72897e-06
8.8692e-07
-1.82471e-06
8.96416e-07
-1.92051e-06
9.00791e-07
-2.01573e-06
8.99623e-07
-2.10976e-06
8.92561e-07
-2.20198e-06
8.79333e-07
-2.2918e-06
8.59752e-07
-2.37868e-06
8.33719e-07
-2.46211e-06
8.01223e-07
-2.54164e-06
7.62335e-07
-2.61688e-06
7.17204e-07
-2.68748e-06
6.66049e-07
-2.75317e-06
6.0915e-07
-2.81373e-06
5.46836e-07
-2.86899e-06
4.79477e-07
-2.9188e-06
4.07475e-07
-2.96305e-06
3.31253e-07
-3.00168e-06
2.51252e-07
-3.03459e-06
1.67923e-07
-3.06172e-06
8.17255e-08
-3.08298e-06
-6.89134e-09
-3.09827e-06
-9.74046e-08
-3.10748e-06
-1.89374e-07
-3.11042e-06
-2.82288e-07
-3.75681e-07
-1.35032e-06
8.70541e-07
-1.44295e-06
9.00658e-07
-1.53813e-06
9.27955e-07
-1.63537e-06
9.51793e-07
-1.73412e-06
9.71535e-07
-1.83376e-06
9.86566e-07
-1.93367e-06
9.96318e-07
-2.03316e-06
1.00029e-06
-2.13159e-06
9.98048e-07
-2.22829e-06
9.8926e-07
-2.32263e-06
9.73679e-07
-2.41404e-06
9.5116e-07
-2.50198e-06
9.2166e-07
-2.58599e-06
8.85227e-07
-2.66565e-06
8.42003e-07
-2.74066e-06
7.92207e-07
-2.81074e-06
7.36128e-07
-2.8757e-06
6.74111e-07
-2.93541e-06
6.06544e-07
-2.98978e-06
5.33849e-07
-3.03877e-06
4.56468e-07
-3.08237e-06
3.74854e-07
-3.12058e-06
2.89466e-07
-3.15342e-06
2.00761e-07
-3.18089e-06
1.09192e-07
-3.20297e-06
1.5193e-08
-3.21963e-06
-8.07439e-08
-3.2308e-06
-1.78207e-07
-3.23635e-06
-2.76738e-07
-3.75926e-07
-1.42803e-06
9.65209e-07
-1.52554e-06
9.98171e-07
-1.62539e-06
1.02781e-06
-1.72701e-06
1.05341e-06
-1.82974e-06
1.07427e-06
-1.93293e-06
1.08975e-06
-2.03586e-06
1.09925e-06
-2.13781e-06
1.10224e-06
-2.2381e-06
1.09833e-06
-2.33604e-06
1.0872e-06
-2.43102e-06
1.06866e-06
-2.52247e-06
1.04261e-06
-2.60989e-06
1.00909e-06
-2.69288e-06
9.68218e-07
-2.77111e-06
9.20229e-07
-2.84432e-06
8.6542e-07
-2.91235e-06
8.04159e-07
-2.97511e-06
7.36863e-07
-3.03255e-06
6.63984e-07
-3.08469e-06
5.85995e-07
-3.1316e-06
5.03378e-07
-3.17336e-06
4.16613e-07
-3.21007e-06
3.26173e-07
-3.24182e-06
2.32515e-07
-3.26871e-06
1.36081e-07
-3.2908e-06
3.72861e-08
-3.30812e-06
-6.34292e-08
-3.32065e-06
-1.65673e-07
-3.32833e-06
-2.69058e-07
-3.73237e-07
-1.50277e-06
1.0643e-06
-1.60446e-06
1.09986e-06
-1.70816e-06
1.1315e-06
-1.8132e-06
1.15845e-06
-1.91887e-06
1.17994e-06
-2.02441e-06
1.1953e-06
-2.12908e-06
1.20392e-06
-2.23213e-06
1.20529e-06
-2.33282e-06
1.19902e-06
-2.43049e-06
1.18487e-06
-2.52453e-06
1.1627e-06
-2.61443e-06
1.13251e-06
-2.69975e-06
1.0944e-06
-2.78015e-06
1.04862e-06
-2.85538e-06
9.95462e-07
-2.9253e-06
9.35338e-07
-2.98983e-06
8.68695e-07
-3.04899e-06
7.96026e-07
-3.10286e-06
7.17846e-07
-3.15154e-06
6.34679e-07
-3.19521e-06
5.47044e-07
-3.23404e-06
4.55444e-07
-3.26822e-06
3.60359e-07
-3.29795e-06
2.62243e-07
-3.32339e-06
1.61519e-07
-3.34468e-06
5.85762e-08
-3.36191e-06
-4.61999e-08
-3.37514e-06
-1.52441e-07
-3.38436e-06
-2.59842e-07
-3.68119e-07
-1.57326e-06
1.16709e-06
-1.67828e-06
1.20489e-06
-1.78486e-06
1.23808e-06
-1.89225e-06
1.26583e-06
-1.99966e-06
1.28735e-06
-2.10628e-06
1.30192e-06
-2.21132e-06
1.30895e-06
-2.31399e-06
1.30796e-06
-2.41358e-06
1.29862e-06
-2.50944e-06
1.28073e-06
-2.601e-06
1.25427e-06
-2.68781e-06
1.21931e-06
-2.7695e-06
1.17609e-06
-2.84583e-06
1.12495e-06
-2.91666e-06
1.06629e-06
-2.98193e-06
1.00061e-06
-3.0417e-06
9.28462e-07
-3.09608e-06
8.50403e-07
-3.14525e-06
7.67014e-07
-3.18943e-06
6.78864e-07
-3.22889e-06
5.86501e-07
-3.26389e-06
4.90446e-07
-3.29471e-06
3.91182e-07
-3.32162e-06
2.89149e-07
-3.34485e-06
1.84749e-07
-3.36461e-06
7.83382e-08
-3.38105e-06
-2.97584e-08
-3.39431e-06
-1.39188e-07
-3.40441e-06
-2.49741e-07
-3.61195e-07
-1.63821e-06
1.27271e-06
-1.74561e-06
1.31228e-06
-1.854e-06
1.34647e-06
-1.96256e-06
1.3744e-06
-2.07044e-06
1.39523e-06
-2.17679e-06
1.40827e-06
-2.28079e-06
1.41294e-06
-2.38164e-06
1.40881e-06
-2.47866e-06
1.39563e-06
-2.57123e-06
1.3733e-06
-2.65886e-06
1.34189e-06
-2.74116e-06
1.30162e-06
-2.81788e-06
1.25281e-06
-2.88886e-06
1.19593e-06
-2.95408e-06
1.13151e-06
-3.01361e-06
1.06014e-06
-3.0676e-06
9.82449e-07
-3.11627e-06
8.99077e-07
-3.15991e-06
8.10656e-07
-3.19884e-06
7.17792e-07
-3.2334e-06
6.21057e-07
-3.26393e-06
5.2098e-07
-3.29079e-06
4.18038e-07
-3.31429e-06
3.12654e-07
-3.33474e-06
2.052e-07
-3.3524e-06
9.59992e-08
-3.36745e-06
-1.4711e-08
-3.38011e-06
-1.26532e-07
-3.39045e-06
-2.39401e-07
-3.53142e-07
-1.69642e-06
1.38023e-06
-1.80514e-06
1.421e-06
-1.9142e-06
1.45553e-06
-2.02271e-06
1.48291e-06
-2.12977e-06
1.5023e-06
-2.2345e-06
1.51301e-06
-2.33607e-06
1.51451e-06
-2.43372e-06
1.50646e-06
-2.5268e-06
1.48871e-06
-2.61475e-06
1.46126e-06
-2.69717e-06
1.42431e-06
-2.77377e-06
1.37822e-06
-2.84441e-06
1.32344e-06
-2.90904e-06
1.26056e-06
-2.96776e-06
1.19023e-06
-3.02075e-06
1.11313e-06
-3.06828e-06
1.02997e-06
-3.11066e-06
9.41462e-07
-3.14828e-06
8.48272e-07
-3.18153e-06
7.51038e-07
-3.21081e-06
6.50343e-07
-3.23654e-06
5.46714e-07
-3.25912e-06
4.40614e-07
-3.27891e-06
3.32441e-07
-3.29624e-06
2.22532e-07
-3.31143e-06
1.11189e-07
-3.32463e-06
-1.51575e-09
-3.3362e-06
-1.14955e-07
-3.3462e-06
-2.29407e-07
-3.44628e-07
-1.74676e-06
1.48864e-06
-1.85571e-06
1.52995e-06
-1.96428e-06
1.5641e-06
-2.07151e-06
1.59015e-06
-2.17649e-06
1.60727e-06
-2.27832e-06
1.61484e-06
-2.37619e-06
1.61238e-06
-2.46939e-06
1.59966e-06
-2.55732e-06
1.57664e-06
-2.63954e-06
1.54347e-06
-2.71572e-06
1.5005e-06
-2.7857e-06
1.4482e-06
-2.84945e-06
1.38719e-06
-2.90705e-06
1.31817e-06
-2.95872e-06
1.2419e-06
-3.00475e-06
1.15916e-06
-3.04549e-06
1.07072e-06
-3.08137e-06
9.7734e-07
-3.11283e-06
8.79727e-07
-3.14032e-06
7.78529e-07
-3.1643e-06
6.74328e-07
-3.18522e-06
5.67635e-07
-3.2035e-06
4.58893e-07
-3.21953e-06
3.48474e-07
-3.23365e-06
2.3665e-07
-3.24615e-06
-3.25742e-06
-3.2675e-06
-3.27667e-06
-1.78828e-06
1.59691e-06
-1.89636e-06
1.63803e-06
-2.00329e-06
1.67102e-06
-2.10808e-06
1.69494e-06
-2.20979e-06
1.70899e-06
-2.30756e-06
1.7126e-06
-2.40061e-06
1.70543e-06
-2.4883e-06
1.68735e-06
-2.57013e-06
1.65847e-06
-2.64575e-06
1.61909e-06
-2.71495e-06
1.56971e-06
-2.77771e-06
1.51096e-06
-2.83411e-06
1.44359e-06
-2.88437e-06
1.36843e-06
-2.9288e-06
1.28633e-06
-2.9678e-06
1.19815e-06
-3.00181e-06
1.10473e-06
-3.03132e-06
1.00685e-06
-3.05682e-06
9.05234e-07
-3.07882e-06
8.00529e-07
-3.0978e-06
6.93301e-07
-3.1142e-06
5.84037e-07
-3.12845e-06
4.73146e-07
-3.14094e-06
3.60962e-07
2.47705e-07
-1.82018e-06
1.70402e-06
-1.92635e-06
1.7442e-06
-2.03056e-06
1.77524e-06
-2.13184e-06
1.79621e-06
-2.22924e-06
1.80639e-06
-2.32195e-06
1.80531e-06
-2.40927e-06
1.79275e-06
-2.49063e-06
1.76872e-06
-2.56566e-06
1.73349e-06
-2.63411e-06
1.68754e-06
-2.69593e-06
1.63152e-06
-2.75119e-06
1.56622e-06
-2.80013e-06
1.49253e-06
-2.84307e-06
1.41137e-06
-2.88042e-06
1.32368e-06
-2.91267e-06
1.2304e-06
-2.94034e-06
1.13239e-06
-2.96394e-06
1.03046e-06
-2.98402e-06
9.25314e-07
-3.00108e-06
8.1759e-07
-3.01561e-06
7.07824e-07
-3.02803e-06
5.96463e-07
-3.03876e-06
4.83876e-07
-3.04816e-06
3.70356e-07
2.5608e-07
-1.84193e-06
1.809e-06
-1.9452e-06
1.84747e-06
-2.04572e-06
1.87577e-06
-2.14254e-06
1.89302e-06
-2.23476e-06
1.89861e-06
-2.32163e-06
1.89218e-06
-2.40253e-06
1.87365e-06
-2.47701e-06
1.84321e-06
-2.54482e-06
1.8013e-06
-2.60585e-06
1.74857e-06
-2.66018e-06
1.68585e-06
-2.70802e-06
1.61406e-06
-2.7497e-06
1.53421e-06
-2.78567e-06
1.44733e-06
-2.81642e-06
1.35444e-06
-2.84251e-06
1.25649e-06
-2.86449e-06
1.15437e-06
-2.88292e-06
1.04889e-06
-2.89833e-06
9.4073e-07
-2.91123e-06
8.3049e-07
-2.92207e-06
7.18663e-07
-2.93126e-06
6.05651e-07
-2.93916e-06
4.91772e-07
-2.94608e-06
3.77274e-07
2.62301e-07
-1.85317e-06
1.91097e-06
-1.95267e-06
1.94697e-06
-2.04868e-06
1.97178e-06
-2.14028e-06
1.98462e-06
-2.22665e-06
1.98498e-06
-2.30711e-06
1.97264e-06
-2.38116e-06
1.9477e-06
-2.44848e-06
1.91053e-06
-2.50894e-06
1.86176e-06
-2.56259e-06
1.80222e-06
-2.60962e-06
1.73288e-06
-2.65038e-06
1.65481e-06
-2.6853e-06
1.56913e-06
-2.71491e-06
1.47695e-06
-2.73979e-06
1.37932e-06
-2.76052e-06
1.27722e-06
-2.77769e-06
1.17154e-06
-2.79186e-06
1.06305e-06
-2.80353e-06
9.52408e-07
-2.81319e-06
8.40149e-07
-2.82124e-06
7.26714e-07
-2.82804e-06
6.1245e-07
-2.83389e-06
4.97623e-07
-2.83905e-06
3.82432e-07
2.66987e-07
-1.85381e-06
2.00913e-06
-1.9488e-06
2.04196e-06
-2.03963e-06
2.06262e-06
-2.12544e-06
2.07043e-06
-2.20548e-06
2.06502e-06
-2.2792e-06
2.04636e-06
-2.34622e-06
2.01472e-06
-2.40636e-06
1.97067e-06
-2.45961e-06
1.91502e-06
-2.50617e-06
1.84878e-06
-2.54635e-06
1.77306e-06
-2.58061e-06
1.68907e-06
-2.60949e-06
1.59801e-06
-2.63357e-06
1.50103e-06
-2.65347e-06
1.39922e-06
-2.66981e-06
1.29356e-06
-2.68316e-06
1.1849e-06
-2.69407e-06
1.07396e-06
-2.70301e-06
9.61352e-07
-2.71041e-06
8.47544e-07
-2.71661e-06
7.32912e-07
-2.7219e-06
6.17741e-07
-2.72652e-06
5.02241e-07
-2.73065e-06
3.86564e-07
2.70784e-07
-1.84396e-06
2.10284e-06
-1.93385e-06
2.13185e-06
-2.01901e-06
2.14778e-06
-2.09864e-06
2.15006e-06
-2.17211e-06
2.13849e-06
-2.23899e-06
2.11323e-06
-2.29903e-06
2.07475e-06
-2.35218e-06
2.02382e-06
-2.39859e-06
1.96143e-06
-2.43857e-06
1.88875e-06
-2.47255e-06
1.80705e-06
-2.50108e-06
1.71761e-06
-2.52478e-06
1.6217e-06
-2.54426e-06
1.52052e-06
-2.56019e-06
1.41514e-06
-2.57316e-06
1.30652e-06
-2.58373e-06
1.19547e-06
-2.59241e-06
1.08264e-06
-2.59962e-06
9.68559e-07
-2.6057e-06
8.53632e-07
-2.61095e-06
7.3816e-07
-2.61557e-06
6.22363e-07
-2.61973e-06
5.06401e-07
-2.62352e-06
3.90353e-07
-1.82392e-06
2.19157e-06
-1.90829e-06
2.21623e-06
-1.98746e-06
2.22694e-06
-2.06072e-06
2.22332e-06
-2.12757e-06
2.20534e-06
-2.1877e-06
2.17336e-06
-2.241e-06
2.12805e-06
-2.28757e-06
2.07039e-06
-2.32768e-06
2.00154e-06
-2.36175e-06
1.92282e-06
-2.39032e-06
1.83562e-06
-2.414e-06
1.74129e-06
-2.43346e-06
1.64115e-06
-2.44935e-06
1.53641e-06
-2.46231e-06
1.4281e-06
-2.47293e-06
1.31714e-06
-2.48173e-06
1.20427e-06
-2.48914e-06
1.09006e-06
-2.49554e-06
9.74952e-07
-2.50119e-06
8.59281e-07
-2.50629e-06
7.43265e-07
-2.51098e-06
6.27052e-07
-2.51534e-06
5.10756e-07
3.94411e-07
-1.79417e-06
2.27496e-06
-1.87275e-06
2.29481e-06
-1.94577e-06
2.29996e-06
-2.01265e-06
2.2902e-06
-2.073e-06
2.2657e-06
-2.12666e-06
2.22702e-06
-2.17364e-06
2.17504e-06
-2.21418e-06
2.11093e-06
-2.24865e-06
2.03602e-06
-2.27759e-06
1.95176e-06
-2.3016e-06
1.85963e-06
-2.32136e-06
1.76104e-06
-2.33753e-06
1.65733e-06
-2.3508e-06
1.54967e-06
-2.36177e-06
1.43907e-06
-2.37099e-06
1.32636e-06
-2.37892e-06
1.2122e-06
-2.38593e-06
1.09707e-06
-2.39231e-06
9.81332e-07
-2.39826e-06
8.65231e-07
-2.40389e-06
7.4889e-07
-2.40924e-06
-2.41433e-06
-1.7553e-06
2.35277e-06
-1.82797e-06
2.36748e-06
-1.89486e-06
2.36684e-06
-1.95549e-06
2.35083e-06
-2.00962e-06
2.31983e-06
-2.05721e-06
2.2746e-06
-2.09841e-06
2.21624e-06
-2.13356e-06
2.14608e-06
-2.16315e-06
2.06561e-06
-2.18777e-06
1.97639e-06
-2.2081e-06
1.87996e-06
-2.22483e-06
1.77777e-06
-2.23865e-06
1.67115e-06
-2.2502e-06
1.56122e-06
-2.26005e-06
1.44893e-06
-2.2687e-06
1.33501e-06
-2.27653e-06
1.22003e-06
-2.28385e-06
1.10439e-06
-2.29086e-06
9.8834e-07
-2.29767e-06
8.7204e-07
7.55531e-07
-1.70803e-06
2.42489e-06
-1.7748e-06
2.43425e-06
-1.83568e-06
2.42773e-06
-1.89033e-06
2.40549e-06
-1.93863e-06
2.36813e-06
-1.98066e-06
2.31663e-06
-2.01669e-06
2.25227e-06
-2.04715e-06
2.17654e-06
-2.07262e-06
2.09108e-06
-2.09375e-06
1.99752e-06
-2.11124e-06
1.89745e-06
-2.1258e-06
1.79232e-06
-2.13808e-06
1.68343e-06
-2.14869e-06
1.57184e-06
-2.15816e-06
1.4584e-06
-2.16691e-06
1.34376e-06
-2.17526e-06
1.22838e-06
-2.18342e-06
1.11255e-06
-2.19151e-06
9.96434e-07
-2.19958e-06
8.80109e-07
7.63546e-07
-1.65311e-06
2.49133e-06
-1.7141e-06
2.49524e-06
-1.76922e-06
2.48285e-06
-1.81825e-06
2.45452e-06
-1.86119e-06
2.41107e-06
-1.89822e-06
2.35366e-06
-1.92973e-06
2.28377e-06
-1.95622e-06
2.20303e-06
-1.97832e-06
2.11318e-06
-1.99673e-06
2.01592e-06
-2.01215e-06
1.91287e-06
-2.02527e-06
1.80544e-06
-2.03672e-06
1.69488e-06
-2.04705e-06
1.58217e-06
-2.05672e-06
1.46807e-06
-2.06609e-06
1.35312e-06
-2.07538e-06
1.23767e-06
-2.08474e-06
1.12191e-06
-2.09422e-06
1.00592e-06
-2.1038e-06
8.89681e-07
7.73125e-07
-1.59132e-06
2.5522e-06
-1.64675e-06
2.55067e-06
-1.69643e-06
2.53253e-06
-1.74027e-06
2.49836e-06
-1.77836e-06
2.44916e-06
-1.81099e-06
2.3863e-06
-1.83862e-06
2.3114e-06
-1.86183e-06
2.22624e-06
-1.88127e-06
2.13262e-06
-1.89765e-06
2.0323e-06
-1.91166e-06
1.92688e-06
-1.92397e-06
1.81775e-06
-1.93515e-06
1.70606e-06
-1.9457e-06
1.59272e-06
-1.956e-06
1.47837e-06
-1.96632e-06
1.36345e-06
-1.97684e-06
1.24819e-06
-1.98761e-06
1.13268e-06
-1.99863e-06
1.01693e-06
-2.0098e-06
9.00853e-07
7.84321e-07
-1.52346e-06
2.60768e-06
-1.57361e-06
2.60082e-06
-1.61823e-06
2.57715e-06
-1.65733e-06
2.53746e-06
-1.69111e-06
2.48293e-06
-1.71992e-06
2.41511e-06
-1.7443e-06
2.33577e-06
-1.76485e-06
2.24679e-06
-1.78225e-06
2.15002e-06
-1.79719e-06
2.04725e-06
-1.81035e-06
1.94004e-06
-1.82234e-06
1.82973e-06
-1.83368e-06
1.7174e-06
-1.84479e-06
1.60383e-06
-1.85599e-06
1.48957e-06
-1.86747e-06
1.37493e-06
-1.87933e-06
1.26005e-06
-1.89158e-06
1.14493e-06
-1.90414e-06
1.02949e-06
-1.91688e-06
9.13592e-07
7.97065e-07
-1.45029e-06
2.658e-06
-1.49548e-06
2.64601e-06
-1.53545e-06
2.61712e-06
-1.57029e-06
2.57229e-06
-1.60027e-06
2.51291e-06
-1.62582e-06
2.44067e-06
-1.64751e-06
2.35746e-06
-1.66596e-06
2.26524e-06
-1.68185e-06
2.16591e-06
-1.69584e-06
2.06125e-06
-1.70858e-06
1.95277e-06
-1.7206e-06
1.84176e-06
-1.73238e-06
1.72918e-06
-1.74427e-06
1.61571e-06
-1.75649e-06
1.50179e-06