/*--------------------------------*- C++ -*----------------------------------*\
  =========                 |
  \\      /  F ield         | OpenFOAM: The Open Source CFD Toolbox
   \\    /   O peration     | Website:  https://openfoam.org
    \\  /    A nd           | Version:  9
     \\/     M anipulation  |
\*---------------------------------------------------------------------------*/
FoamFile
{
    format      ascii;
    class       volVectorField;
    location    "0.25";
    object      U;
}
// * * * * * * * * * * * * * * * * * * * * * * * * * * * * * * * * * * * * * //

dimensions      [0 1 -1 0 0 0 0];

internalField   nonuniform List<vector> 
1240
(
(-0.00213854 -6.15138e-06 0)
(-0.00211498 -7.16199e-06 0)
(-0.002088 -8.1428e-06 0)
(-0.00205765 -9.11692e-06 0)
(-0.00202394 -1.00969e-05 0)
(-0.00198687 -1.10799e-05 0)
(-0.00194643 -1.20605e-05 0)
(-0.00190264 -1.30338e-05 0)
(-0.00185555 -1.39956e-05 0)
(-0.00180519 -1.49416e-05 0)
(-0.00175163 -1.58684e-05 0)
(-0.00169494 -1.67725e-05 0)
(-0.00163519 -1.76506e-05 0)
(-0.00157248 -1.84996e-05 0)
(-0.00150691 -1.93165e-05 0)
(-0.00143859 -2.00981e-05 0)
(-0.00136766 -2.08411e-05 0)
(-0.00129425 -2.15419e-05 0)
(-0.00121851 -2.21959e-05 0)
(-0.00114062 -2.27976e-05 0)
(-0.00106079 -2.33395e-05 0)
(-0.000979239 -2.38121e-05 0)
(-0.000896245 -2.42022e-05 0)
(-0.000812136 -2.44928e-05 0)
(-0.000727309 -2.46616e-05 0)
(-0.000642249 -2.46798e-05 0)
(-0.000557552 -2.45109e-05 0)
(-0.000473944 -2.4109e-05 0)
(-0.000392316 -2.3417e-05 0)
(-0.000313747 -2.23637e-05 0)
(-0.000239543 -2.08604e-05 0)
(-0.000171264 -1.87966e-05 0)
(-0.000110759 -1.60362e-05 0)
(-6.01636e-05 -1.24269e-05 0)
(-2.1791e-05 -7.86418e-06 0)
(2.11622e-06 -2.48349e-06 0)
(1.04005e-05 2.96138e-06 0)
(5.3073e-06 5.30815e-06 0)
(-0.0057285 -4.22598e-05 0)
(-0.00566493 -4.88376e-05 0)
(-0.00559241 -5.5338e-05 0)
(-0.00551099 -6.1817e-05 0)
(-0.00542074 -6.83031e-05 0)
(-0.00532163 -7.47836e-05 0)
(-0.0052137 -8.12351e-05 0)
(-0.00509702 -8.76333e-05 0)
(-0.00497167 -9.39541e-05 0)
(-0.00483778 -0.000100174 0)
(-0.0046955 -0.000106271 0)
(-0.00454502 -0.000112224 0)
(-0.00438654 -0.00011801 0)
(-0.00422029 -0.00012361 0)
(-0.00404655 -0.000129002 0)
(-0.00386561 -0.000134163 0)
(-0.00367781 -0.000139067 0)
(-0.00348351 -0.000143688 0)
(-0.00328314 -0.000147988 0)
(-0.00307715 -0.000151925 0)
(-0.00286611 -0.000155442 0)
(-0.00265064 -0.000158466 0)
(-0.0024315 -0.000160905 0)
(-0.00220958 -0.000162638 0)
(-0.00198598 -0.000163513 0)
(-0.00176201 -0.000163341 0)
(-0.00153926 -0.000161889 0)
(-0.00131967 -0.000158879 0)
(-0.00110555 -0.000153978 0)
(-0.000899666 -0.000146801 0)
(-0.000705252 -0.000136913 0)
(-0.00052605 -0.000123836 0)
(-0.000366268 -0.000107094 0)
(-0.000230448 -8.63127e-05 0)
(-0.000123095 -6.1522e-05 0)
(-4.78618e-05 -3.37874e-05 0)
(-6.38142e-06 -6.44027e-06 0)
(2.94105e-06 1.03676e-05 0)
(-0.00872636 -0.000118819 0)
(-0.00862843 -0.00013678 0)
(-0.00851709 -0.000154648 0)
(-0.00839241 -0.000172484 0)
(-0.00825445 -0.000190313 0)
(-0.00810321 -0.0002081 0)
(-0.00793876 -0.00022579 0)
(-0.0077612 -0.000243324 0)
(-0.00757068 -0.000260641 0)
(-0.00736739 -0.000277682 0)
(-0.00715156 -0.000294386 0)
(-0.00692346 -0.000310697 0)
(-0.00668341 -0.000326557 0)
(-0.00643176 -0.000341908 0)
(-0.00616891 -0.00035669 0)
(-0.00589532 -0.000370838 0)
(-0.00561148 -0.00038428 0)
(-0.00531795 -0.000396931 0)
(-0.00501537 -0.000408689 0)
(-0.00470446 -0.000419426 0)
(-0.00438606 -0.000428979 0)
(-0.00406114 -0.000437141 0)
(-0.00373085 -0.000443649 0)
(-0.00339657 -0.000448167 0)
(-0.00305995 -0.000450279 0)
(-0.00272298 -0.000449472 0)
(-0.00238805 -0.00044513 0)
(-0.002058 -0.000436525 0)
(-0.00173624 -0.000422819 0)
(-0.00142672 -0.000403074 0)
(-0.00113403 -0.000376286 0)
(-0.000863331 -0.000341446 0)
(-0.000620261 -0.000297687 0)
(-0.000410732 -0.000244579 0)
(-0.000240381 -0.000182733 0)
(-0.000113542 -0.000114876 0)
(-3.30943e-05 -4.77657e-05 0)
(-2.38393e-06 2.17395e-06 0)
(-0.0112171 -0.000225542 0)
(-0.0110895 -0.000258831 0)
(-0.010945 -0.000292051 0)
(-0.0107835 -0.000325247 0)
(-0.0106052 -0.00035841 0)
(-0.0104101 -0.000391469 0)
(-0.0101983 -0.000424327 0)
(-0.00996982 -0.000456879 0)
(-0.009725 -0.000489016 0)
(-0.00946404 -0.000520631 0)
(-0.00918725 -0.000551619 0)
(-0.00889496 -0.000581874 0)
(-0.0085876 -0.00061129 0)
(-0.0082656 -0.000639759 0)
(-0.00792949 -0.000667169 0)
(-0.00757984 -0.000693395 0)
(-0.00721728 -0.0007183 0)
(-0.00684255 -0.000741721 0)
(-0.00645644 -0.000763461 0)
(-0.0060599 -0.000783275 0)
(-0.005654 -0.000800855 0)
(-0.00523998 -0.000815808 0)
(-0.00481934 -0.000827641 0)
(-0.00439381 -0.000835734 0)
(-0.0039655 -0.000839321 0)
(-0.00353691 -0.000837474 0)
(-0.00311102 -0.000829088 0)
(-0.00269137 -0.000812881 0)
(-0.0022821 -0.000787403 0)
(-0.00188801 -0.000751077 0)
(-0.00151455 -0.000702267 0)
(-0.00116778 -0.000639424 0)
(-0.000854242 -0.000561334 0)
(-0.000580705 -0.000467591 0)
(-0.000353635 -0.000359427 0)
(-0.000178188 -0.000241035 0)
(-5.94273e-05 -0.000121686 0)
(-7.47883e-06 -2.10869e-05 0)
(-0.0132765 -0.000357779 0)
(-0.0131235 -0.000409443 0)
(-0.0129506 -0.000461104 0)
(-0.012758 -0.000512769 0)
(-0.0125456 -0.00056437 0)
(-0.0123136 -0.00061578 0)
(-0.012062 -0.000666846 0)
(-0.0117911 -0.00071741 0)
(-0.0115011 -0.00076731 0)
(-0.0111923 -0.000816384 0)
(-0.010865 -0.000864471 0)
(-0.0105198 -0.000911409 0)
(-0.0101569 -0.000957037 0)
(-0.0097771 -0.00100119 0)
(-0.00938087 -0.00104368 0)
(-0.00896891 -0.00108432 0)
(-0.00854199 -0.00112289 0)
(-0.00810096 -0.00115914 0)
(-0.00764677 -0.00119274 0)
(-0.00718054 -0.00122332 0)
(-0.00670353 -0.00125038 0)
(-0.0062172 -0.00127332 0)
(-0.0057233 -0.00129137 0)
(-0.00522388 -0.00130357 0)
(-0.00472135 -0.00130876 0)
(-0.00421861 -0.00130554 0)
(-0.00371907 -0.00129226 0)
(-0.00322674 -0.00126702 0)
(-0.00274627 -0.00122772 0)
(-0.00228301 -0.00117211 0)
(-0.001843 -0.00109791 0)
(-0.00143286 -0.00100303 0)
(-0.00105974 -0.000885906 0)
(-0.0007311 -0.000746105 0)
(-0.000454219 -0.000585231 0)
(-0.000235348 -0.000408309 0)
(-8.21591e-05 -0.000225754 0)
(-1.16094e-05 -5.78372e-05 0)
(-0.0149727 -0.000512317 0)
(-0.0147979 -0.000584833 0)
(-0.014601 -0.000657466 0)
(-0.014382 -0.000730149 0)
(-0.014141 -0.000802724 0)
(-0.0138781 -0.000874993 0)
(-0.0135933 -0.000946739 0)
(-0.013287 -0.00101774 0)
(-0.0129595 -0.00108778 0)
(-0.012611 -0.00115664 0)
(-0.0122421 -0.00122409 0)
(-0.0118531 -0.00128991 0)
(-0.0114446 -0.00135387 0)
(-0.0110173 -0.00141574 0)
(-0.0105718 -0.00147527 0)
(-0.0101089 -0.00153218 0)
(-0.00962937 -0.00158615 0)
(-0.00913429 -0.00163683 0)
(-0.00862469 -0.00168377 0)
(-0.0081018 -0.00172642 0)
(-0.00756706 -0.00176409 0)
(-0.00702211 -0.00179592 0)
(-0.00646888 -0.00182086 0)
(-0.00590963 -0.00183758 0)
(-0.00534704 -0.00184449 0)
(-0.00478426 -0.00183966 0)
(-0.00422502 -0.00182088 0)
(-0.00367363 -0.00178561 0)
(-0.00313511 -0.00173106 0)
(-0.00261516 -0.0016543 0)
(-0.0021202 -0.00155237 0)
(-0.00165728 -0.00142263 0)
(-0.00123403 -0.00126309 0)
(-0.000858543 -0.00107309 0)
(-0.000538995 -0.000854237 0)
(-0.000282883 -0.000611666 0)
(-0.00010047 -0.000355739 0)
(-1.46919e-05 -0.00010553 0)
(-0.0163662 -0.000685805 0)
(-0.016173 -0.000781212 0)
(-0.0159559 -0.000876899 0)
(-0.0157148 -0.000972682 0)
(-0.0154498 -0.00106829 0)
(-0.0151611 -0.00116343 0)
(-0.0148487 -0.00125784 0)
(-0.0145131 -0.00135122 0)
(-0.0141544 -0.00144329 0)
(-0.0137732 -0.00153377 0)
(-0.0133698 -0.00162237 0)
(-0.0129448 -0.00170881 0)
(-0.0124988 -0.00179278 0)
(-0.0120325 -0.00187397 0)
(-0.0115466 -0.00195206 0)
(-0.011042 -0.00202668 0)
(-0.0105195 -0.00209741 0)
(-0.00998035 -0.00216377 0)
(-0.00942559 -0.00222517 0)
(-0.0088566 -0.00228088 0)
(-0.00827493 -0.00233002 0)
(-0.00768236 -0.00237145 0)
(-0.00708097 -0.0024038 0)
(-0.00647318 -0.00242536 0)
(-0.00586184 -0.00243408 0)
(-0.00525031 -0.00242752 0)
(-0.00464249 -0.00240285 0)
(-0.00404295 -0.0023569 0)
(-0.00345692 -0.00228616 0)
(-0.00289036 -0.00218699 0)
(-0.00234998 -0.00205575 0)
(-0.00184317 -0.00188914 0)
(-0.00137801 -0.00168464 0)
(-0.000963229 -0.00144112 0)
(-0.000607928 -0.00115977 0)
(-0.000320873 -0.000845208 0)
(-0.00011462 -0.000506874 0)
(-1.68902e-05 -0.000161697 0)
(-0.0175111 -0.000875108 0)
(-0.0173027 -0.000995131 0)
(-0.0170687 -0.00111562 0)
(-0.0168091 -0.00123621 0)
(-0.0165242 -0.0013565 0)
(-0.0162139 -0.00147614 0)
(-0.0158786 -0.00159479 0)
(-0.0155186 -0.0017121 0)
(-0.0151342 -0.00182771 0)
(-0.0147259 -0.00194129 0)
(-0.0142941 -0.00205248 0)
(-0.0138395 -0.00216091 0)
(-0.0133626 -0.00226621 0)
(-0.0128642 -0.00236799 0)
(-0.0123452 -0.00246584 0)
(-0.0118063 -0.00255929 0)
(-0.0112486 -0.00264783 0)
(-0.0106733 -0.00273083 0)
(-0.0100816 -0.00280757 0)
(-0.00947492 -0.00287712 0)
(-0.0088549 -0.00293838 0)
(-0.00822345 -0.00298995 0)
(-0.00758273 -0.00303011 0)
(-0.00693531 -0.00305678 0)
(-0.00628416 -0.00306743 0)
(-0.00563276 -0.00305908 0)
(-0.00498517 -0.00302831 0)
(-0.00434611 -0.00297126 0)
(-0.00372097 -0.00288372 0)
(-0.00311594 -0.00276129 0)
(-0.00253793 -0.0025996 0)
(-0.00199467 -0.00239461 0)
(-0.00149468 -0.00214309 0)
(-0.00104732 -0.00184322 0)
(-0.000662589 -0.00149539 0)
(-0.000350423 -0.00110322 0)
(-0.00012526 -0.000674694 0)
(-1.8411e-05 -0.000224209 0)
(-0.0188185 -0.000787709 0)
(-0.0186502 -0.000932252 0)
(-0.0184558 -0.00107756 0)
(-0.0182346 -0.00122372 0)
(-0.0179864 -0.00137044 0)
(-0.0177114 -0.0015172 0)
(-0.0174099 -0.00166352 0)
(-0.0170819 -0.00180897 0)
(-0.0167276 -0.00195314 0)
(-0.0163475 -0.00209564 0)
(-0.0159418 -0.00223603 0)
(-0.0155111 -0.00237391 0)
(-0.0150558 -0.00250883 0)
(-0.0145766 -0.00264037 0)
(-0.0140742 -0.00276807 0)
(-0.0135493 -0.00289147 0)
(-0.0130028 -0.00301005 0)
(-0.0124356 -0.00312324 0)
(-0.0118488 -0.00323043 0)
(-0.0112437 -0.00333085 0)
(-0.0106214 -0.00342362 0)
(-0.00998364 -0.00350763 0)
(-0.00933198 -0.00358154 0)
(-0.00866843 -0.00364368 0)
(-0.00799527 -0.00369199 0)
(-0.00731513 -0.00372399 0)
(-0.00663108 -0.00373669 0)
(-0.00594672 -0.00372656 0)
(-0.0052662 -0.00368956 0)
(-0.00459437 -0.00362115 0)
(-0.00393676 -0.00351639 0)
(-0.00329973 -0.00337008 0)
(-0.00269042 -0.00317703 0)
(-0.00211687 -0.00293239 0)
(-0.00158802 -0.00263205 0)
(-0.00111386 -0.00227327 0)
(-0.000705198 -0.00185537 0)
(-0.000372983 -0.00138067 0)
(-0.000133104 -0.000855386 0)
(-1.9435e-05 -0.000291366 0)
(-0.0198934 -0.000607163 0)
(-0.0197713 -0.000776631 0)
(-0.0196223 -0.000947062 0)
(-0.019446 -0.00111849 0)
(-0.019242 -0.00129104 0)
(-0.01901 -0.00146459 0)
(-0.0187501 -0.00163866 0)
(-0.0184626 -0.00181267 0)
(-0.0181474 -0.00198608 0)
(-0.0178047 -0.00215842 0)
(-0.0174347 -0.0023292 0)
(-0.0170379 -0.00249793 0)
(-0.0166146 -0.00266414 0)
(-0.0161652 -0.00282732 0)
(-0.0156904 -0.00298696 0)
(-0.0151907 -0.00314255 0)
(-0.014667 -0.00329356 0)
(-0.0141199 -0.00343943 0)
(-0.0135505 -0.00357954 0)
(-0.0129596 -0.00371325 0)
(-0.0123485 -0.00383978 0)
(-0.0117183 -0.00395827 0)
(-0.0110705 -0.00406765 0)
(-0.0104066 -0.00416663 0)
(-0.00972835 -0.00425363 0)
(-0.00903786 -0.0043267 0)
(-0.00833745 -0.00438346 0)
(-0.00762982 -0.00442101 0)
(-0.00691813 -0.00443588 0)
(-0.00620604 -0.004424 0)
(-0.00549782 -0.0043807 0)
(-0.00479839 -0.00430074 0)
(-0.00411345 -0.0041784 0)
(-0.0034495 -0.00400767 0)
(-0.00281393 -0.00378247 0)
(-0.00221507 -0.003497 0)
(-0.00166228 -0.00314616 0)
(-0.00116612 -0.00272611 0)
(-0.000738103 -0.00223491 0)
(-0.000390016 -0.00167336 0)
(-0.000138811 -0.00104586 0)
(-2.01047e-05 -0.000361867 0)
(-0.0205808 -0.000718212 0)
(-0.0204547 -0.000914976 0)
(-0.0203003 -0.00111312 0)
(-0.0201172 -0.00131269 0)
(-0.0199055 -0.00151359 0)
(-0.019665 -0.00171548 0)
(-0.0193958 -0.00191781 0)
(-0.0190979 -0.00211999 0)
(-0.0187715 -0.00232143 0)
(-0.0184168 -0.00252159 0)
(-0.0180339 -0.00271991 0)
(-0.0176231 -0.00291581 0)
(-0.017185 -0.00310874 0)
(-0.0167201 -0.00329811 0)
(-0.0162288 -0.00348333 0)
(-0.0157118 -0.00366381 0)
(-0.01517 -0.00383892 0)
(-0.0146041 -0.00400801 0)
(-0.0140151 -0.00417038 0)
(-0.013404 -0.00432526 0)
(-0.012772 -0.00447177 0)
(-0.0121205 -0.00460888 0)
(-0.0114507 -0.00473538 0)
(-0.0107644 -0.00484978 0)
(-0.0100634 -0.00495027 0)
(-0.00934973 -0.00503461 0)
(-0.00862587 -0.00510007 0)
(-0.00789459 -0.00514336 0)
(-0.00715909 -0.00516051 0)
(-0.00642314 -0.00514692 0)
(-0.00569107 -0.00509725 0)
(-0.00496793 -0.00500555 0)
(-0.00425953 -0.00486531 0)
(-0.00357256 -0.00466962 0)
(-0.00291463 -0.00441147 0)
(-0.00229438 -0.00408403 0)
(-0.00172156 -0.00368107 0)
(-0.00120722 -0.00319753 0)
(-0.000763514 -0.00263009 0)
(-0.00040285 -0.00197795 0)
(-0.000142939 -0.00124373 0)
(-2.05296e-05 -0.000434753 0)
(-0.021171 -0.000832402 0)
(-0.0210417 -0.00105752 0)
(-0.0208831 -0.00128447 0)
(-0.0206951 -0.00151313 0)
(-0.0204777 -0.0017432 0)
(-0.0202307 -0.00197425 0)
(-0.0199541 -0.0022057 0)
(-0.019648 -0.00243691 0)
(-0.0193125 -0.00266726 0)
(-0.0189477 -0.00289611 0)
(-0.018554 -0.00312282 0)
(-0.0181316 -0.00334675 0)
(-0.017681 -0.00356723 0)
(-0.0172027 -0.00378361 0)
(-0.0166973 -0.00399522 0)
(-0.0161654 -0.00420136 0)
(-0.0156079 -0.00440132 0)
(-0.0150257 -0.00459434 0)
(-0.0144196 -0.00477964 0)
(-0.0137908 -0.00495631 0)
(-0.0131406 -0.00512337 0)
(-0.0124701 -0.00527964 0)
(-0.011781 -0.00542374 0)
(-0.0110749 -0.00555399 0)
(-0.0103537 -0.00566832 0)
(-0.00961952 -0.00576423 0)
(-0.00887487 -0.00583864 0)
(-0.0081226 -0.00588783 0)
(-0.00736599 -0.00590737 0)
(-0.00660887 -0.00589207 0)
(-0.00585569 -0.00583595 0)
(-0.0051116 -0.00573231 0)
(-0.00438257 -0.00557379 0)
(-0.00367545 -0.00535259 0)
(-0.00299808 -0.00506066 0)
(-0.0023594 -0.00469006 0)
(-0.00176953 -0.00423339 0)
(-0.00123998 -0.00368425 0)
(-0.000783369 -0.00303788 0)
(-0.000412621 -0.00229189 0)
(-0.000145946 -0.00144719 0)
(-2.07914e-05 -0.000509336 0)
(-0.0216906 -0.000948605 0)
(-0.0215596 -0.00120296 0)
(-0.0213984 -0.00145955 0)
(-0.021207 -0.00171806 0)
(-0.0209854 -0.00197808 0)
(-0.0207335 -0.0022391 0)
(-0.0204511 -0.0025005 0)
(-0.0201384 -0.00276159 0)
(-0.0197955 -0.00302168 0)
(-0.0194225 -0.00328006 0)
(-0.0190197 -0.00353601 0)
(-0.0185873 -0.00378878 0)
(-0.018126 -0.00403764 0)
(-0.0176361 -0.00428185 0)
(-0.0171182 -0.00452062 0)
(-0.0165732 -0.00475317 0)
(-0.0160017 -0.00497871 0)
(-0.0154048 -0.00519637 0)
(-0.0147834 -0.00540525 0)
(-0.0141386 -0.00560434 0)
(-0.0134717 -0.00579252 0)
(-0.0127841 -0.00596847 0)
(-0.0120773 -0.00613064 0)
(-0.011353 -0.00627714 0)
(-0.0106133 -0.00640568 0)
(-0.00986032 -0.00651345 0)
(-0.00909658 -0.00659702 0)
(-0.00832503 -0.00665228 0)
(-0.00754903 -0.00667428 0)
(-0.00677251 -0.00665725 0)
(-0.00600003 -0.00659455 0)
(-0.00523685 -0.0064787 0)
(-0.00448911 -0.00630149 0)
(-0.00376383 -0.00605413 0)
(-0.0030691 -0.00572752 0)
(-0.00241414 -0.00531257 0)
(-0.00180939 -0.00480059 0)
(-0.00126676 -0.00418381 0)
(-0.000799293 -0.00345602 0)
(-0.000420256 -0.00261329 0)
(-0.000148192 -0.00165497 0)
(-2.09497e-05 -0.000585146 0)
(-0.0221631 -0.00106564 0)
(-0.0220314 -0.00134998 0)
(-0.0218689 -0.00163691 0)
(-0.0216755 -0.001926 0)
(-0.0214511 -0.00221674 0)
(-0.0211956 -0.00250854 0)
(-0.0209089 -0.00280072 0)
(-0.0205909 -0.00309253 0)
(-0.0202419 -0.00338321 0)
(-0.0198619 -0.00367196 0)
(-0.0194513 -0.00395798 0)
(-0.0190103 -0.00424045 0)
(-0.0185393 -0.00451853 0)
(-0.018039 -0.00479137 0)
(-0.01751 -0.00505811 0)
(-0.0169529 -0.00531786 0)
(-0.0163686 -0.00556972 0)
(-0.015758 -0.00581273 0)
(-0.0151223 -0.00604587 0)
(-0.0144625 -0.00626801 0)
(-0.01378 -0.0064779 0)
(-0.0130762 -0.00667407 0)
(-0.0123527 -0.00685479 0)
(-0.0116112 -0.00701797 0)
(-0.0108539 -0.00716108 0)
(-0.010083 -0.007281 0)
(-0.00930107 -0.00737396 0)
(-0.00851116 -0.00743541 0)
(-0.00771674 -0.00745991 0)
(-0.00692181 -0.0074411 0)
(-0.00613106 -0.00737164 0)
(-0.00534991 -0.00724325 0)
(-0.00458463 -0.00704684 0)
(-0.00384246 -0.00677261 0)
(-0.00313173 -0.00641035 0)
(-0.0024619 -0.00594977 0)
(-0.00184376 -0.00538086 0)
(-0.00128953 -0.00469448 0)
(-0.00081259 -0.00388295 0)
(-0.000426485 -0.00294087 0)
(-0.000149951 -0.00186621 0)
(-2.10472e-05 -0.000661875 0)
(-0.0226074 -0.00118235 0)
(-0.0224763 -0.00149735 0)
(-0.0223136 -0.00181533 0)
(-0.0221193 -0.00213573 0)
(-0.0218933 -0.00245797 0)
(-0.0216353 -0.00278137 0)
(-0.0213452 -0.00310516 0)
(-0.0210231 -0.00342855 0)
(-0.020669 -0.00375069 0)
(-0.0202831 -0.0040707 0)
(-0.0198655 -0.00438768 0)
(-0.0194167 -0.00470072 0)
(-0.0189371 -0.00500889 0)
(-0.0184271 -0.00531123 0)
(-0.0178876 -0.00560678 0)
(-0.0173191 -0.00589456 0)
(-0.0167226 -0.00617354 0)
(-0.016099 -0.00644267 0)
(-0.0154495 -0.00670078 0)
(-0.0147752 -0.00694666 0)
(-0.0140774 -0.00717888 0)
(-0.0133578 -0.00739583 0)
(-0.0126179 -0.00759561 0)
(-0.0118596 -0.00777591 0)
(-0.0110849 -0.00793395 0)
(-0.0102964 -0.00806632 0)
(-0.00949654 -0.00816888 0)
(-0.00868858 -0.00823664 0)
(-0.00787604 -0.00826365 0)
(-0.00706307 -0.00824295 0)
(-0.00625448 -0.00816648 0)
(-0.00545583 -0.00802516 0)
(-0.00467359 -0.00780896 0)
(-0.0039152 -0.00750705 0)
(-0.00318921 -0.00710809 0)
(-0.00250537 -0.00660053 0)
(-0.00187473 -0.00597305 0)
(-0.00130981 -0.00521512 0)
(-0.000824272 -0.00431762 0)
(-0.000431862 -0.00327379 0)
(-0.000151424 -0.00208036 0)
(-2.11127e-05 -0.000739338 0)
(-0.023039 -0.00129764 0)
(-0.0229095 -0.00164401 0)
(-0.0227476 -0.00199375 0)
(-0.0225534 -0.00234623 0)
(-0.0223267 -0.00270076 0)
(-0.0220672 -0.00305658 0)
(-0.0217747 -0.00341287 0)
(-0.0214492 -0.00376874 0)
(-0.0210908 -0.00412326 0)
(-0.0206996 -0.00447546 0)
(-0.0202758 -0.00482434 0)
(-0.0198198 -0.0051689 0)
(-0.019332 -0.0055081 0)
(-0.0188129 -0.00584087 0)
(-0.0182632 -0.00616615 0)
(-0.0176836 -0.00648285 0)
(-0.0170751 -0.00678981 0)
(-0.0164386 -0.00708587 0)
(-0.0157753 -0.00736975 0)
(-0.0150865 -0.00764008 0)
(-0.0143735 -0.00789531 0)
(-0.0136379 -0.00813366 0)
(-0.0128814 -0.00835304 0)
(-0.0121061 -0.00855094 0)
(-0.0113139 -0.0087243 0)
(-0.0105075 -0.00886941 0)
(-0.00968953 -0.00898177 0)
(-0.0088633 -0.00905593 0)
(-0.00803247 -0.00908544 0)
(-0.00720132 -0.00906269 0)
(-0.0063748 -0.0089789 0)
(-0.00555865 -0.00882416 0)
(-0.00475953 -0.00858749 0)
(-0.0039851 -0.00825701 0)
(-0.00324412 -0.00782019 0)
(-0.00254661 -0.00726425 0)
(-0.0019039 -0.00657652 0)
(-0.00132876 -0.00574507 0)
(-0.000835092 -0.00475944 0)
(-0.000436788 -0.00361156 0)
(-0.000152752 -0.0022971 0)
(-2.1165e-05 -0.000817437 0)
(-0.0234703 -0.00141053 0)
(-0.0233432 -0.00178897 0)
(-0.0231832 -0.00217122 0)
(-0.0229899 -0.00255657 0)
(-0.0227633 -0.00294423 0)
(-0.022503 -0.00333338 0)
(-0.0222088 -0.0037231 0)
(-0.0218806 -0.00411241 0)
(-0.0215185 -0.00450029 0)
(-0.0211226 -0.00488568 0)
(-0.020693 -0.00526749 0)
(-0.0202301 -0.00564459 0)
(-0.0197343 -0.00601583 0)
(-0.0192061 -0.00638006 0)
(-0.0186463 -0.00673607 0)
(-0.0180557 -0.00708265 0)
(-0.017435 -0.00741854 0)
(-0.0167855 -0.00774243 0)
(-0.0161082 -0.00805293 0)
(-0.0154044 -0.00834851 0)
(-0.0146757 -0.00862749 0)
(-0.0139237 -0.00888791 0)
(-0.0131501 -0.00912748 0)
(-0.0123571 -0.00934347 0)
(-0.0115468 -0.00953256 0)
(-0.0107219 -0.00969072 0)
(-0.00988517 -0.00981307 0)
(-0.00904004 -0.00989373 0)
(-0.00819033 -0.00992566 0)
(-0.00734044 -0.00990065 0)
(-0.00649552 -0.00980916 0)
(-0.00566147 -0.00964044 0)
(-0.00484516 -0.00938253 0)
(-0.00405445 -0.00902248 0)
(-0.00329838 -0.00854658 0)
(-0.00258719 -0.00794075 0)
(-0.00193246 -0.00719101 0)
(-0.00134723 -0.00628406 0)
(-0.000845588 -0.00520813 0)
(-0.000441545 -0.00395395 0)
(-0.000154028 -0.00251629 0)
(-2.12147e-05 -0.00089613 0)
(-0.0239108 -0.00152008 0)
(-0.0237871 -0.00193135 0)
(-0.0236297 -0.00234691 0)
(-0.0234382 -0.00276597 0)
(-0.0232124 -0.00318767 0)
(-0.022952 -0.00361109 0)
(-0.0226567 -0.00403522 0)
(-0.0223263 -0.00445901 0)
(-0.0219609 -0.00488133 0)
(-0.0215605 -0.00530101 0)
(-0.0211254 -0.00571685 0)
(-0.0206557 -0.00612761 0)
(-0.020152 -0.00653203 0)
(-0.0196148 -0.00692881 0)
(-0.0190447 -0.00731664 0)
(-0.0184426 -0.00769418 0)
(-0.0178095 -0.00806003 0)
(-0.0171463 -0.00841275 0)
(-0.0164544 -0.00875081 0)
(-0.0157351 -0.00907253 0)
(-0.01499 -0.00937606 0)
(-0.0142207 -0.00965927 0)
(-0.0134292 -0.00991967 0)
(-0.0126176 -0.0101543 0)
(-0.0117882 -0.0103595 0)
(-0.0109438 -0.0105311 0)
(-0.0100874 -0.0106636 0)
(-0.00922242 -0.0107508 0)
(-0.00835291 -0.0107851 0)
(-0.00748343 -0.0107575 0)
(-0.00661929 -0.0106579 0)
(-0.00576662 -0.0104745 0)
(-0.00493249 -0.0101945 0)
(-0.00412499 -0.0098038 0)
(-0.0033534 -0.00928747 0)
(-0.00262821 -0.00863016 0)
(-0.00196126 -0.00781658 0)
(-0.00136581 -0.00683209 0)
(-0.00085612 -0.00566365 0)
(-0.000446312 -0.00430091 0)
(-0.00015531 -0.0027379 0)
(-2.12669e-05 -0.000975412 0)
(-0.024368 -0.00162541 0)
(-0.0242486 -0.00207031 0)
(-0.0240945 -0.00252002 0)
(-0.0239055 -0.0029737 0)
(-0.0236813 -0.0034304 0)
(-0.0234213 -0.00388912 0)
(-0.0231254 -0.00434876 0)
(-0.0227933 -0.00480815 0)
(-0.0224249 -0.00526606 0)
(-0.0220203 -0.00572123 0)
(-0.0215797 -0.00617231 0)
(-0.0211032 -0.00661796 0)
(-0.0205915 -0.00705678 0)
(-0.0200449 -0.00748735 0)
(-0.0194642 -0.00790822 0)
(-0.0188503 -0.00831789 0)
(-0.018204 -0.00871485 0)
(-0.0175266 -0.0090975 0)
(-0.0168193 -0.00946414 0)
(-0.0160835 -0.00981296 0)
(-0.0153209 -0.0101419 0)
(-0.0145334 -0.0104487 0)
(-0.0137228 -0.0107306 0)
(-0.0128914 -0.0109845 0)
(-0.0120417 -0.0112064 0)
(-0.0111766 -0.0113916 0)
(-0.0102992 -0.0115345 0)
(-0.00941318 -0.0116282 0)
(-0.00852268 -0.0116647 0)
(-0.00763247 -0.0116343 0)
(-0.00674807 -0.011526 0)
(-0.0058758 -0.0113273 0)
(-0.00502297 -0.0110242 0)
(-0.00419792 -0.0106016 0)
(-0.00341016 -0.0100434 0)
(-0.00267044 -0.00933288 0)
(-0.00199085 -0.00845351 0)
(-0.00138486 -0.00738935 0)
(-0.00086691 -0.00612612 0)
(-0.000451194 -0.00465252 0)
(-0.000156625 -0.00296197 0)
(-2.13224e-05 -0.0010553 0)
(-0.0248476 -0.00172567 0)
(-0.0247333 -0.00220503 0)
(-0.0245834 -0.00268981 0)
(-0.0243976 -0.00317909 0)
(-0.0241756 -0.00367184 0)
(-0.0239166 -0.00416697 0)
(-0.0236205 -0.00466328 0)
(-0.023287 -0.0051595 0)
(-0.0229159 -0.00565428 0)
(-0.0225072 -0.00614624 0)
(-0.0220611 -0.0066339 0)
(-0.0215778 -0.00711579 0)
(-0.0210577 -0.00759037 0)
(-0.0205014 -0.00805607 0)
(-0.0199096 -0.0085113 0)
(-0.0192831 -0.00895442 0)
(-0.018623 -0.00938374 0)
(-0.0179304 -0.00979752 0)
(-0.0172067 -0.0101939 0)
(-0.0164534 -0.0105709 0)
(-0.0156721 -0.0109262 0)
(-0.014865 -0.0112575 0)
(-0.0140339 -0.0115617 0)
(-0.0131814 -0.0118354 0)
(-0.01231 -0.0120743 0)
(-0.0114227 -0.0122736 0)
(-0.0105229 -0.0124271 0)
(-0.00961436 -0.0125274 0)
(-0.00870147 -0.0125658 0)
(-0.00778919 -0.0125322 0)
(-0.00688324 -0.0124146 0)
(-0.00599021 -0.0121997 0)
(-0.00511761 -0.0118724 0)
(-0.00427405 -0.0114166 0)
(-0.0034693 -0.0108149 0)
(-0.00271436 -0.0100495 0)
(-0.00202157 -0.00910226 0)
(-0.0014046 -0.00795617 0)
(-0.000878072 -0.0065958 0)
(-0.000456236 -0.00500893 0)
(-0.00015798 -0.00318857 0)
(-2.13792e-05 -0.0011358 0)
(-0.0253541 -0.00181999 0)
(-0.0252458 -0.00233471 0)
(-0.0251008 -0.00285553 0)
(-0.024919 -0.00338146 0)
(-0.0246997 -0.00391141 0)
(-0.0244423 -0.00444416 0)
(-0.0241464 -0.00497841 0)
(-0.0238118 -0.00551279 0)
(-0.0234382 -0.00604584 0)
(-0.0230255 -0.006576 0)
(-0.0225738 -0.00710171 0)
(-0.0220835 -0.00762132 0)
(-0.0215548 -0.00813315 0)
(-0.0209883 -0.00863548 0)
(-0.0203847 -0.00912654 0)
(-0.0197449 -0.00960454 0)
(-0.01907 -0.0100676 0)
(-0.0183612 -0.0105138 0)
(-0.0176199 -0.0109412 0)
(-0.0168477 -0.0113475 0)
(-0.0160465 -0.0117303 0)
(-0.0152183 -0.012087 0)
(-0.0143652 -0.0124143 0)
(-0.0134899 -0.0127085 0)
(-0.0125951 -0.0129651 0)
(-0.011684 -0.0131787 0)
(-0.0107601 -0.0133429 0)
(-0.00982747 -0.0134497 0)
(-0.0088906 -0.0134899 0)
(-0.00795472 -0.0134525 0)
(-0.00702579 -0.013325 0)
(-0.00611064 -0.0130929 0)
(-0.00521706 -0.0127404 0)
(-0.0043539 -0.0122499 0)
(-0.0035312 -0.011603 0)
(-0.00276024 -0.0107806 0)
(-0.00205358 -0.00976338 0)
(-0.00142512 -0.00853298 0)
(-0.000889642 -0.00707296 0)
(-0.000461442 -0.00537032 0)
(-0.000159369 -0.00341779 0)
(-2.14331e-05 -0.00121695 0)
(-0.0258907 -0.00190748 0)
(-0.0257893 -0.00245851 0)
(-0.0256501 -0.00301643 0)
(-0.0254729 -0.00358015 0)
(-0.0252571 -0.0041485 0)
(-0.0250018 -0.00472018 0)
(-0.0247067 -0.00529377 0)
(-0.0243712 -0.00586778 0)
(-0.0239953 -0.00644059 0)
(-0.0235786 -0.00701055 0)
(-0.0231214 -0.0075759 0)
(-0.0226237 -0.00813486 0)
(-0.022086 -0.00868558 0)
(-0.0215087 -0.00922616 0)
(-0.0208927 -0.00975467 0)
(-0.0202387 -0.0102691 0)
(-0.019548 -0.0107675 0)
(-0.0188218 -0.0112477 0)
(-0.0180616 -0.0117074 0)
(-0.0172692 -0.0121443 0)
(-0.0164464 -0.0125557 0)
(-0.0155954 -0.0129388 0)
(-0.0147187 -0.0132901 0)
(-0.0138188 -0.0136055 0)
(-0.0128988 -0.0138803 0)
(-0.0119621 -0.0141086 0)
(-0.0110123 -0.0142836 0)
(-0.0100537 -0.0143969 0)
(-0.00909104 -0.0144386 0)
(-0.00812987 -0.014397 0)
(-0.00717637 -0.0142587 0)
(-0.00623763 -0.0140084 0)
(-0.0053217 -0.0136292 0)
(-0.00443773 -0.0131025 0)
(-0.00359604 -0.0124086 0)
(-0.00280817 -0.0115271 0)
(-0.00208692 -0.0104375 0)
(-0.00144642 -0.00912025 0)
(-0.000901591 -0.00755793 0)
(-0.000466779 -0.00573688 0)
(-0.000160771 -0.00364971 0)
(-2.14786e-05 -0.00129875 0)
(-0.0264602 -0.0019872 0)
(-0.0263665 -0.00257556 0)
(-0.0262341 -0.00317168 0)
(-0.0260623 -0.00377441 0)
(-0.0258506 -0.0043825 0)
(-0.0255981 -0.00499453 0)
(-0.0253041 -0.00560897 0)
(-0.0249683 -0.00622419 0)
(-0.0245902 -0.00683843 0)
(-0.0241696 -0.00744989 0)
(-0.0237067 -0.00805665 0)
(-0.0232014 -0.00865674 0)
(-0.0226542 -0.00924815 0)
(-0.0220655 -0.0098288 0)
(-0.0214362 -0.0103965 0)
(-0.0207672 -0.0109492 0)
(-0.0200595 -0.0114846 0)
(-0.0193146 -0.0120003 0)
(-0.0185341 -0.0124939 0)
(-0.0177198 -0.0129628 0)
(-0.0168738 -0.0134041 0)
(-0.0159983 -0.0138147 0)
(-0.015096 -0.0141909 0)
(-0.0141696 -0.0145283 0)
(-0.0132224 -0.0148219 0)
(-0.012258 -0.0150653 0)
(-0.0112803 -0.0152513 0)
(-0.0102937 -0.0153709 0)
(-0.00930347 -0.0154137 0)
(-0.00831519 -0.0153672 0)
(-0.00733539 -0.0152173 0)
(-0.00637145 -0.0149476 0)
(-0.00543172 -0.0145403 0)
(-0.00452566 -0.0139756 0)
(-0.00366385 -0.0132326 0)
(-0.00285812 -0.0122897 0)
(-0.00212153 -0.0111252 0)
(-0.00146842 -0.00971844 0)
(-0.000913845 -0.00805102 0)
(-0.000472195 -0.00610879 0)
(-0.000162159 -0.0038844 0)
(-2.15088e-05 -0.0013812 0)
(-0.0270645 -0.00205813 0)
(-0.0269797 -0.00268489 0)
(-0.0268549 -0.0033204 0)
(-0.0266895 -0.00396346 0)
(-0.0264828 -0.00461271 0)
(-0.0262336 -0.00526664 0)
(-0.0259414 -0.00592357 0)
(-0.0256055 -0.00658173 0)
(-0.0252255 -0.00723922 0)
(-0.0248011 -0.00789406 0)
(-0.0243323 -0.00854415 0)
(-0.0238192 -0.00918735 0)
(-0.023262 -0.00982143 0)
(-0.0226614 -0.0104441 0)
(-0.022018 -0.0110531 0)
(-0.0213328 -0.0116459 0)
(-0.020607 -0.0122201 0)
(-0.019842 -0.0127731 0)
(-0.0190396 -0.0133022 0)
(-0.0182018 -0.0138047 0)
(-0.0173306 -0.0142773 0)
(-0.0164287 -0.0147167 0)
(-0.0154987 -0.0151188 0)
(-0.0145437 -0.015479 0)
(-0.0135671 -0.0157919 0)
(-0.0125728 -0.0160508 0)
(-0.011565 -0.0162479 0)
(-0.0105484 -0.0163738 0)
(-0.00952841 -0.0164172 0)
(-0.00851104 -0.0163651 0)
(-0.00750308 -0.0162024 0)
(-0.00651223 -0.0159121 0)
(-0.00554716 -0.015475 0)
(-0.00461762 -0.0148704 0)
(-0.00373452 -0.0140761 0)
(-0.00290996 -0.0130694 0)
(-0.00215726 -0.0118273 0)
(-0.00149098 -0.0103281 0)
(-0.000926296 -0.00855255 0)
(-0.000477614 -0.00648618 0)
(-0.000163498 -0.00412188 0)
(-2.15163e-05 -0.00146427 0)
(-0.0277055 -0.00211916 0)
(-0.0276306 -0.00278543 0)
(-0.0275146 -0.00346161 0)
(-0.0273566 -0.00414641 0)
(-0.0271556 -0.00483838 0)
(-0.0269107 -0.00553587 0)
(-0.0266208 -0.00623708 0)
(-0.0262853 -0.00694007 0)
(-0.0259037 -0.00764279 0)
(-0.0254756 -0.00834305 0)
(-0.0250009 -0.00903859 0)
(-0.0244796 -0.00972704 0)
(-0.0239121 -0.010406 0)
(-0.0232987 -0.0110729 0)
(-0.0226403 -0.0117252 0)
(-0.0219378 -0.0123603 0)
(-0.0211926 -0.0129754 0)
(-0.0204061 -0.0135676 0)
(-0.0195801 -0.0141342 0)
(-0.0187168 -0.0146718 0)
(-0.0178186 -0.0151773 0)
(-0.016888 -0.0156467 0)
(-0.0159281 -0.0160759 0)
(-0.0149422 -0.0164599 0)
(-0.013934 -0.0167927 0)
(-0.0129074 -0.0170675 0)
(-0.0118671 -0.0172758 0)
(-0.0108182 -0.0174076 0)
(-0.00976623 -0.0174511 0)
(-0.00871764 -0.0173926 0)
(-0.00767954 -0.0172161 0)
(-0.00665997 -0.0169036 0)
(-0.00566791 -0.0164349 0)
(-0.00471347 -0.0157882 0)
(-0.00380786 -0.0149403 0)
(-0.00296348 -0.0138669 0)
(-0.00219391 -0.0125443 0)
(-0.00151392 -0.0109495 0)
(-0.000938803 -0.00906277 0)
(-0.000482946 -0.00686917 0)
(-0.000164749 -0.00436214 0)
(-2.14928e-05 -0.00154792 0)
(-0.0283845 -0.00216902 0)
(-0.0283209 -0.002876 0)
(-0.0282149 -0.0035942 0)
(-0.0280654 -0.00432227 0)
(-0.0278713 -0.00505863 0)
(-0.0276313 -0.00580149 0)
(-0.0273444 -0.00654891 0)
(-0.0270099 -0.00729879 0)
(-0.0266271 -0.00804888 0)
(-0.0261955 -0.00879682 0)
(-0.0257149 -0.00954011 0)
(-0.0251853 -0.0102762 0)
(-0.0246068 -0.0110024 0)
(-0.0239801 -0.0117159 0)
(-0.0233057 -0.012414 0)
(-0.0225848 -0.0130936 0)
(-0.0218187 -0.0137519 0)
(-0.021009 -0.0143856 0)
(-0.0201577 -0.0149915 0)
(-0.019267 -0.0155662 0)
(-0.0183395 -0.0161062 0)
(-0.0173781 -0.0166072 0)
(-0.0163859 -0.0170646 0)
(-0.0153665 -0.0174733 0)
(-0.014324 -0.0178268 0)
(-0.0132626 -0.0181177 0)
(-0.0121873 -0.0183372 0)
(-0.0111035 -0.0184747 0)
(-0.0100172 -0.0185177 0)
(-0.00893514 -0.0184518 0)
(-0.00786479 -0.0182601 0)
(-0.00681455 -0.0179237 0)
(-0.00579381 -0.0174215 0)
(-0.00481297 -0.0167304 0)
(-0.00388361 -0.0158261 0)
(-0.00301841 -0.0146833 0)
(-0.00223123 -0.0132769 0)
(-0.00153702 -0.0115833 0)
(-0.000951199 -0.00958189 0)
(-0.000488087 -0.00725778 0)
(-0.000165865 -0.00460513 0)
(-2.14292e-05 -0.00163209 0)
(-0.0291028 -0.00220628 0)
(-0.0290522 -0.00295523 0)
(-0.0289575 -0.00371693 0)
(-0.0288177 -0.00448991 0)
(-0.0286316 -0.00527246 0)
(-0.0283976 -0.00606265 0)
(-0.0281146 -0.00685838 0)
(-0.0277818 -0.00765737 0)
(-0.0273982 -0.00845719 0)
(-0.0269634 -0.00925525 0)
(-0.0264769 -0.0100488 0)
(-0.0259387 -0.0108351 0)