/*--------------------------------*- C++ -*----------------------------------*\
  =========                 |
  \\      /  F ield         | OpenFOAM: The Open Source CFD Toolbox
   \\    /   O peration     | Website:  https://openfoam.org
    \\  /    A nd           | Version:  9
     \\/     M anipulation  |
\*---------------------------------------------------------------------------*/
FoamFile
{
    format      ascii;
    class       volScalarField;
    location    "4";
    object      p;
}
// * * * * * * * * * * * * * * * * * * * * * * * * * * * * * * * * * * * * * //

dimensions      [0 2 -2 0 0 0 0];

internalField   nonuniform List<scalar> 
10000
(
0.109402
0.109424
0.109437
0.109437
0.10942
0.109385
0.109332
0.109262
0.109178
0.109081
0.108973
0.108855
0.108729
0.108594
0.108451
0.108301
0.108142
0.107974
0.107797
0.10761
0.107413
0.107204
0.106985
0.106755
0.106514
0.106264
0.106004
0.105736
0.105462
0.105183
0.104903
0.104623
0.104346
0.104077
0.103819
0.103575
0.103351
0.103151
0.102979
0.10284
0.102739
0.102679
0.102665
0.102699
0.102783
0.102921
0.103112
0.103356
0.103651
0.103995
0.104382
0.104809
0.105268
0.10575
0.106246
0.106748
0.107243
0.107721
0.10817
0.108579
0.108938
0.109237
0.109468
0.109623
0.109699
0.109692
0.109601
0.109429
0.109178
0.108856
0.108469
0.108028
0.107542
0.107022
0.10648
0.105928
0.105374
0.10483
0.104304
0.103803
0.103333
0.102898
0.102501
0.102144
0.101826
0.101548
0.101308
0.101104
0.100933
0.100794
0.100684
0.1006
0.100542
0.100507
0.100493
0.1005
0.100525
0.100561
0.100603
0.100635
0.10938
0.109402
0.10941
0.109406
0.109386
0.109351
0.109301
0.109236
0.109158
0.109067
0.108967
0.108857
0.108738
0.108611
0.108476
0.108333
0.108182
0.108022
0.107852
0.107674
0.107485
0.107286
0.107076
0.106856
0.106626
0.106386
0.106138
0.105881
0.105618
0.10535
0.10508
0.10481
0.104543
0.104281
0.104029
0.103791
0.10357
0.103371
0.103198
0.103055
0.102948
0.102879
0.102853
0.102872
0.102941
0.103059
0.103228
0.103447
0.103716
0.104032
0.10439
0.104785
0.105212
0.105663
0.106129
0.106599
0.107065
0.107514
0.107937
0.108323
0.108661
0.108942
0.109159
0.109304
0.109373
0.109364
0.109276
0.10911
0.10887
0.108562
0.108194
0.107773
0.107311
0.106818
0.106303
0.105779
0.105255
0.10474
0.104241
0.103767
0.103321
0.102909
0.102532
0.102192
0.101889
0.101623
0.101392
0.101195
0.101029
0.100893
0.100783
0.100699
0.100637
0.100596
0.100575
0.100571
0.100583
0.100606
0.100635
0.100668
0.109367
0.109394
0.109402
0.109396
0.109375
0.109341
0.109292
0.109229
0.109154
0.109069
0.108973
0.108868
0.108755
0.108634
0.108505
0.108369
0.108224
0.108071
0.107909
0.107737
0.107556
0.107364
0.107162
0.10695
0.106727
0.106495
0.106253
0.106003
0.105747
0.105485
0.105219
0.104953
0.104688
0.104428
0.104176
0.103935
0.103711
0.103506
0.103326
0.103174
0.103056
0.102975
0.102935
0.10294
0.102991
0.103092
0.103243
0.103444
0.103693
0.10399
0.104329
0.104706
0.105115
0.105548
0.105997
0.106453
0.106904
0.107341
0.107753
0.10813
0.10846
0.108735
0.108947
0.109089
0.109157
0.109148
0.109062
0.108899
0.108664
0.108363
0.108002
0.107592
0.10714
0.106659
0.106158
0.105648
0.105139
0.104639
0.104157
0.103699
0.10327
0.102873
0.102511
0.102185
0.101894
0.10164
0.101419
0.10123
0.101071
0.100939
0.100833
0.100749
0.100687
0.100645
0.10062
0.100612
0.100618
0.100635
0.100665
0.100709
0.109366
0.109398
0.109408
0.109401
0.10938
0.109345
0.109297
0.109236
0.109163
0.109081
0.108989
0.108888
0.10878
0.108664
0.108542
0.108411
0.108273
0.108126
0.107971
0.107806
0.107631
0.107446
0.10725
0.107044
0.106827
0.1066
0.106363
0.106117
0.105862
0.105602
0.105336
0.105068
0.1048
0.104535
0.104276
0.104027
0.103792
0.103575
0.103381
0.103215
0.10308
0.102982
0.102924
0.10291
0.102943
0.103025
0.103158
0.103341
0.103574
0.103854
0.104178
0.104544
0.104941
0.105365
0.105805
0.106254
0.106701
0.107134
0.107544
0.10792
0.108251
0.108527
0.108742
0.108887
0.108959
0.108953
0.108871
0.108712
0.108482
0.108185
0.107829
0.107423
0.106977
0.106501
0.106007
0.105505
0.105005
0.104515
0.104044
0.103597
0.10318
0.102796
0.102447
0.102134
0.101856
0.101613
0.101403
0.101224
0.101073
0.100949
0.100848
0.100768
0.100708
0.100666
0.100641
0.100631
0.100635
0.100653
0.100686
0.100744
0.109383
0.109417
0.109427
0.109419
0.109398
0.109362
0.109313
0.109253
0.109182
0.109101
0.109013
0.108916
0.108813
0.108702
0.108585
0.10846
0.108328
0.108188
0.108039
0.10788
0.107711
0.107532
0.107341
0.107139
0.106925
0.1067
0.106464
0.106218
0.105961
0.105696
0.105425
0.105149
0.104871
0.104593
0.10432
0.104054
0.103801
0.103565
0.10335
0.103162
0.103004
0.102883
0.102802
0.102765
0.102776
0.102837
0.10295
0.103115
0.103332
0.103598
0.103911
0.104264
0.104653
0.105071
0.105508
0.105955
0.106402
0.106839
0.107253
0.107635
0.107973
0.108258
0.108481
0.108636
0.108716
0.10872
0.108647
0.108496
0.108273
0.107983
0.107634
0.107233
0.106793
0.106323
0.105834
0.105338
0.104844
0.104362
0.103899
0.103462
0.103055
0.102682
0.102345
0.102045
0.10178
0.101549
0.101351
0.101184
0.101043
0.100927
0.100834
0.100761
0.100705
0.100666
0.100642
0.100632
0.100637
0.100655
0.100693
0.100763
0.109418
0.109452
0.109461
0.109451
0.109428
0.109391
0.109341
0.109281
0.10921
0.109131
0.109045
0.108952
0.108852
0.108747
0.108634
0.108515
0.108389
0.108254
0.10811
0.107956
0.107792
0.107616
0.107427
0.107227
0.107013
0.106785
0.106545
0.106292
0.106027
0.105752
0.105467
0.105174
0.104877
0.104578
0.104282
0.103991
0.103711
0.103446
0.103202
0.102984
0.102797
0.102647
0.102537
0.102473
0.102459
0.102496
0.102587
0.102732
0.102932
0.103184
0.103485
0.10383
0.104214
0.104628
0.105066
0.105516
0.105969
0.106414
0.106839
0.107233
0.107586
0.107887
0.108127
0.108299
0.108398
0.108419
0.108361
0.108227
0.108018
0.10774
0.107401
0.107011
0.106578
0.106116
0.105634
0.105144
0.104656
0.104181
0.103725
0.103296
0.102899
0.102536
0.10221
0.101922
0.101669
0.101451
0.101266
0.10111
0.100981
0.100875
0.100791
0.100725
0.100675
0.100641
0.10062
0.100612
0.100619
0.100639
0.10068
0.100758
0.109474
0.109504
0.10951
0.109498
0.109471
0.109432
0.109381
0.109319
0.109249
0.109171
0.109086
0.108996
0.1089
0.108798
0.10869
0.108575
0.108453
0.108322
0.108182
0.10803
0.107868
0.107692
0.107502
0.107298
0.107078
0.106843
0.106592
0.106325
0.106044
0.105748
0.10544
0.105121
0.104795
0.104465
0.104134
0.103808
0.103491
0.103189
0.102907
0.102651
0.102428
0.102241
0.102098
0.102002
0.101957
0.101967
0.102033
0.102158
0.102339
0.102576
0.102866
0.103203
0.103583
0.103997
0.104438
0.104895
0.105359
0.105818
0.10626
0.106675
0.10705
0.107376
0.107642
0.107842
0.107968
0.108017
0.107986
0.107877
0.107692
0.107436
0.107117
0.106743
0.106325
0.105875
0.105404
0.104923
0.104444
0.103976
0.103528
0.103107
0.102718
0.102365
0.102049
0.101771
0.10153
0.101324
0.10115
0.101006
0.100889
0.100794
0.10072
0.100662
0.10062
0.100591
0.100574
0.10057
0.100578
0.1006
0.100644
0.100726
0.109548
0.109573
0.109574
0.109558
0.109528
0.109485
0.109432
0.109369
0.109298
0.10922
0.109137
0.109048
0.108954
0.108855
0.10875
0.108638
0.108518
0.108389
0.108249
0.108098
0.107933
0.107752
0.107556
0.107343
0.107111
0.106859
0.106589
0.106299
0.105991
0.105664
0.105322
0.104966
0.1046
0.104226
0.103851
0.103479
0.103115
0.102765
0.102436
0.102134
0.101866
0.101637
0.101453
0.101319
0.10124
0.101218
0.101257
0.101356
0.101517
0.101738
0.102015
0.102344
0.10272
0.103136
0.103582
0.10405
0.104529
0.105007
0.105473
0.105916
0.106323
0.106683
0.106988
0.107226
0.107393
0.107482
0.107492
0.107422
0.107273
0.107051
0.106763
0.106417
0.106024
0.105595
0.105141
0.104675
0.104209
0.103752
0.103313
0.102901
0.102521
0.102176
0.101869
0.101601
0.10137
0.101175
0.101012
0.10088
0.100773
0.100689
0.100624
0.100576
0.100541
0.100518
0.100506
0.100506
0.100516
0.10054
0.100584
0.100667
0.109642
0.109659
0.109653
0.109632
0.109597
0.109551
0.109495
0.109429
0.109357
0.109279
0.109196
0.109108
0.109015
0.108917
0.108813
0.108702
0.108582
0.108451
0.108309
0.108152
0.107979
0.107789
0.107579
0.107348
0.107095
0.106819
0.106519
0.106195
0.105848
0.105479
0.10509
0.104684
0.104265
0.103837
0.103405
0.102975
0.102553
0.102146
0.101761
0.101405
0.101084
0.100805
0.100574
0.100396
0.100276
0.100218
0.100224
0.100295
0.100432
0.100633
0.100895
0.101215
0.101587
0.102004
0.102457
0.102938
0.103436
0.103939
0.104436
0.104914
0.105363
0.105769
0.106123
0.106414
0.106636
0.106781
0.106847
0.106831
0.106736
0.106564
0.106322
0.106018
0.105662
0.105265
0.10484
0.104397
0.10395
0.103509
0.103085
0.102684
0.102313
0.101978
0.10168
0.10142
0.101198
0.101012
0.10086
0.100737
0.10064
0.100566
0.10051
0.100469
0.100442
0.100425
0.100418
0.10042
0.100433
0.100457
0.1005
0.10058
0.109754
0.10976
0.109747
0.109719
0.10968
0.109629
0.109569
0.109501
0.109427
0.109347
0.109263
0.109175
0.109081
0.108983
0.108877
0.108764
0.10864
0.108504
0.108353
0.108186
0.107999
0.107791
0.107559
0.107302
0.107017
0.106704
0.106363
0.105992
0.105593
0.105169
0.10472
0.104251
0.103767
0.103271
0.102771
0.102272
0.101782
0.101308
0.100857
0.100437
0.100055
0.0997182
0.0994326
0.0992039
0.0990372
0.0989361
0.0989036
0.0989412
0.0990493
0.0992271
0.0994718
0.0997799
0.100146
0.100564
0.101025
0.10152
0.10204
0.102572
0.103106
0.103629
0.104128
0.104591
0.105007
0.105366
0.105658
0.105877
0.106016
0.106074
0.106051
0.105948
0.10577
0.105526
0.105224
0.104875
0.10449
0.104083
0.103666
0.103249
0.102844
0.102459
0.102102
0.101777
0.101488
0.101237
0.101023
0.100845
0.1007
0.100585
0.100496
0.100429
0.100381
0.100347
0.100326
0.100314
0.100311
0.100316
0.10033
0.100353
0.100394
0.100468
0.109883
0.109876
0.109854
0.10982
0.109774
0.109719
0.109655
0.109584
0.109507
0.109425
0.109339
0.109248
0.109152
0.10905
0.10894
0.10882
0.108688
0.108541
0.108376
0.108191
0.107982
0.107747
0.107483
0.107188
0.10686
0.106498
0.106101
0.10567
0.105207
0.104712
0.10419
0.103645
0.103082
0.102507
0.101926
0.101347
0.100778
0.100226
0.0997002
0.0992075
0.0987561
0.0983531
0.0980052
0.0977183
0.0974975
0.0973471
0.0972701
0.0972684
0.0973427
0.0974924
0.0977153
0.0980082
0.0983662
0.0987831
0.0992515
0.0997625
0.100306
0.100872
0.101447
0.102021
0.102579
0.10311
0.103602
0.104042
0.104421
0.104731
0.104963
0.105116
0.105185
0.105172
0.105081
0.104917
0.104688
0.104406
0.10408
0.103723
0.103348
0.102966
0.10259
0.102228
0.101888
0.101578
0.1013
0.101058
0.100851
0.100679
0.100541
0.100431
0.100348
0.100287
0.100243
0.100215
0.100198
0.100189
0.100189
0.100195
0.100209
0.100231
0.100268
0.100334
0.110027
0.110005
0.109974
0.109932
0.10988
0.109819
0.109751
0.109676
0.109596
0.109511
0.10942
0.109325
0.109224
0.109115
0.108997
0.108866
0.10872
0.108556
0.108369
0.108157
0.107917
0.107644
0.107336
0.106991
0.106606
0.106181
0.105716
0.10521
0.104667
0.104089
0.10348
0.102845
0.10219
0.101523
0.10085
0.10018
0.0995217
0.0988826
0.0982719
0.0976977
0.0971682
0.096691
0.096273
0.0959205
0.0956389
0.0954325
0.0953047
0.0952578
0.0952927
0.0954094
0.0956061
0.0958798
0.0962264
0.0966402
0.0971142
0.0976403
0.0982088
0.0988094
0.0994305
0.10006
0.100685
0.101293
0.10187
0.102406
0.102887
0.103305
0.103651
0.103918
0.104102
0.104203
0.104222
0.104162
0.10403
0.103835
0.103588
0.1033
0.102984
0.102652
0.102315
0.101986
0.101671
0.10138
0.101117
0.100885
0.100687
0.100521
0.100387
0.100281
0.100201
0.100142
0.100102
0.100076
0.100061
0.100054
0.100054
0.100061
0.100073
0.100092
0.100124
0.100181
0.110185
0.110146
0.110103
0.110053
0.109995
0.109929
0.109856
0.109777
0.109692
0.109602
0.109506
0.109404
0.109294
0.109175
0.109043
0.108896
0.108729
0.108539
0.108322
0.108074
0.10779
0.107468
0.107104
0.106695
0.106239
0.105737
0.105188
0.104593
0.103956
0.10328
0.10257
0.101833
0.101075
0.100304
0.099528
0.0987567
0.0979986
0.097263
0.0965588
0.0958948
0.0952795
0.0947207
0.0942257
0.093801
0.0934521
0.0931837
0.0929995
0.0929019
0.0928924
0.0929712
0.0931369
0.0933873
0.0937187
0.094126
0.0946029
0.0951419
0.0957341
0.0963696
0.0970373
0.0977255
0.0984216
0.0991125
0.099785
0.100426
0.101024
0.101566
0.102042
0.102444
0.102767
0.103005
0.103158
0.103228
0.103218
0.103136
0.102992
0.102794
0.102557
0.102292
0.102011
0.101725
0.101446
0.101182
0.100938
0.100721
0.100532
0.100372
0.100242
0.100138
0.100059
0.100001
0.0999609
0.0999344
0.0999188
0.0999113
0.0999102
0.0999146
0.0999243
0.0999399
0.0999663
0.100014
0.110352
0.110295
0.110241
0.110183
0.110117
0.110046
0.109967
0.109883
0.109793
0.109696
0.109592
0.10948
0.109358
0.109223
0.109072
0.108901
0.108706
0.108482
0.108224
0.107929
0.10759
0.107205
0.106771
0.106284
0.105743
0.105148
0.104501
0.103803
0.103058
0.10227
0.101447
0.100595
0.0997222
0.0988368
0.0979483
0.0970663
0.0962003
0.09536
0.0945549
0.0937943
0.0930868
0.0924405
0.091863
0.0913608
0.0909398
0.0906048
0.0903596
0.090207
0.0901487
0.0901852
0.0903159
0.0905387
0.0908506
0.0912474
0.0917233
0.0922716
0.0928844
0.0935523
0.0942652
0.0950117
0.0957798
0.0965566
0.0973287
0.0980828
0.0988055
0.0994839
0.100106
0.100662
0.101142
0.101541
0.101853
0.102079
0.102218
0.102277
0.102261
0.10218
0.102045
0.101867
0.10166
0.101435
0.101204
0.100976
0.10076
0.100561
0.100385
0.100234
0.100107
0.100005
0.0999255
0.0998657
0.0998227
0.0997933
0.0997744
0.0997636
0.099759
0.0997595
0.0997651
0.0997759
0.099796
0.0998336
0.110526
0.110449
0.110382
0.110316
0.110244
0.110166
0.110082
0.109992
0.109894
0.109789
0.109674
0.109549
0.10941
0.109254
0.109077
0.108875
0.108642
0.108374
0.108065
0.107709
0.107303
0.106842
0.106323
0.105743
0.105102
0.104401
0.103641
0.102826
0.10196
0.101049
0.100101
0.099123
0.098125
0.0971162
0.0961065
0.0951061
0.0941254
0.0931744
0.0922632
0.0914011
0.0905972
0.0898597
0.0891963
0.0886136
0.0881176
0.0877132
0.0874043
0.0871939
0.0870838
0.087075
0.087167
0.0873585
0.0876468
0.0880285
0.0884987
0.0890515
0.0896798
0.0903753
0.0911288
0.0919298
0.0927669
0.0936279
0.0944996
0.0953686
0.0962211
0.0970433
0.0978219
0.0985445
0.0991998
0.0997784
0.100273
0.100679
0.100995
0.101222
0.101363
0.101426
0.10142
0.101355
0.101243
0.101098
0.100931
0.100753
0.100574
0.100403
0.100244
0.100104
0.0999824
0.0998816
0.0998003
0.0997369
0.099689
0.099654
0.0996294
0.0996127
0.0996022
0.099597
0.0995968
0.0996019
0.0996153
0.0996435
0.110702
0.110603
0.110525
0.11045
0.110371
0.110287
0.110196
0.110098
0.109992
0.109875
0.109747
0.109603
0.109442
0.109259
0.109049
0.108807
0.108528
0.108204
0.107831
0.107403
0.106916
0.106364
0.105746
0.10506
0.104305
0.103483
0.102597
0.101652
0.100653
0.0996078
0.0985244
0.0974123
0.0962813
0.0951418
0.0940048
0.0928809
0.0917812
0.0907161
0.089696
0.0887305
0.0878287
0.0869991
0.0862491
0.0855856
0.0850143
0.0845402
0.0841671
0.083898
0.0837349
0.0836788
0.0837299
0.0838869
0.084148
0.0845101
0.0849693
0.0855206
0.086158
0.0868742
0.087661
0.0885092
0.0894084
0.0903472
0.0913134
0.0922937
0.0932744
0.0942414
0.0951802
0.096077
0.0969183
0.097692
0.0983876
0.0989968
0.0995138
0.0999358
0.100263
0.100499
0.100651
0.100726
0.100736
0.100693
0.100609
0.100498
0.10037
0.100235
0.100103
0.0999774
0.0998644
0.0997658
0.0996827
0.0996144
0.0995599
0.0995171
0.0994842
0.0994592
0.0994407
0.0994279
0.0994206
0.0994189
0.0994254
0.099445
0.110875
0.110754
0.110662
0.110579
0.110492
0.110402
0.110304
0.110198
0.11008
0.109949
0.109803
0.109637
0.109447
0.10923
0.108979
0.108688
0.108351
0.107961
0.107512
0.106999
0.106416
0.105761
0.10503
0.104222
0.10334
0.102385
0.101361
0.100275
0.0991335
0.0979447
0.0967185
0.0954651
0.0941955
0.0929211
0.0916534
0.0904039
0.0891839
0.0880044
0.0868759
0.0858081
0.0848103
0.0838906
0.0830565
0.0823145
0.0816703
0.0811286
0.080693
0.0803665
0.0801511
0.0800478
0.0800569
0.0801775
0.0804083
0.0807468
0.0811899
0.0817334
0.0823723
0.0831007
0.0839115
0.0847968
0.0857475
0.0867536
0.0878039
0.0888861
0.0899871
0.0910929
0.0921887
0.0932596
0.0942906
0.0952672
0.0961759
0.0970046
0.0977436
0.0983856
0.0989262
0.0993648
0.0997038
0.099949
0.100109
0.100195
0.100219
0.100194
0.100133
0.100049
0.0999508
0.0998483
0.0997479
0.0996541
0.0995699
0.0994965
0.0994339
0.0993816
0.0993384
0.099303
0.0992745
0.0992523
0.0992365
0.0992273
0.0992268
0.0992386
0.111039
0.110894
0.110789
0.110697
0.110604
0.110506
0.1104
0.110283
0.110152
0.110004
0.109834
0.109641
0.109417
0.109158
0.108857
0.108507
0.108101
0.107633
0.107096
0.106484
0.105793
0.10502
0.104163
0.103223
0.102201
0.101102
0.0999301
0.0986939
0.0974016
0.0960628
0.0946884
0.0932899
0.0918792
0.0904685
0.0890701
0.0876961
0.086358
0.0850673
0.0838342
0.0826687
0.0815797
0.0805751
0.0796622
0.078847
0.0781349
0.0775302
0.0770362
0.0766557
0.0763904
0.0762415
0.0762092
0.0762929
0.0764915
0.0768032
0.0772255
0.077755
0.0783878
0.0791191
0.0799432
0.0808536
0.0818427
0.0829021
0.084022
0.0851917
0.0863989
0.0876306
0.0888725
0.0901094
0.0913253
0.0925042
0.09363
0.0946874
0.0956625
0.0965433
0.0973207
0.0979887
0.0985448
0.0989905
0.099331
0.0995748
0.099733
0.0998186
0.0998455
0.0998276
0.0997777
0.0997073
0.099626
0.0995411
0.0994579
0.0993798
0.0993088
0.0992457
0.0991905
0.0991429
0.0991026
0.0990696
0.0990441
0.0990267
0.0990191
0.099024
0.111186
0.111017
0.1109
0.110799
0.110699
0.110593
0.110477
0.110348
0.1102
0.11003
0.109834
0.109606
0.109341
0.109032
0.108671
0.108253
0.107768
0.10721
0.106572
0.105849
0.105038
0.104135
0.10314
0.102055
0.100884
0.099631
0.0983038
0.0969112
0.095463
0.0939706
0.0924459
0.0909015
0.0893505
0.0878057
0.0862801
0.0847861
0.0833357
0.08194
0.0806096
0.0793539
0.0781816
0.0771001
0.0761162
0.0752355
0.0744626
0.0738015
0.0732552
0.0728258
0.0725149
0.0723235
0.0722519
0.0722994
0.0724652
0.072748
0.0731457
0.0736558
0.0742753
0.0750005
0.075827
0.0767498
0.0777629
0.0788595
0.0800316
0.0812702
0.082565
0.083904
0.0852742
0.086661
0.0880486
0.0894199
0.0907575
0.0920433
0.0932599
0.0943909
0.0954219
0.0963414
0.097141
0.0978166
0.0983686
0.0988015
0.0991238
0.0993472
0.0994858
0.0995546
0.0995689
0.0995431
0.0994898
0.0994197
0.0993411
0.0992601
0.099181
0.0991066
0.0990383
0.0989772
0.0989237
0.0988785
0.0988423
0.098816
0.0988011
0.0987999
0.111309
0.111116
0.110986
0.110877
0.110769
0.110654
0.110528
0.110383
0.110216
0.11002
0.109791
0.109523
0.109209
0.108842
0.108414
0.107916
0.107341
0.106681
0.105931
0.105086
0.104142
0.103099
0.101956
0.100718
0.0993887
0.0979757
0.0964875
0.0949347
0.0933287
0.0916821
0.0900082
0.0883208
0.0866336
0.0849604
0.0833144
0.0817084
0.0801543
0.0786633
0.0772454
0.0759097
0.0746643
0.073516
0.072471
0.071534
0.0707092
0.0699999
0.0694085
0.0689368
0.0685858
0.0683563
0.0682489
0.0682621
0.0683957
0.0686486
0.0690193
0.0695058
0.070106
0.070817
0.0716358
0.0725587
0.0735813
0.0746984
0.0759042
0.0771914
0.0785517
0.0799752
0.0814507
0.0829649
0.084503
0.0860483
0.0875826
0.0890865
0.09054
0.0919228
0.0932157
0.0944013
0.095465
0.0963963
0.0971891
0.0978423
0.0983602
0.0987517
0.0990294
0.0992091
0.0993075
0.099342
0.0993285
0.0992815
0.0992129
0.0991321
0.0990464
0.0989608
0.098879
0.0988033
0.0987355
0.0986771
0.0986293
0.0985935
0.0985712
0.0985644
0.111399
0.111183
0.11104
0.110923
0.110807
0.110683
0.110543
0.110381
0.11019
0.109964
0.109698
0.109383
0.109013
0.108579
0.108073
0.107486
0.106811
0.106039
0.105166
0.104188
0.103102
0.101909
0.10061
0.0992116
0.0977193
0.0961421
0.0944907
0.0927771
0.0910143
0.0892164
0.0873979
0.0855735
0.0837577
0.0819648
0.0802084
0.0785011
0.0768549
0.0752803
0.0737869
0.0723832
0.0710765
0.069873
0.0687777
0.067795
0.066928
0.0661795
0.0655511
0.0650442
0.0646595
0.0643974
0.0642582
0.0642398
0.064343
0.0645665
0.0649091
0.0653693
0.0659456
0.0666361
0.0674386
0.0683507
0.0693695
0.0704916
0.0717127
0.0730279
0.0744308
0.0759141
0.0774685
0.0790831
0.0807448
0.0824382
0.0841458
0.0858479
0.0875231
0.0891486
0.0907011
0.092158
0.0934983
0.0947045
0.0957629
0.0966657
0.0974107
0.098002
0.0984495
0.0987676
0.098974
0.0990881
0.0991296
0.0991167
0.0990655
0.0989897
0.0988999
0.0988044
0.0987091
0.0986184
0.0985355
0.0984629
0.0984028
0.0983568
0.0983269
0.0983148
0.111449
0.11121
0.111055
0.11093
0.110804
0.110669
0.110514
0.110331
0.110113
0.109853
0.109543
0.109175
0.108742
0.108233
0.107641
0.106955
0.10617
0.105277
0.104272
0.103151
0.101915
0.100565
0.0991051
0.0975416
0.0958833
0.094141
0.0923271
0.0904551
0.0885399
0.0865968
0.0846414
0.0826892
0.0807553
0.0788543
0.0769998
0.0752042
0.073479
0.0718342
0.0702787
0.0688201
0.0674647
0.0662178
0.0650838
0.0640659
0.0631666
0.0623879
0.0617308
0.0611962
0.0607844
0.0604948
0.0603267
0.0602819
0.0603577
0.0605533
0.060868
0.0613007
0.0618504
0.0625157
0.0632955
0.0641882
0.0651922
0.0663056
0.0675259
0.0688499
0.0702736
0.071792
0.0733983
0.0750842
0.076839
0.0786497
0.0805006
0.0823729
0.0842453
0.0860938
0.0878925
0.0896148
0.0912339
0.0927252
0.0940673
0.0952439
0.0962451
0.097068
0.0977174
0.0982045
0.0985463
0.0987634
0.0988784
0.0989138
0.0988902
0.098826
0.0987363
0.0986328
0.0985249
0.0984192
0.0983207
0.0982334
0.0981601
0.0981034
0.0980654
0.0980477
0.111449
0.111188
0.111021
0.110888
0.110753
0.110605
0.110433
0.110226
0.109977
0.109677
0.109318
0.108891
0.108387
0.107796
0.107108
0.106316
0.105412
0.104389
0.103244
0.101975
0.100583
0.0990709
0.0974459
0.095716
0.093892
0.0919865
0.0900138
0.0879893
0.0859291
0.0838498
0.081768
0.0796998
0.0776606
0.0756651
0.0737266
0.071857
0.0700672
0.0683663
0.0667623
0.0652618
0.0638702
0.0625918
0.0614299
0.0603871
0.0594649
0.0586645
0.0579865
0.0574312
0.0569983
0.0566872
0.0564971
0.0564282
0.0564791
0.0566491
0.0569371
0.0573424
0.0578642
0.0585019
0.0592546
0.0601219
0.0611029
0.062197
0.063403
0.0647197
0.0661449
0.0676759
0.0693086
0.0710372
0.0728541
0.0747491
0.0767092
0.078718
0.0807555
0.0827983
0.0848196
0.08679
0.0886787
0.0904547
0.0920889
0.0935563
0.0948376
0.0959212
0.0968043
0.0974927
0.0980003
0.0983475
0.0985586
0.0986599
0.098677
0.0986335
0.0985495
0.0984415
0.0983225
0.0982023
0.0980881
0.0979855
0.0978985
0.0978304
0.0977836
0.0977599
0.111391
0.111109
0.110931
0.110789
0.110644
0.110482
0.11029
0.110056
0.109772
0.109428
0.109015
0.108522
0.10794
0.107259
0.10647
0.105563
0.104533
0.103373
0.102082
0.100659
0.0991075
0.0974322
0.0956417
0.0937466
0.0917598
0.089696
0.0875713
0.0854027
0.0832076
0.0810037
0.0788083
0.0766379
0.0745079
0.0724327
0.0704251
0.0684964
0.0666564
0.0649133
0.0632741
0.0617443
0.0603282
0.0590291
0.0578494
0.0567907
0.0558539
0.0550395
0.0543475
0.0537777
0.0533293
0.0530017
0.0527939
0.0527053
0.0527348
0.0528817
0.0531451
0.0535242
0.0540186
0.0546277
0.0553514
0.0561896
0.0571422
0.0582095
0.0593915
0.0606882
0.0620994
0.0636241
0.0652608
0.0670063
0.068856
0.070803
0.0728374
0.0749461
0.077112
0.0793136
0.081525
0.0837163
0.085854
0.0879026
0.0898263
0.0915915
0.0931691
0.0945373
0.0956834
0.0966052
0.097311
0.0978183
0.0981518
0.0983405
0.0984147
0.0984035
0.0983331
0.0982253
0.0980979
0.0979642
0.0978345
0.0977163
0.0976149
0.0975345
0.0974783
0.0974475
0.111266
0.110965
0.110777
0.110626
0.110469
0.110291
0.110077
0.109814
0.109491
0.109098
0.108624
0.10806
0.107395
0.106618
0.10572
0.104693
0.103531
0.10223
0.100789
0.0992096
0.0974967
0.0956581
0.0937041
0.0916477
0.089504
0.0872895
0.0850221
0.0827202
0.0804027
0.0780878
0.0757932
0.0735355
0.07133
0.0691903
0.0671286
0.0651553
0.063279
0.0615069
0.0598447
0.0582969
0.0568666
0.0555563
0.0543673
0.0533006
0.0523563
0.0515342
0.050834
0.0502548
0.0497959
0.049456
0.0492343
0.0491297
0.0491413
0.0492681
0.0495093
0.0498642
0.0503325
0.0509139
0.0516083
0.052416
0.0533376
0.0543737
0.0555253
0.0567934
0.0581791
0.0596831
0.0613058
0.0630465
0.0649034
0.0668729
0.0689487
0.0711213
0.0733773
0.0756986
0.0780618
0.0804385
0.0827948
0.0850926
0.0872915
0.0893502
0.0912303
0.0928989
0.094332
0.0955169
0.0964532
0.0971527
0.097638
0.0979393
0.0980905
0.0981266
0.09808
0.097979
0.0978468
0.0977015
0.0975567
0.0974225
0.0973061
0.0972128
0.097146
0.0971069
0.111066
0.110748
0.11055
0.11039
0.110221
0.110025
0.109786
0.10949
0.109125
0.108679
0.108141
0.107501
0.106746
0.105868
0.104856
0.103704
0.102407
0.100961
0.0993682
0.0976319
0.0957591
0.09376
0.0916472
0.089436
0.0871436
0.0847883
0.0823898
0.0799677
0.0775416
0.0751304
0.0727519
0.0704224
0.0681567
0.0659676
0.0638663
0.0618619
0.059962
0.0581725
0.0564981
0.0549419
0.0535063
0.0521925
0.0510013
0.0499327
0.0489864
0.0481617
0.0474577
0.0468735
0.0464077
0.0460592
0.0458269
0.0457095
0.0457061
0.0458157
0.0460375
0.0463707
0.0468151
0.0473704
0.0480367
0.0488145
0.0497045
0.0507078
0.0518258
0.0530603
0.0544132
0.0558865
0.057482
0.0592013
0.0610449
0.0630121
0.0651002
0.0673035
0.0696127
0.0720141
0.0744883
0.0770099
0.0795468
0.0820611
0.0845094
0.0868456
0.0890228
0.0909977
0.0927341
0.0942065
0.0954033
0.0963275
0.0969964
0.0974386
0.0976906
0.0977921
0.0977824
0.0976966
0.0975647
0.0974103
0.0972515
0.0971013
0.0969692
0.0968619
0.0967834
0.0967344
0.110784
0.110452
0.110244
0.110075
0.109893
0.109678
0.109412
0.10908
0.108668
0.108166
0.107559
0.106838
0.105991
0.105007
0.103878
0.102598
0.101162
0.0995711
0.0978268
0.0959353
0.0939062
0.0917517
0.0894872
0.0871299
0.0846991
0.0822151
0.0796986
0.0771705
0.0746509
0.0721588
0.0697118
0.0673258
0.0650146
0.0627901
0.0606623
0.058639
0.0567267
0.0549299
0.0532521
0.0516955
0.0502614
0.0489502
0.047762
0.0466962
0.045752
0.0449283
0.0442239
0.0436376
0.0431679
0.0428135
0.0425732
0.0424458
0.04243
0.0425251
0.04273
0.0430442
0.0434672
0.0439989
0.0446393
0.0453889
0.0462486
0.0472195
0.0483035
0.0495024
0.0508188
0.0522556
0.0538156
0.0555019
0.057317
0.0592627
0.0613393
0.0635449
0.0658745
0.0683189
0.0708636
0.0734877
0.0761631
0.0788539
0.0815171
0.0841036
0.086561
0.0888365
0.0908821
0.0926589
0.0941415
0.095321
0.0962057
0.0968197
0.0971993
0.097388
0.0974312
0.0973716
0.0972467
0.0970869
0.0969155
0.0967495
0.096601
0.0964787
0.0963872
0.0963266
0.110414
0.11007
0.109854
0.109675
0.109479
0.109243
0.108948
0.108577
0.108117
0.107554
0.106876
0.10607
0.105127
0.104034
0.102786
0.101376
0.0998027
0.0980669
0.0961735
0.094131
0.0919511
0.0896488
0.0872415
0.0847488
0.0821918
0.0795923
0.0769722
0.074353
0.0717551
0.0691974
0.0666971
0.064269
0.061926
0.0596789
0.0575361
0.0555045
0.0535889
0.051793
0.0501189
0.0485679
0.0471404
0.0458363
0.0446548
0.043595
0.0426556
0.0418354
0.0411327
0.0405463
0.0400747
0.0397164
0.0394701
0.0393346
0.0393088
0.0393916
0.0395822
0.0398799
0.0402843
0.040795
0.0414123
0.0421364
0.0429681
0.0439087
0.0449599
0.0461237
0.0474031
0.048801
0.0503213
0.0519678
0.0537444
0.055655
0.0577023
0.0598877
0.0622101
0.0646651
0.0672432
0.069929
0.0726995
0.0755233
0.0783601
0.081161
0.0838705
0.0864293
0.0887789
0.0908671
0.0926535
0.0941145
0.0952459
0.0960636
0.0966004
0.0969011
0.0970164
0.0969966
0.0968875
0.0967272
0.0965453
0.096364
0.0961986
0.0960602
0.0959542
0.0958801
0.109952
0.109598
0.109375
0.109186
0.108975
0.108716
0.10839
0.107978
0.107467
0.106841
0.106089
0.105197
0.104155
0.102953
0.101584
0.100045
0.0983349
0.0964573
0.0944193
0.0922317
0.0899087
0.0874677
0.0849285
0.0823126
0.0796427
0.0769419
0.0742331
0.0715379
0.0688768
0.0662683
0.0637286
0.0612716
0.0589091
0.0566503
0.0545025
0.0524711
0.0505597
0.0487709
0.0471058
0.0455647
0.0441475
0.0428532
0.0416808
0.0406289
0.0396959
0.0388804
0.0381808
0.0375956
0.0371232
0.0367622
0.0365113
0.0363694
0.0363352
0.0364078
0.0365862
0.0368699
0.0372582
0.0377508
0.0383478
0.0390494
0.0398563
0.0407695
0.0417905
0.0429216
0.0441653
0.0455249
0.0470044
0.0486082
0.0503411
0.0522082
0.0542142
0.0563631
0.0586572
0.0610962
0.0636758
0.0663862
0.0692106
0.0721235
0.0750893
0.0780624
0.0809874
0.0838014
0.0864382
0.0888336
0.0909323
0.0926941
0.0940995
0.0951519
0.0958767
0.0963171
0.0965268
0.0965633
0.0964809
0.0963264
0.0961373
0.0959415
0.0957589
0.0956033
0.0954814
0.0953916
0.109393
0.109033
0.108804
0.108605
0.108377
0.108095
0.107736
0.107282
0.106717
0.106027
0.105199
0.104219
0.103077
0.101765
0.100277
0.098611
0.0967677
0.0947531
0.0925766
0.0902516
0.0877948
0.0852259
0.0825668
0.0798408
0.0770721
0.0742847
0.0715019
0.0687455
0.0660356
0.0633899
0.0608237
0.0583496
0.055978
0.0537168
0.0515719
0.0495475
0.047646
0.0458688
0.0442163
0.042688
0.0412831
0.0400003
0.0388382
0.037795
0.0368691
0.036059
0.0353629
0.0347793
0.0343067
0.0339438
0.0336893
0.033542
0.0335008
0.0335647
0.0337328
0.0340045
0.0343791
0.0348563
0.035436
0.0361182
0.0369035
0.0377926
0.038787
0.0398885
0.0410995
0.0424231
0.0438634
0.0454247
0.0471123
0.0489321
0.0508899
0.0529917
0.0552425
0.0576455
0.060201
0.0629047
0.0657462
0.0687065
0.0717569
0.0748571
0.0779549
0.0809873
0.0838838
0.0865709
0.0889796
0.0910528
0.0927532
0.0940683
0.0950119
0.0956211
0.0959503
0.0960624
0.09602
0.0958796
0.0956875
0.0954789
0.0952788
0.0951051
0.0949656
0.0948581
0.108737
0.108374
0.108139
0.10793
0.107686
0.107379
0.106986
0.106488
0.105869
0.105113
0.104207
0.103139
0.101899
0.100478
0.0988734
0.0970832
0.0951115
0.0929661
0.0906589
0.0882058
0.0856258
0.0829409
0.0801748
0.0773525
0.0744992
0.0716397
0.0687973
0.0659938
0.0632484
0.0605779
0.0579964
0.0555152
0.0531432
0.0508871
0.0487514
0.0467389
0.0448512
0.0430887
0.041451
0.0399371
0.0385455
0.0372748
0.0361232
0.0350889
0.0341701
0.0333651
0.0326725
0.0320906
0.031618
0.0312535
0.0309959
0.0308439
0.0307966
0.0308531
0.0310124
0.0312739
0.031637
0.0321011
0.0326661
0.033332
0.0340989
0.0349675
0.0359388
0.0370145
0.0381965
0.0394878
0.0408919
0.0424131
0.0440567
0.0458287
0.0477358
0.049785
0.0519832
0.0543365
0.0568489
0.0595211
0.0623487
0.0653198
0.068413
0.0715953
0.0748203
0.0780285
0.0811484
0.084101
0.0868061
0.0891909
0.0911993
0.0927999
0.0939907
0.0947985
0.0952742
0.0954836
0.0954972
0.0953811
0.0951916
0.0949724
0.0947553
0.0945625
0.094404
0.0942766
0.107984
0.10762
0.107381
0.107162
0.1069
0.106567
0.10614
0.105597
0.104923
0.104101
0.103119
0.101964
0.100626
0.0990993
0.097381
0.095472
0.0933782
0.0911097
0.0886809
0.08611
0.0834184
0.08063
0.0777703
0.0748656
0.0719419
0.0690242
0.0661359
0.0632981
0.0605291
0.0578446
0.0552574
0.0527774
0.0504122
0.0481669
0.0460448
0.0440479