/*--------------------------------*- C++ -*----------------------------------*\
  =========                 |
  \\      /  F ield         | OpenFOAM: The Open Source CFD Toolbox
   \\    /   O peration     | Website:  https://openfoam.org
    \\  /    A nd           | Version:  9
     \\/     M anipulation  |
\*---------------------------------------------------------------------------*/
FoamFile
{
    format      ascii;
    class       surfaceScalarField;
    location    "4";
    object      phi;
}
// * * * * * * * * * * * * * * * * * * * * * * * * * * * * * * * * * * * * * //

dimensions      [0 3 -1 0 0 0 0];

internalField   nonuniform List<scalar> 
19800
(
7.1589e-11
-7.15891e-11
9.57401e-10
-8.85812e-10
2.54316e-09
-1.58576e-09
4.5313e-09
-1.98814e-09
6.66942e-09
-2.13812e-09
8.76654e-09
-2.09712e-09
1.06867e-08
-1.92013e-09
1.23397e-08
-1.65303e-09
1.36718e-08
-1.33212e-09
1.46568e-08
-9.84972e-10
1.52883e-08
-6.3154e-10
1.55734e-08
-2.85091e-10
1.55266e-08
4.68631e-11
1.51647e-08
3.61883e-10
1.45032e-08
6.61438e-10
1.35534e-08
9.49893e-10
1.23198e-08
1.23356e-09
1.08001e-08
1.51966e-09
8.98464e-09
1.81549e-09
6.85695e-09
2.12769e-09
4.39523e-09
2.46172e-09
1.57365e-09
2.82158e-09
-1.636e-09
3.20965e-09
-5.2627e-09
3.6267e-09
-9.3347e-09
4.072e-09
-1.38781e-08
4.54341e-09
-1.89157e-08
5.03756e-09
-2.44656e-08
5.54991e-09
-3.05404e-08
6.07484e-09
-3.71461e-08
6.60567e-09
-4.42808e-08
7.13473e-09
-5.19342e-08
7.65334e-09
-6.00861e-08
8.15192e-09
-6.87061e-08
8.62001e-09
-7.77526e-08
9.04648e-09
-8.71722e-08
9.41961e-09
-9.68996e-08
9.72736e-09
-1.06857e-07
9.9576e-09
-1.16955e-07
1.00983e-08
-1.27094e-07
1.0138e-08
-1.37159e-07
1.00659e-08
-1.47032e-07
9.87232e-09
-1.56581e-07
9.54887e-09
-1.6567e-07
9.08895e-09
-1.74157e-07
8.48788e-09
-1.81901e-07
7.74325e-09
-1.88756e-07
6.85514e-09
-1.94582e-07
5.8264e-09
-1.99245e-07
4.66308e-09
-2.0262e-07
3.37511e-09
-2.04596e-07
1.97547e-09
-2.05078e-07
4.82224e-10
-2.03966e-07
-1.11252e-09
-2.0122e-07
-2.74531e-09
-1.96805e-07
-4.4157e-09
-1.90713e-07
-6.0916e-09
-1.8297e-07
-7.74325e-09
-1.7363e-07
-9.3394e-09
-1.62783e-07
-1.08478e-08
-1.50546e-07
-1.22362e-08
-1.37073e-07
-1.34731e-08
-1.22544e-07
-1.45289e-08
-1.07167e-07
-1.53769e-08
-9.11728e-08
-1.59947e-08
-7.48078e-08
-1.6365e-08
-5.83314e-08
-1.64764e-08
-4.20066e-08
-1.63248e-08
-2.60935e-08
-1.59131e-08
-1.08414e-08
-1.5252e-08
3.51861e-09
-1.436e-08
1.67818e-08
-1.32632e-08
2.8772e-08
-1.19902e-08
3.93511e-08
-1.05791e-08
4.84196e-08
-9.0685e-09
5.59203e-08
-7.50072e-09
6.18367e-08
-5.91635e-09
6.61913e-08
-4.35467e-09
6.90432e-08
-2.8519e-09
7.04826e-08
-1.43936e-09
7.06252e-08
-1.42652e-10
6.96063e-08
1.01897e-09
6.75734e-08
2.03289e-09
6.46802e-08
2.8932e-09
6.10804e-08
3.59975e-09
5.69225e-08
4.15794e-09
5.23449e-08
4.57762e-09
4.74729e-08
4.87195e-09
4.24168e-08
5.05605e-09
3.72713e-08
5.14552e-09
3.21167e-08
5.15466e-09
2.70222e-08
5.09448e-09
2.20519e-08
4.97023e-09
1.72732e-08
4.77878e-09
1.27675e-08
4.50567e-09
8.64496e-09
4.12254e-09
5.05834e-09
3.58661e-09
2.21118e-09
2.84716e-09
3.44026e-10
1.86715e-09
-3.48398e-10
6.92425e-10
-3.48396e-10
8.82776e-10
-9.54365e-10
3.43171e-09
-3.43474e-09
7.21353e-09
-5.36758e-09
1.17332e-08
-6.50777e-09
1.65199e-08
-6.9249e-09
2.11773e-08
-6.75445e-09
2.53967e-08
-6.13951e-09
2.89547e-08
-5.21112e-09
3.17026e-08
-4.07995e-09
3.35518e-08
-2.83425e-09
3.44607e-08
-1.54039e-09
3.44194e-08
-2.43771e-10
3.34392e-08
1.02707e-09
3.15385e-08
2.2625e-09
2.87363e-08
3.46365e-09
2.50438e-08
4.64246e-09
2.046e-08
5.81729e-09
1.49699e-08
7.00981e-09
8.54332e-09
8.24205e-09
1.137e-09
9.53401e-09
-7.30309e-09
1.09018e-08
-1.6838e-08
1.23565e-08
-2.75318e-08
1.39035e-08
-3.94475e-08
1.55424e-08
-5.26429e-08
1.72674e-08
-6.71668e-08
1.90674e-08
-8.30557e-08
2.09265e-08
-1.0033e-07
2.28245e-08
-1.18993e-07
2.47372e-08
-1.39023e-07
2.66365e-08
-1.6038e-07
2.84912e-08
-1.82993e-07
3.02666e-08
-2.06767e-07
3.19257e-08
-2.31576e-07
3.34292e-08
-2.57266e-07
3.47365e-08
-2.83653e-07
3.58061e-08
-3.10523e-07
3.65972e-08
-3.37635e-07
3.70697e-08
-3.64723e-07
3.71862e-08
-3.91497e-07
3.69121e-08
-4.17648e-07
3.62174e-08
-4.42853e-07
3.50771e-08
-4.66776e-07
3.34722e-08
-4.89078e-07
3.13906e-08
-5.09418e-07
2.88277e-08
-5.27462e-07
2.57871e-08
-5.42887e-07
2.22809e-08
-5.55391e-07
1.83302e-08
-5.64694e-07
1.39656e-08
-5.70548e-07
9.22899e-09
-5.72743e-07
4.17095e-09
-5.71122e-07
-1.13918e-09
-5.65533e-07
-6.70081e-09
-5.55918e-07
-1.23609e-08
-5.42267e-07
-1.80666e-08
-5.24628e-07
-2.37304e-08
-5.03111e-07
-2.926e-08
-4.77891e-07
-3.45596e-08
-4.49207e-07
-3.95324e-08
-4.1736e-07
-4.40824e-08
-3.82716e-07
-4.81173e-08
-3.45694e-07
-5.1551e-08
-3.06765e-07
-5.43064e-08
-2.66441e-07
-5.63187e-08
-2.25268e-07
-5.75373e-08
-1.83815e-07
-5.79293e-08
-1.42659e-07
-5.74811e-08
-1.02372e-07
-5.61999e-08
-6.35097e-08
-5.41147e-08
-2.65933e-08
-5.12764e-08
7.90026e-09
-4.77567e-08
3.95561e-08
-4.36461e-08
6.80245e-08
-3.90475e-08
9.30358e-08
-3.40798e-08
1.14406e-07
-2.88704e-08
1.32035e-07
-2.35459e-08
1.45912e-07
-1.82312e-08
1.56105e-07
-1.30453e-08
1.62761e-07
-8.09508e-09
1.6609e-07
-3.47197e-09
1.66359e-07
7.49978e-10
1.63875e-07
4.51727e-09
1.58972e-07
7.79621e-09
1.51999e-07
1.05724e-08
1.43307e-07
1.28499e-08
1.33236e-07
1.46485e-08
1.22108e-07
1.60002e-08
1.10218e-07
1.69454e-08
9.78366e-08
1.75273e-08
8.52044e-08
1.77869e-08
7.25433e-08
1.77556e-08
6.00647e-08
1.74488e-08
4.79859e-08
1.68576e-08
3.65486e-08
1.5943e-08
2.60391e-08
1.46321e-08
1.68026e-08
1.28231e-08
9.23923e-09
1.04105e-08
3.76477e-09
7.34162e-09
7.1795e-10
3.73925e-09
3.69556e-10
1.58917e-09
-2.54353e-09
5.38653e-09
-7.2321e-09
1.06594e-08
-1.06404e-08
1.67476e-08
-1.2596e-08
2.30522e-08
-1.32295e-08
2.90618e-08
-1.27641e-08
3.43662e-08
-1.14438e-08
3.86551e-08
-9.5e-09
4.17094e-08
-7.1343e-09
4.33871e-08
-4.51193e-09
4.36065e-08
-1.7598e-09
4.23302e-08
1.03247e-09
3.95476e-08
3.80967e-09
3.52625e-08
6.54762e-09
2.94794e-08
9.24674e-09
2.21952e-08
1.19267e-08
1.33925e-08
1.46199e-08
3.0373e-09
1.7365e-08
-8.92208e-09
2.02014e-08
-2.25521e-08
2.31641e-08
-3.79303e-08
2.628e-08
-5.51398e-08
2.95659e-08
-7.42631e-08
3.30268e-08
-9.5376e-08
3.66553e-08
-1.18541e-07
4.04327e-08
-1.43803e-07
4.43289e-08
-1.7118e-07
4.83039e-08
-2.00664e-07
5.23085e-08
-2.32212e-07
5.62852e-08
-2.65745e-07
6.01689e-08
-3.01142e-07
6.38886e-08
-3.38243e-07
6.73678e-08
-3.76844e-07
7.05262e-08
-4.16696e-07
7.32811e-08
-4.57509e-07
7.55494e-08
-4.98952e-07
7.7249e-08
-5.40656e-07
7.83015e-08
-5.8222e-07
7.86336e-08
-6.23213e-07
7.81796e-08
-6.63184e-07
7.6883e-08
-7.01665e-07
7.46981e-08
-7.3818e-07
7.1592e-08
-7.72252e-07
6.75451e-08
-8.03414e-07
6.25526e-08
-8.31212e-07
5.66249e-08
-8.55213e-07
4.97884e-08
-8.75017e-07
4.20852e-08
-8.90261e-07
3.35736e-08
-9.00623e-07
2.43277e-08
-9.05834e-07
1.44407e-08
-9.05704e-07
4.04078e-09
-9.00015e-07
-6.82859e-09
-8.88727e-07
-1.79882e-08
-8.71804e-07
-2.92845e-08
-8.49296e-07
-4.05749e-08
-8.21326e-07
-5.16998e-08
-7.88094e-07
-6.2492e-08
-7.49874e-07
-7.27802e-08
-7.07013e-07
-8.23928e-08
-6.59934e-07
-9.11612e-08
-6.09128e-07
-9.89238e-08
-5.55149e-07
-1.0553e-07
-4.9861e-07
-1.10845e-07
-4.40174e-07
-1.14755e-07
-3.80542e-07
-1.17169e-07
-3.20443e-07
-1.18028e-07
-2.6062e-07
-1.17304e-07
-2.01816e-07
-1.15004e-07
-1.44757e-07
-1.11174e-07
-9.01366e-08
-1.05897e-07
-3.86013e-08
-9.9292e-08
9.26685e-09
-9.15142e-08
5.29681e-08
-8.27487e-08
9.20807e-08
-7.31925e-08
1.26298e-07
-6.30875e-08
1.55411e-07
-5.26589e-08
1.79322e-07
-4.21419e-08
1.98041e-07
-3.17649e-08
2.11684e-07
-2.17381e-08
2.20461e-07
-1.22485e-08
2.24665e-07
-3.45392e-09
2.2466e-07
4.52176e-09
2.20862e-07
1.15945e-08
2.13724e-07
1.77108e-08
2.03717e-07
2.28565e-08
1.91318e-07
2.70479e-08
1.7699e-07
3.03275e-08
1.6118e-07
3.27559e-08
1.44304e-07
3.44034e-08
1.26752e-07
3.53385e-08
1.08892e-07
3.56157e-08
9.1078e-08
3.52628e-08
7.36679e-08
3.42677e-08
5.70418e-08
3.25691e-08
4.1621e-08
3.00529e-08
2.78791e-08
2.65649e-08
1.6338e-08
2.19516e-08
7.53663e-09
1.6143e-08
1.96349e-09
9.31239e-09
2.33305e-09
2.0152e-09
-4.55873e-09
6.59175e-09
-1.18086e-08
1.27224e-08
-1.67711e-08
1.95937e-08
-1.94673e-08
2.65103e-08
-2.01461e-08
3.28897e-08
-1.91435e-08
3.82616e-08
-1.68158e-08
4.2263e-08
-1.35014e-08
4.46277e-08
-9.49901e-09
4.51723e-08
-5.05645e-09
4.37791e-08
-3.66654e-10
4.03792e-08
4.43241e-09
3.49344e-08
9.25448e-09
2.74226e-08
1.40594e-08
1.78244e-08
1.8845e-08
6.11295e-09
2.36382e-08
-7.75207e-09
2.84849e-08
-2.38274e-08
3.34404e-08
-4.21857e-08
3.85597e-08
-6.2912e-08
4.38904e-08
-8.60982e-08
4.94662e-08
-1.11836e-07
5.53035e-08
-1.40208e-07
6.1399e-08
-1.71282e-07
6.7729e-08
-2.05099e-07
7.42502e-08
-2.41671e-07
8.09008e-08
-2.8097e-07
8.76023e-08
-3.22923e-07
9.42615e-08
-3.67409e-07
1.00772e-07
-4.14258e-07
1.07017e-07
-4.6324e-07
1.12871e-07
-5.14075e-07
1.18203e-07
-5.66427e-07
1.22878e-07
-6.19907e-07
1.26762e-07
-6.74081e-07
1.29723e-07
-7.28471e-07
1.31639e-07
-7.82563e-07
1.32393e-07
-8.35816e-07
1.31886e-07
-8.87669e-07
1.30033e-07
-9.37552e-07
1.26766e-07
-9.84894e-07
1.2204e-07
-1.02913e-06
1.1583e-07
-1.06972e-06
1.08133e-07
-1.10614e-06
9.89718e-08
-1.1379e-06
8.83893e-08
-1.16457e-06
7.64527e-08
-1.18573e-06
6.32507e-08
-1.20105e-06
4.8894e-08
-1.21024e-06
3.35129e-08
-1.21305e-06
1.72497e-08
-1.20939e-06
3.85275e-10
-1.19903e-06
-1.71892e-08
-1.18203e-06
-3.49872e-08
-1.15842e-06
-5.28986e-08
-1.1283e-06
-7.06941e-08
-1.09186e-06
-8.81387e-08
-1.04936e-06
-1.04991e-07
-1.00114e-06
-1.21006e-07
-9.47588e-07
-1.3594e-07
-8.89196e-07
-1.49553e-07
-8.26506e-07
-1.61615e-07
-7.60125e-07
-1.7191e-07
-6.90724e-07
-1.80246e-07
-6.19023e-07
-1.86456e-07
-5.45785e-07
-1.90407e-07
-4.71808e-07
-1.92005e-07
-3.9791e-07
-1.91202e-07
-3.24915e-07
-1.87999e-07
-2.53641e-07
-1.82448e-07
-1.84881e-07
-1.74656e-07
-1.1939e-07
-1.64784e-07
-5.78629e-08
-1.53041e-07
-9.27502e-10
-1.39684e-07
5.08979e-08
-1.25018e-07
9.71621e-08
-1.09352e-07
1.37543e-07
-9.30403e-08
1.71835e-07
-7.64336e-08
1.99951e-07
-5.98808e-08
2.21924e-07
-4.37108e-08
2.379e-07
-2.82251e-08
2.48133e-07
-1.36865e-08
2.52972e-07
-3.17449e-10
2.52835e-07
1.17313e-08
2.48211e-07
2.23348e-08
2.39627e-07
3.14411e-08
2.27633e-07
3.90419e-08
2.12788e-07
4.51719e-08
1.95646e-07
4.98986e-08
1.76741e-07
5.33083e-08
1.56589e-07
5.54904e-08
1.35685e-07
5.65194e-08
1.14512e-07
5.64355e-08
9.35531e-08
5.5227e-08
7.33061e-08
5.28161e-08
5.43025e-08
4.90565e-08
3.71193e-08
4.37482e-08
2.23846e-08
3.66863e-08
1.07766e-08
2.7751e-08
3.02547e-09
1.70635e-08
5.35852e-09
2.2047e-09
-6.76343e-09
7.10465e-09
-1.67086e-08
1.34973e-08
-2.31637e-08
2.04456e-08
-2.64156e-08
2.71811e-08
-2.68816e-08
3.30748e-08
-2.50372e-08
3.7622e-08
-2.13629e-08
4.04289e-08
-1.63084e-08
4.11998e-08
-1.02699e-08
3.97213e-08
-3.57795e-09
3.58457e-08
3.50899e-09
2.94733e-08
1.08048e-08
2.05358e-08
1.81919e-08
8.98095e-09
2.56143e-08
-5.2404e-09
3.30663e-08
-2.21832e-08
4.05809e-08
-4.19137e-08
4.82155e-08
-6.45115e-08
5.60381e-08
-9.00667e-08
6.4115e-08
-1.18676e-07
7.24993e-08
-1.50433e-07
8.12234e-08
-1.85422e-07
9.0293e-08
-2.23708e-07
9.96847e-08
-2.65324e-07
1.09345e-07
-3.10265e-07
1.19191e-07
-3.58479e-07
1.29115e-07
-4.0986e-07
1.38983e-07
-4.64242e-07
1.48644e-07
-5.21399e-07
1.57928e-07
-5.81036e-07
1.66654e-07
-6.42796e-07
1.74632e-07
-7.06262e-07
1.81668e-07
-7.70956e-07
1.87572e-07
-8.36351e-07
1.92156e-07
-9.01876e-07
1.95249e-07
-9.66928e-07
1.96691e-07
-1.03088e-06
1.96345e-07
-1.09309e-06
1.941e-07
-1.15293e-06
1.89868e-07
-1.20976e-06
1.83593e-07
-1.26296e-06
1.75249e-07
-1.31197e-06
1.64839e-07
-1.35624e-06
1.524e-07
-1.39526e-06
1.37995e-07
-1.42859e-06
1.21716e-07
-1.45582e-06
1.03685e-07
-1.47662e-06
8.40452e-08
-1.49069e-06
6.29658e-08
-1.49781e-06
4.06376e-08
-1.49784e-06
1.72776e-08
-1.49059e-06
-6.87036e-09
-1.47613e-06
-3.16413e-08
-1.45443e-06
-5.6688e-08
-1.42558e-06
-8.17534e-08
-1.38972e-06
-1.06552e-07
-1.34707e-06
-1.30786e-07
-1.29791e-06
-1.54148e-07
-1.24259e-06
-1.76327e-07
-1.18152e-06
-1.97012e-07
-1.11518e-06
-2.15897e-07
-1.04411e-06
-2.32686e-07
-9.68916e-07
-2.47101e-07
-8.90273e-07
-2.58889e-07
-8.08903e-07
-2.67826e-07
-7.25577e-07
-2.73732e-07
-6.41111e-07
-2.76472e-07
-5.56347e-07
-2.75966e-07
-4.72148e-07
-2.72198e-07
-3.89381e-07
-2.65215e-07
-3.08901e-07
-2.55136e-07
-2.31536e-07
-2.42149e-07
-1.58068e-07
-2.26509e-07
-8.92154e-08
-2.08536e-07
-2.56279e-08
-1.88605e-07
3.21536e-08
-1.67133e-07
8.36865e-08
-1.44573e-07
1.2864e-07
-1.21387e-07
1.66817e-07
-9.80582e-08
1.98143e-07
-7.5036e-08
2.22666e-07
-5.27486e-08
2.4056e-07
-3.15804e-08
2.52103e-07
-1.18606e-08
2.57685e-07
6.14926e-09
2.57766e-07
2.22537e-08
2.52879e-07
3.63286e-08
2.43602e-07
4.83189e-08
2.30543e-07
5.82302e-08
2.14325e-07
6.61167e-08
1.95569e-07
7.20645e-08
1.74888e-07
7.61718e-08
1.52882e-07
7.85245e-08
1.30146e-07
7.91721e-08
1.07269e-07
7.81037e-08
8.48552e-08
7.52302e-08
6.35333e-08
7.03783e-08
4.39772e-08
6.33043e-08
2.69246e-08
5.37389e-08
1.32066e-08
4.14691e-08
3.80206e-09
2.6468e-08
9.16057e-09
2.20878e-09
-8.97221e-09
7.02406e-09
-2.15239e-08
1.31303e-08
-2.92699e-08
1.95095e-08
-3.27948e-08
2.53462e-08
-3.27182e-08
2.99851e-08
-2.96761e-08
3.29047e-08
-2.42825e-08
3.36965e-08
-1.71002e-08
3.20479e-08
-8.62126e-09
2.77248e-08
7.45092e-10
2.05552e-08
1.06786e-08
1.04115e-08
2.09484e-08
-2.80467e-09
3.14082e-08
-1.91771e-08
4.19867e-08
-3.87859e-08
5.26751e-08
-6.17148e-08
6.35099e-08
-8.80552e-08
7.45559e-08
-1.17905e-07
8.58882e-08
-1.51366e-07
9.75755e-08
-1.88533e-07
1.09666e-07
-2.29489e-07
1.22179e-07
-2.74291e-07
1.35095e-07
-3.22961e-07
1.48355e-07
-3.75475e-07
1.61858e-07
-4.31752e-07
1.75468e-07
-4.9165e-07
1.89012e-07
-5.54956e-07
2.02289e-07
-6.21386e-07
2.15074e-07
-6.90583e-07
2.27125e-07
-7.62118e-07
2.38189e-07
-8.35494e-07
2.48008e-07
-9.10156e-07
2.56331e-07
-9.85498e-07
2.62913e-07
-1.06087e-06
2.6753e-07
-1.1356e-06
2.6998e-07
-1.209e-06
2.7009e-07
-1.28038e-06
2.67723e-07
-1.34905e-06
2.62775e-07
-1.41437e-06
2.55183e-07
-1.4757e-06
2.44922e-07
-1.53245e-06
2.32005e-07
-1.5841e-06
2.16485e-07
-1.63015e-06
1.98446e-07
-1.67016e-06
1.78007e-07
-1.70376e-06
1.55316e-07
-1.73062e-06
1.3055e-07
-1.75048e-06
1.03907e-07
-1.76313e-06
7.5611e-08
-1.7684e-06
4.5907e-08
-1.76619e-06
1.50665e-08
-1.75641e-06
-1.66493e-08
-1.7391e-06
-4.89504e-08
-1.71429e-06
-8.14995e-08
-1.68207e-06
-1.13974e-07
-1.64259e-06
-1.46033e-07
-1.59605e-06
-1.77323e-07
-1.54272e-06
-2.07482e-07
-1.4829e-06
-2.36139e-07
-1.41699e-06
-2.62924e-07
-1.34542e-06
-2.87465e-07
-1.26871e-06
-3.09405e-07
-1.18741e-06
-3.284e-07
-1.10216e-06
-3.44132e-07
-1.01367e-06
-3.56317e-07
-9.22691e-07
-3.64715e-07
-8.3002e-07
-3.69142e-07
-7.3651e-07
-3.69476e-07
-6.4304e-07
-3.65667e-07
-5.5051e-07
-3.57745e-07
-4.59821e-07
-3.45825e-07
-3.71863e-07
-3.30107e-07
-2.87493e-07
-3.10879e-07
-2.07521e-07
-2.88509e-07
-1.32688e-07
-2.63438e-07
-6.36512e-08
-2.3617e-07
-9.70544e-10
-2.07254e-07
5.49228e-08
-1.7728e-07
1.03695e-07
-1.4683e-07
1.45157e-07
-1.16498e-07
1.79249e-07
-8.68408e-08
2.06042e-07
-5.83734e-08
2.2573e-07
-3.15488e-08
2.38627e-07
-6.74722e-09
2.45144e-07
1.57361e-08
2.45782e-07
3.56911e-08
2.4111e-07
5.29904e-08
2.31752e-07
6.75883e-08
2.18364e-07
7.95045e-08
2.01623e-07
8.88058e-08
1.82212e-07
9.55826e-08
1.60816e-07
9.99205e-08
1.38117e-07
1.01871e-07
1.14801e-07
1.0142e-07
9.1563e-08
9.84684e-08
6.91247e-08
9.28166e-08
4.82554e-08
8.41736e-08
2.98038e-08
7.21905e-08
1.47486e-08
5.65242e-08
4.28285e-09
3.69338e-08
1.34434e-08
2.06506e-09
-1.10373e-08
6.4375e-09
-2.58963e-08
1.17579e-08
-3.45904e-08
1.69738e-08
-3.80106e-08
2.12519e-08
-3.69964e-08
2.39317e-08
-3.2356e-08
2.44906e-08
-2.48414e-08
2.25178e-08
-1.51274e-08
1.76936e-08
-3.79709e-09
9.7709e-09
8.66781e-09
-1.44195e-09
2.18915e-08
-1.6097e-08
3.56035e-08
-3.43213e-08
4.96324e-08
-5.62285e-08
6.38939e-08
-8.19278e-08
7.83744e-08
-1.11529e-07
9.31113e-08
-1.45144e-07
1.0817e-07
-1.82881e-07
1.23625e-07
-2.24839e-07
1.39534e-07
-2.71101e-07
1.55928e-07
-3.21717e-07
1.72795e-07
-3.76695e-07
1.90074e-07
-4.35991e-07
2.07651e-07
-4.99497e-07
2.25364e-07
-5.67031e-07
2.43002e-07
-6.38335e-07
2.60316e-07
-7.1307e-07
2.77024e-07
-7.90816e-07
2.92821e-07
-8.71077e-07
3.07387e-07
-9.53289e-07
3.204e-07
-1.03682e-06
3.31544e-07
-1.12101e-06
3.40516e-07
-1.20514e-06
3.4704e-07
-1.28848e-06
3.50871e-07
-1.3703e-06
3.51805e-07
-1.44989e-06
3.49678e-07
-1.52654e-06
3.44375e-07
-1.5996e-06
3.3583e-07
-1.66844e-06
3.24021e-07
-1.73249e-06
3.08974e-07
-1.79124e-06
2.90757e-07
-1.84423e-06
2.69478e-07
-1.89106e-06
2.45278e-07
-1.93139e-06
2.18331e-07
-1.96491e-06
1.88838e-07
-1.99138e-06
1.57023e-07
-2.01061e-06
1.23134e-07
-2.02244e-06
8.74364e-08
-2.02674e-06
5.02154e-08
-2.02346e-06
1.17845e-08
-2.01254e-06
-2.7574e-08
-1.99398e-06
-6.75038e-08
-1.96783e-06
-1.07649e-07
-1.93416e-06
-1.47647e-07
-1.89308e-06
-1.87113e-07
-1.84475e-06
-2.25649e-07
-1.78939e-06
-2.62845e-07
-1.72726e-06
-2.98276e-07
-1.65866e-06
-3.31515e-07
-1.584e-06
-3.62131e-07
-1.5037e-06
-3.897e-07
-1.4183e-06
-4.13809e-07
-1.32835e-06
-4.34072e-07
-1.23454e-06
-4.50135e-07
-1.13756e-06
-4.6169e-07
-1.03822e-06
-4.68488e-07
-9.37342e-07
-4.7035e-07
-8.3583e-07
-4.6718e-07
-7.34603e-07
-4.58972e-07
-6.34608e-07
-4.4582e-07
-5.36793e-07
-4.27923e-07
-4.42089e-07
-4.05583e-07
-3.51392e-07
-3.79205e-07
-2.65545e-07
-3.49286e-07
-1.85311e-07
-3.16404e-07
-1.1136e-07
-2.81205e-07
-4.42609e-08
-2.44379e-07
1.555e-08
-2.06641e-07
6.77612e-08
-1.68709e-07
1.12197e-07
-1.31277e-07
1.48822e-07
-9.49976e-08
1.77731e-07
-6.04585e-08
1.99151e-07
-2.81669e-08
2.1343e-07
1.45657e-09
2.2101e-07
2.81112e-08
2.22433e-07
5.15674e-08
2.18309e-07
7.17123e-08
2.09305e-07
8.85092e-08
1.96125e-07
1.01986e-07
1.795e-07
1.12207e-07
1.60177e-07
1.19244e-07
1.38909e-07
1.23138e-07
1.16462e-07
1.23867e-07
9.36137e-08
1.21316e-07
7.11734e-08
1.15257e-07
5.00022e-08
1.05345e-07
3.10533e-08
9.11393e-08
1.54326e-08
7.2145e-08
4.49038e-09
4.7876e-08
1.79338e-08
1.79782e-09
-1.28351e-08
5.40924e-09
-2.95077e-08
9.48757e-09
-3.86687e-08
1.29905e-08
-4.15135e-08
1.50994e-08
-3.91053e-08
1.51702e-08
-3.24268e-08
1.2695e-08
-2.23662e-08
7.27192e-09
-9.70428e-09
-1.41768e-09
4.89251e-09
-1.36282e-08
2.08783e-08
-2.95665e-08
3.78298e-08
-4.9406e-08
5.5443e-08
-7.32989e-08
7.35254e-08
-1.01386e-07
9.19806e-08
-1.338e-07
1.10789e-07
-1.70672e-07
1.29983e-07
-2.12123e-07
1.49621e-07
-2.5826e-07
1.69762e-07
-3.09167e-07
1.90441e-07
-3.6489e-07
2.11652e-07
-4.25429e-07
2.33334e-07
-4.9072e-07
2.55365e-07
-5.60628e-07
2.77559e-07
-6.34936e-07
2.99672e-07
-7.13341e-07
3.21408e-07
-7.95453e-07
3.42429e-07
-8.80796e-07
3.62367e-07
-9.68812e-07
3.80837e-07
-1.05887e-06
3.97449e-07
-1.1503e-06
4.11821e-07
-1.24235e-06
4.23595e-07
-1.33427e-06
4.32442e-07
-1.42531e-06
4.38076e-07
-1.5147e-06
4.4026e-07
-1.6017e-06
4.38812e-07
-1.68563e-06
4.33606e-07
-1.76583e-06
4.24573e-07
-1.8417e-06
4.117e-07
-1.91271e-06
3.95025e-07
-1.97836e-06
3.74633e-07
-2.03826e-06
3.50651e-07
-2.09202e-06
3.23244e-07
-2.13935e-06
2.92605e-07
-2.17998e-06
2.58956e-07
-2.21368e-06
2.22539e-07
-2.24027e-06
1.83618e-07
-2.25961e-06
1.42471e-07
-2.27157e-06
9.93952e-08
-2.27605e-06
5.47e-08
-2.273e-06
8.72681e-09
-2.26234e-06
-3.82278e-08
-2.24408e-06
-8.57672e-08
-2.21821e-06
-1.33521e-07
-2.18476e-06
-1.81095e-07
-2.1438e-06
-2.28075e-07
-2.09542e-06
-2.74024e-07
-2.03978e-06
-3.18491e-07
-1.97705e-06
-3.61003e-07
-1.90748e-06
-4.0108e-07
-1.83139e-06
-4.38229e-07
-1.74912e-06
-4.71961e-07
-1.66114e-06
-5.01792e-07
-1.56796e-06
-5.27258e-07
-1.47016e-06
-5.47926e-07
-1.36844e-06
-5.6341e-07
-1.26355e-06
-5.73381e-07
-1.15631e-06
-5.77589e-07
-1.04762e-06
-5.75871e-07
-9.38425e-07
-5.68168e-07
-8.29711e-07
-5.54534e-07
-7.22486e-07
-5.35148e-07
-6.17759e-07
-5.1031e-07
-5.1652e-07
-4.80444e-07
-4.19713e-07
-4.46093e-07
-3.28217e-07
-4.079e-07
-2.42824e-07
-3.66597e-07
-1.64221e-07
-3.22982e-07
-9.29732e-08
-2.77889e-07
-2.95115e-08
-2.32171e-07
2.58733e-08
-1.86662e-07
7.30348e-08
-1.42159e-07
1.1197e-07
-9.93942e-08
1.42818e-07
-5.90143e-08
1.65841e-07
-2.15662e-08
1.81434e-07
1.25177e-08
1.90087e-07
4.29149e-08
1.92383e-07
6.94157e-08
1.88982e-07
9.19104e-08
1.80599e-07
1.10369e-07
1.67993e-07
1.24814e-07
1.51952e-07
1.35284e-07
1.33289e-07
1.41801e-07
1.12834e-07
1.44323e-07
9.14385e-08
1.42711e-07
6.99916e-08
1.36704e-07
4.94389e-08
1.25898e-07
3.08244e-08
1.09754e-07
1.535e-08
8.76194e-08
4.46177e-09
5.87642e-08
2.23956e-08
1.42036e-09
-1.42554e-08
3.98042e-09
-3.20678e-08
6.39477e-09
-4.1083e-08
7.67442e-09
-4.27932e-08
7.04774e-09
-3.84786e-08
3.91036e-09
-2.92895e-08
-2.2154e-09
-1.62404e-08
-1.1712e-08
-2.07662e-10
-2.48901e-08
1.80706e-08
-4.20066e-08
3.79949e-08
-6.32796e-08
5.91028e-08
-8.89003e-08
8.10637e-08
-1.19042e-07
1.03667e-07
-1.53866e-07
1.26805e-07
-1.93525e-07
1.50447e-07
-2.38156e-07
1.74614e-07
-2.87879e-07
1.99345e-07
-3.42785e-07
2.24668e-07
-4.02922e-07
2.50577e-07
-4.68281e-07
2.77011e-07
-5.38786e-07
3.03839e-07
-6.14279e-07
3.30858e-07
-6.94513e-07
3.57792e-07
-7.79146e-07
3.84305e-07
-8.67742e-07
4.10003e-07
-9.59773e-07
4.34459e-07
-1.05463e-06
4.57221e-07
-1.15162e-06
4.77833e-07
-1.25002e-06
4.95849e-07
-1.34905e-06
5.10852e-07
-1.44792e-06
5.22464e-07
-1.54584e-06
5.30359e-07
-1.64203e-06
5.34269e-07
-1.73577e-06
5.33995e-07
-1.82636e-06
5.294e-07
-1.91317e-06
5.20418e-07
-1.99564e-06
5.07041e-07
-2.07326e-06
4.89322e-07
-2.14559e-06
4.67361e-07
-2.21227e-06
4.41305e-07
-2.27295e-06
4.11336e-07
-2.32737e-06
3.77667e-07
-2.3753e-06
3.40533e-07
-2.41654e-06
3.00192e-07
-2.45092e-06
2.56917e-07
-2.47829e-06
2.10993e-07
-2.49854e-06
1.6272e-07
-2.51155e-06
1.12409e-07
-2.51724e-06
6.03845e-08
-2.51551e-06
6.99923e-09
-2.50631e-06
-4.74342e-08
-2.48957e-06
-1.02505e-07
-2.46526e-06
-1.57831e-07
-2.43335e-06
-2.12998e-07
-2.39386e-06
-2.67566e-07
-2.34682e-06
-3.21072e-07
-2.29228e-06
-3.73027e-07
-2.23036e-06
-4.22919e-07
-2.16123e-06
-4.70216e-07
-2.08509e-06
-5.1437e-07
-2.00223e-06
-5.54822e-07
-1.913e-06
-5.91017e-07
-1.81785e-06
-6.22409e-07
-1.7173e-06
-6.48477e-07
-1.61196e-06
-6.68745e-07
-1.50255e-06
-6.82791e-07
-1.38987e-06
-6.90274e-07
-1.27479e-06
-6.90945e-07
-1.15829e-06
-6.84671e-07
-1.04138e-06
-6.71444e-07
-9.25131e-07
-6.51398e-07
-8.10629e-07
-6.24811e-07
-6.98963e-07
-5.92111e-07
-5.91191e-07
-5.53865e-07
-4.88317e-07
-5.10774e-07
-3.91267e-07
-4.63648e-07
-3.00862e-07
-4.13387e-07
-2.178e-07
-3.60951e-07
-1.42643e-07
-3.07328e-07
-7.58019e-08
-2.53503e-07
-1.75363e-08
-2.00425e-07
3.20504e-08
-1.48981e-07
7.30055e-08
-9.99693e-08
1.05519e-07
-5.40799e-08
1.29918e-07
-1.18812e-08
1.46647e-07
2.61857e-08
1.56256e-07
5.98069e-08
1.59386e-07
8.87803e-08
1.56753e-07
1.13002e-07
1.4913e-07
1.32436e-07
1.37338e-07
1.47077e-07
1.22231e-07
1.56908e-07
1.04694e-07
1.61859e-07
8.56454e-08
1.6176e-07
6.60415e-08
1.56308e-07
4.69018e-08
1.45037e-07
2.93422e-08
1.27313e-07
1.46274e-08
1.02334e-07
4.24117e-09
6.91504e-08
2.66367e-08
9.38464e-10
-1.51939e-08
2.17552e-09
-3.33048e-08
2.53001e-09
-4.14375e-08
1.11119e-09
-4.13744e-08
-2.77437e-09
-3.4593e-08
-9.66854e-09
-2.23953e-08
-2.00035e-08
-5.90545e-09
-3.41326e-08
1.39214e-08
-5.23523e-08
3.62903e-08
-7.49178e-08
6.05603e-08
-1.02055e-07
8.62397e-08
-1.33968e-07
1.12977e-07
-1.70846e-07
1.40546e-07
-2.12865e-07
1.68824e-07
-2.60183e-07
1.97765e-07
-3.12935e-07
2.27366e-07
-3.71222e-07
2.57632e-07
-4.35099e-07
2.88545e-07
-5.04557e-07
3.20036e-07
-5.79513e-07
3.51967e-07
-6.59792e-07
3.84118e-07
-7.45125e-07
4.1619e-07
-8.35136e-07
4.47804e-07
-9.29351e-07
4.7852e-07
-1.0272e-06
5.0785e-07
-1.12802e-06
5.3528e-07
-1.23108e-06
5.60288e-07
-1.33562e-06
5.82365e-07
-1.4408e-06
6.01037e-07
-1.54583e-06
6.15875e-07
-1.64988e-06
6.26513e-07
-1.75217e-06
6.32656e-07
-1.85199e-06
6.34085e-07
-1.94865e-06
6.30657e-07
-2.04155e-06
6.22303e-07
-2.13016e-06
6.09025e-07
-2.21401e-06
5.90886e-07
-2.29269e-06
5.68004e-07
-2.36587e-06
5.40541e-07
-2.43326e-06
5.08696e-07
-2.49462e-06
4.72697e-07
-2.54975e-06
4.32793e-07
-2.59846e-06
3.89252e-07
-2.64062e-06
3.42353e-07
-2.67609e-06
2.92387e-07
-2.70475e-06
2.39653e-07
-2.72649e-06
1.84459e-07
-2.74121e-06
1.27122e-07
-2.74879e-06
6.79721e-08
-2.74915e-06
7.35818e-09
-2.7422e-06
-5.43839e-08
-2.72785e-06
-1.16856e-07
-2.70602e-06
-1.79662e-07
-2.67664e-06
-2.42379e-07
-2.63965e-06
-3.04552e-07
-2.59503e-06
-3.65698e-07
-2.54275e-06
-4.25302e-07
-2.48285e-06
-4.82818e-07
-2.4154e-06
-5.3767e-07
-2.34051e-06
-5.89258e-07
-2.25837e-06
-6.36963e-07
-2.16924e-06
-6.80153e-07
-2.07344e-06
-7.18201e-07
-1.97143e-06
-7.50493e-07
-1.86372e-06
-7.76451e-07
-1.75097e-06
-7.95548e-07
-1.63391e-06
-8.07333e-07
-1.5134e-06
-8.11451e-07
-1.3904e-06
-8.07667e-07
-1.26596e-06
-7.95886e-07
-1.14119e-06
-7.76169e-07
-1.01726e-06
-7.48745e-07
-8.95352e-07
-7.14018e-07
-7.76654e-07
-6.72563e-07
-6.6231e-07
-6.25117e-07
-5.53395e-07
-5.72563e-07
-4.50885e-07
-5.15897e-07
-3.55632e-07
-4.56204e-07
-2.68344e-07
-3.94616e-07
-1.89569e-07
-3.32278e-07
-1.19688e-07
-2.70306e-07
-5.89118e-08
-2.09757e-07
-7.28571e-09
-1.51595e-07
3.5305e-08
-9.66706e-08
6.91226e-08
-4.56988e-08
9.45691e-08
7.39194e-10
1.12157e-07
4.22191e-08
1.22512e-07
7.84255e-08
1.26344e-07
1.0917e-07
1.24437e-07
1.34343e-07
1.17633e-07
1.53881e-07
1.06823e-07
1.67718e-07
9.29387e-08
1.75744e-07
7.6951e-08
1.77748e-07
5.9877e-08
1.73382e-07
4.27955e-08
1.62119e-07
2.68745e-08
1.43234e-07
1.34101e-08
1.15799e-07
3.87631e-09
7.86842e-08
3.0513e-08
3.53484e-10
-1.55474e-08
-1.08826e-12
-3.29503e-08
-2.07161e-09
-3.9367e-08
-6.62955e-09
-3.68164e-08
-1.42543e-08
-2.69683e-08
-2.54015e-08
-1.1248e-08
-4.04433e-08
9.13638e-09
-5.96954e-08
3.31735e-08
-8.34347e-08
6.00296e-08
-1.11911e-07
8.90365e-08
-1.45353e-07
1.19682e-07
-1.83976e-07
1.51599e-07
-2.27975e-07
1.84545e-07
-2.7753e-07
2.18379e-07
-3.32795e-07
2.5303e-07
-3.93885e-07
2.88456e-07
-4.60865e-07
3.24612e-07
-5.33733e-07
3.61413e-07
-6.12404e-07
3.98707e-07
-6.96697e-07
4.3626e-07
-7.86326e-07
4.73747e-07
-8.80893e-07
5.10757e-07
-9.79893e-07
5.46804e-07
-1.08272e-06
5.81345e-07
-1.18867e-06
6.13804e-07
-1.29699e-06
6.43597e-07
-1.40685e-06
6.70151e-07
-1.51742e-06
6.92934e-07
-1.62785e-06
7.11467e-07
-1.73732e-06
7.25345e-07
-1.84505e-06
7.34243e-07
-1.95032e-06
7.37921e-07
-2.05246e-06
7.36228e-07
-2.1509e-06
7.29095e-07
-2.24513e-06
7.16529e-07
-2.3347e-06
6.98603e-07
-2.41927e-06
6.75449e-07
-2.49851e-06
6.47245e-07
-2.57217e-06
6.14204e-07
-2.64004e-06
5.76569e-07
-2.70195e-06
5.34602e-07
-2.75774e-06
4.8858e-07
-2.80727e-06
4.3879e-07
-2.85045e-06
3.85526e-07
-2.88715e-06
3.29087e-07
-2.91727e-06
2.69779e-07
-2.94073e-06
2.07912e-07
-2.95741e-06
1.43804e-07
-2.96722e-06
7.7781e-08
-2.97004e-06
1.01843e-08
-2.96579e-06
-5.86362e-08
-2.95435e-06
-1.28301e-07
-2.9356e-06
-1.98412e-07
-2.90943e-06
-2.68543e-07
-2.87575e-06
-3.38237e-07
-2.83444e-06
-4.07002e-07
-2.78544e-06
-4.74306e-07
-2.72867e-06
-5.39581e-07
-2.66412e-06
-6.0222e-07
-2.5918e-06
-6.6158e-07
-2.51178e-06
-7.16987e-07
-2.42419e-06
-7.67741e-07
-2.32926e-06
-8.13134e-07
-2.22729e-06
-8.52459e-07
-2.11871e-06
-8.85028e-07
-2.00406e-06
-9.10197e-07
-1.88401e-06
-9.27389e-07
-1.75934e-06
-9.3612e-07
-1.63098e-06
-9.36028e-07
-1.49997e-06
-9.26896e-07
-1.36746e-06
-9.0868e-07
-1.23468e-06
-8.81525e-07
-1.10292e-06
-8.45778e-07
-9.73488e-07
-8.01992e-07
-8.47689e-07
-7.50917e-07
-7.26766e-07
-6.93486e-07
-6.11877e-07
-6.30786e-07
-5.04056e-07
-5.64025e-07
-4.04186e-07
-4.94486e-07
-3.12977e-07
-4.23486e-07
-2.30956e-07
-3.52327e-07
-1.58456e-07
-2.82257e-07
-9.56245e-08
-2.14427e-07
-4.2428e-08
-1.49867e-07
1.33559e-09
-8.94624e-08
3.60161e-08
-3.39413e-08
6.21087e-08
1.61265e-08
8.02175e-08
6.03167e-08
9.10516e-08
9.83361e-08
9.54047e-08
1.2999e-07
9.41407e-08
1.55145e-07
8.81819e-08
1.73677e-07
7.85003e-08
1.85425e-07
6.61141e-08
1.90134e-07
5.20901e-08
1.87406e-07
3.75537e-08
1.76655e-07
2.37063e-08
1.57082e-07
1.18499e-08
1.27655e-07
3.41559e-09
8.71185e-08
3.39286e-08
-3.33211e-10
-1.52142e-08
-2.51827e-09
-3.07652e-08
-7.37561e-09
-3.45097e-08
-1.54832e-08
-2.87088e-08
-2.72816e-08
-1.51699e-08
-4.31215e-08
4.59187e-09
-6.33022e-08
2.93171e-08
-8.80942e-08
5.79655e-08
-1.17751e-07
8.96859e-08
-1.52512e-07
1.23798e-07
-1.92607e-07
1.59777e-07
-2.38251e-07
1.97243e-07
-2.89642e-07
2.35936e-07
-3.46951e-07
2.75688e-07
-4.1031e-07
3.16389e-07
-4.79799e-07
3.57945e-07
-5.55427e-07
4.0024e-07
-6.37116e-07
4.43102e-07
-7.24686e-07
4.86277e-07
-8.17844e-07
5.29418e-07
-9.16179e-07
5.72082e-07
-1.01916e-06
6.13743e-07
-1.12617e-06
6.53806e-07
-1.23646e-06
6.91637e-07
-1.34924e-06
7.26588e-07
-1.46367e-06
7.58026e-07
-1.57888e-06
7.85359e-07
-1.694e-06
8.08058e-07
-1.80821e-06
8.25673e-07
-1.92071e-06
8.37849e-07
-2.03079e-06
8.44323e-07
-2.1378e-06
8.44933e-07
-2.24118e-06
8.39605e-07
-2.34043e-06
8.2835e-07
-2.43516e-06
8.11251e-07
-2.525e-06
7.8845e-07
-2.60969e-06
7.60138e-07
-2.68899e-06
7.26545e-07
-2.76272e-06
6.87927e-07
-2.83071e-06
6.4456e-07
-2.89284e-06
5.96732e-07
-2.949e-06
5.4474e-07
-2.99909e-06
4.88886e-07
-3.04304e-06
4.29473e-07
-3.08076e-06
3.66806e-07
-3.11217e-06
3.01191e-07
-3.1372e-06
2.32939e-07
-3.15576e-06
1.62362e-07
-3.16776e-06
8.97814e-08
-3.1731e-06
1.55264e-08
-3.17168e-06
-6.00555e-08
-3.16338e-06
-1.36601e-07
-3.14807e-06
-2.13724e-07
-3.1256e-06
-2.91006e-07
-3.09584e-06
-3.67999e-07
-3.05863e-06
-4.44214e-07
-3.01382e-06
-5.19119e-07
-2.96126e-06
-5.92137e-07
-2.90084e-06
-6.62644e-07
-2.83245e-06
-7.29969e-07
-2.75604e-06
-7.93394e-07
-2.67162e-06
-8.52165e-07
-2.57925e-06
-9.05498e-07
-2.47912e-06
-9.52596e-07
-2.37148e-06
-9.92663e-07
-2.25675e-06
-1.02493e-06
-2.13546e-06
-1.04868e-06
-2.00831e-06
-1.06327e-06
-1.87614e-06
-1.0682e-06
-1.73995e-06
-1.06309e-06
-1.60088e-06
-1.04774e-06
-1.46022e-06
-1.02219e-06
-1.31932e-06
-9.86674e-07
-1.17963e-06
-9.41681e-07
-1.04261e-06
-8.87939e-07
-9.09689e-07
-8.26405e-07
-7.8224e-07
-7.58236e-07
-6.61512e-07
-6.84753e-07
-5.48604e-07
-6.07395e-07
-4.44427e-07
-5.27663e-07
-3.49687e-07
-4.47067e-07
-2.64872e-07
-3.67071e-07
-1.90256e-07
-2.89044e-07
-1.25898e-07
-2.14225e-07
-7.16675e-08
-1.43693e-07