/*--------------------------------*- C++ -*----------------------------------*\
  =========                 |
  \\      /  F ield         | OpenFOAM: The Open Source CFD Toolbox
   \\    /   O peration     | Website:  https://openfoam.org
    \\  /    A nd           | Version:  9
     \\/     M anipulation  |
\*---------------------------------------------------------------------------*/
FoamFile
{
    format      ascii;
    class       volVectorField;
    location    "4";
    object      U;
}
// * * * * * * * * * * * * * * * * * * * * * * * * * * * * * * * * * * * * * //

dimensions      [0 1 -1 0 0 0 0];

internalField   nonuniform List<vector> 
10000
(
(-8.93839e-06 8.85164e-06 0)
(3.1769e-05 -2.2754e-05 0)
(0.000164095 -5.15125e-05 0)
(0.000348505 -6.76502e-05 0)
(0.000559067 -7.36255e-05 0)
(0.000774231 -7.25253e-05 0)
(0.000977594 -6.6795e-05 0)
(0.00115792 -5.82861e-05 0)
(0.00130818 -4.83491e-05 0)
(0.00142453 -3.79449e-05 0)
(0.00150549 -2.77311e-05 0)
(0.00155121 -1.81197e-05 0)
(0.00156289 -9.32476e-06 0)
(0.0015422 -1.37134e-06 0)
(0.00149082 5.82931e-06 0)
(0.00141015 1.24643e-05 0)
(0.001301 1.87815e-05 0)
(0.00116352 2.50554e-05 0)
(0.000997072 3.15584e-05 0)
(0.000800346 3.85387e-05 0)
(0.000571401 4.62041e-05 0)
(0.00030782 5.47151e-05 0)
(6.86314e-06 6.4181e-05 0)
(-0.000334365 7.46628e-05 0)
(-0.00071876 8.61784e-05 0)
(-0.00114907 9.87076e-05 0)
(-0.00162777 0.000112196 0)
(-0.00215693 0.00012656 0)
(-0.00273812 0.000141684 0)
(-0.00337228 0.000157424 0)
(-0.00405964 0.000173603 0)
(-0.0047996 0.000190009 0)
(-0.00559067 0.000206396 0)
(-0.00643033 0.000222483 0)
(-0.00731497 0.000237952 0)
(-0.00823987 0.000252453 0)
(-0.00919907 0.000265608 0)
(-0.0101854 0.000277017 0)
(-0.0111906 0.000286261 0)
(-0.012205 0.000292916 0)
(-0.0132179 0.000296558 0)
(-0.0142177 0.000296778 0)
(-0.0151918 0.00029319 0)
(-0.0161268 0.000285444 0)
(-0.0170088 0.000273241 0)
(-0.0178234 0.000256346 0)
(-0.0185563 0.000234598 0)
(-0.0191932 0.000207928 0)
(-0.0197203 0.000176389 0)
(-0.0201245 0.000140198 0)
(-0.0203941 9.9707e-05 0)
(-0.0205186 5.52317e-05 0)
(-0.0204883 7.34745e-06 0)
(-0.020296 -4.37641e-05 0)
(-0.019938 -9.68826e-05 0)
(-0.0194121 -0.000150995 0)
(-0.0187193 -0.000205071 0)
(-0.0178634 -0.000257985 0)
(-0.0168516 -0.000308541 0)
(-0.0156944 -0.000355511 0)
(-0.0144053 -0.000397682 0)
(-0.013001 -0.000433897 0)
(-0.0115011 -0.000463108 0)
(-0.00992751 -0.000484424 0)
(-0.00830424 -0.000497157 0)
(-0.00665673 -0.000500863 0)
(-0.00501121 -0.000495376 0)
(-0.00339397 -0.000480828 0)
(-0.00183061 -0.000457656 0)
(-0.000345241 -0.000426614 0)
(0.00104006 -0.000388747 0)
(0.00230612 -0.000345137 0)
(0.00343731 -0.000297287 0)
(0.00442162 -0.000246672 0)
(0.00525118 -0.000194848 0)
(0.0059223 -0.000143282 0)
(0.00643532 -9.33508e-05 0)
(0.00679439 -4.62733e-05 0)
(0.00700704 -3.04699e-06 0)
(0.00708371 3.5572e-05 0)
(0.00703705 6.90776e-05 0)
(0.00688134 9.72241e-05 0)
(0.00663179 0.000120001 0)
(0.00630388 0.000137593 0)
(0.00591282 0.000150368 0)
(0.00547306 0.000158826 0)
(0.00499785 0.00016356 0)
(0.00449901 0.000165204 0)
(0.00398677 0.000164389 0)
(0.00346985 0.000161683 0)
(0.00295564 0.00015752 0)
(0.00245066 0.000152109 0)
(0.0019613 0.000145322 0)
(0.00149476 0.000136552 0)
(0.0010604 0.000124539 0)
(0.000671286 0.00010725 0)
(0.000345314 8.2043e-05 0)
(0.000104397 4.66136e-05 0)
(-2.66192e-05 2.54644e-06 0)
(-3.06824e-05 -3.09406e-05 0)
(2.24995e-05 -3.16193e-05 0)
(0.000178133 -0.000178323 0)
(0.000508048 -0.000299189 0)
(0.00093633 -0.00037053 0)
(0.0014117 -0.000397631 0)
(0.00189207 -0.000390046 0)
(0.0023422 -0.000357119 0)
(0.00273553 -0.000306989 0)
(0.00305371 -0.000246273 0)
(0.0032852 -0.000180098 0)
(0.00342382 -0.00011223 0)
(0.0034673 -4.52056e-05 0)
(0.00341598 1.95374e-05 0)
(0.00327159 8.14475e-05 0)
(0.00303618 0.000140741 0)
(0.0027114 0.000198188 0)
(0.00229784 0.000254925 0)
(0.00179474 0.000312266 0)
(0.00119982 0.000371544 0)
(0.000509363 0.000433975 0)
(-0.000281578 0.00050056 0)
(-0.00117884 0.000572027 0)
(-0.0021888 0.000648797 0)
(-0.00331789 0.000730985 0)
(-0.00457225 0.000818417 0)
(-0.00595731 0.000910648 0)
(-0.00747742 0.00100699 0)
(-0.0091355 0.00110652 0)
(-0.0109328 0.00120812 0)
(-0.0128684 0.00131044 0)
(-0.0149394 0.00141197 0)
(-0.0171402 0.001511 0)
(-0.0194625 0.00160562 0)
(-0.0218953 0.00169381 0)
(-0.0244247 0.0017734 0)
(-0.0270337 0.00184213 0)
(-0.0297023 0.00189771 0)
(-0.0324078 0.00193782 0)
(-0.0351247 0.00196023 0)
(-0.0378252 0.00196278 0)
(-0.0404792 0.00194352 0)
(-0.043055 0.00190068 0)
(-0.0455196 0.00183283 0)
(-0.0478389 0.00173884 0)
(-0.0499789 0.00161798 0)
(-0.0519057 0.00146998 0)
(-0.0535864 0.00129503 0)
(-0.0549894 0.00109386 0)
(-0.0560855 0.000867771 0)
(-0.0568482 0.000618717 0)
(-0.0572548 0.000348992 0)
(-0.0572865 6.08009e-05 0)
(-0.0569278 -0.000239941 0)
(-0.0561679 -0.000550828 0)
(-0.0550037 -0.000867001 0)
(-0.0534369 -0.00118322 0)
(-0.0514754 -0.00149399 0)
(-0.0491333 -0.00179356 0)
(-0.0464315 -0.00207607 0)
(-0.0433971 -0.00233564 0)
(-0.0400634 -0.00256657 0)
(-0.0364698 -0.00276354 0)
(-0.0326609 -0.00292175 0)
(-0.0286861 -0.00303718 0)
(-0.0245986 -0.00310671 0)
(-0.0204543 -0.00312831 0)
(-0.0163108 -0.00310118 0)
(-0.0122257 -0.00302585 0)
(-0.00825587 -0.00290419 0)
(-0.00445532 -0.00273948 0)
(-0.000874256 -0.00253628 0)
(0.0024423 -0.00230004 0)
(0.00545593 -0.0020373 0)
(0.0081356 -0.00175518 0)
(0.0104584 -0.00146147 0)
(0.0124102 -0.00116359 0)
(0.0139854 -0.000868838 0)
(0.0151869 -0.000584006 0)
(0.0160257 -0.000315035 0)
(0.0165198 -6.68599e-05 0)
(0.0166933 0.000156721 0)
(0.0165752 0.000353122 0)
(0.016198 0.000521025 0)
(0.015596 0.000660152 0)
(0.0148045 0.000771293 0)
(0.0138585 0.000856097 0)
(0.012791 0.000916851 0)
(0.0116332 0.000956237 0)
(0.0104133 0.000977047 0)
(0.00915682 0.000981851 0)
(0.00788671 0.000972614 0)
(0.00662435 0.000950263 0)
(0.00539078 0.000914212 0)
(0.0042085 0.00086189 0)
(0.00310352 0.000788391 0)
(0.00210744 0.000686596 0)
(0.00125792 0.000548591 0)
(0.000595416 0.000369576 0)
(0.00016216 0.000158262 0)
(4.15981e-06 -2.63698e-05 0)
(5.14841e-05 -0.000163633 0)
(0.000300361 -0.000508405 0)
(0.000772268 -0.000769539 0)
(0.00135862 -0.00092325 0)
(0.00199171 -0.000978103 0)
(0.00261841 -0.000951347 0)
(0.00319286 -0.000861898 0)
(0.00367897 -0.000727507 0)
(0.00405055 -0.000563447 0)
(0.00428993 -0.000382073 0)
(0.00438632 -0.00019277 0)
(0.00433414 -2.0839e-06 0)
(0.00413137 0.000186048 0)
(0.00377797 0.000369908 0)
(0.00327463 0.000549668 0)
(0.00262159 0.000726908 0)
(0.00181794 0.000904135 0)
(0.000861145 0.00108434 0)
(-0.000253102 0.00127056 0)
(-0.00153079 0.00146555 0)
(-0.00297923 0.00167151 0)
(-0.0046066 0.00188993 0)
(-0.00642133 0.00212145 0)
(-0.00843151 0.00236589 0)
(-0.0106442 0.00262228 0)
(-0.0130649 0.00288884 0)
(-0.0156969 0.00316313 0)
(-0.0185408 0.00344203 0)
(-0.0215941 0.00372186 0)
(-0.0248508 0.00399837 0)
(-0.028301 0.00426684 0)
(-0.0319308 0.00452209 0)
(-0.0357217 0.00475862 0)
(-0.0396513 0.00497062 0)
(-0.0436925 0.00515215 0)
(-0.0478142 0.00529723 0)
(-0.0519814 0.00539997 0)
(-0.0561553 0.00545473 0)
(-0.0602942 0.00545626 0)
(-0.0643539 0.00539987 0)
(-0.0682881 0.00528152 0)
(-0.0720496 0.00509801 0)
(-0.0755905 0.00484707 0)
(-0.0788634 0.00452743 0)
(-0.0818219 0.00413895 0)
(-0.0844217 0.00368268 0)
(-0.0866209 0.00316088 0)
(-0.0883811 0.00257705 0)
(-0.0896679 0.001936 0)
(-0.0904519 0.00124388 0)
(-0.09071 0.000507841 0)
(-0.0904214 -0.000265257 0)
(-0.0895732 -0.00106249 0)
(-0.0881616 -0.00187475 0)
(-0.0861874 -0.00269096 0)
(-0.0836591 -0.00349882 0)
(-0.0805929 -0.00428548 0)
(-0.0770125 -0.00503771 0)
(-0.072949 -0.00574224 0)
(-0.068441 -0.00638595 0)
(-0.0635343 -0.00695627 0)
(-0.0582813 -0.0074415 0)
(-0.0527404 -0.00783117 0)
(-0.0469758 -0.00811643 0)
(-0.0410557 -0.00829043 0)
(-0.035052 -0.00834862 0)
(-0.0290386 -0.00828904 0)
(-0.0230901 -0.00811257 0)
(-0.0172802 -0.007823 0)
(-0.0116804 -0.00742708 0)
(-0.00635792 -0.00693442 0)
(-0.00137452 -0.0063572 0)
(0.00321528 -0.0057097 0)
(0.00736503 -0.0050076 0)
(0.0110383 -0.004269 0)
(0.0142091 -0.00351125 0)
(0.016862 -0.00275186 0)
(0.0189927 -0.00200768 0)
(0.0206075 -0.00129398 0)
(0.021723 -0.000624072 0)
(0.0223646 -8.84965e-06 0)
(0.0225655 0.000543439 0)
(0.0223651 0.0010275 0)
(0.0218072 0.00144059 0)
(0.0209385 0.00178266 0)
(0.0198067 0.00205594 0)
(0.0184592 0.00226445 0)
(0.0169416 0.00241346 0)
(0.0152972 0.00250876 0)
(0.0135664 0.00255586 0)
(0.0117867 0.00255908 0)
(0.0099941 0.00252049 0)
(0.00822367 0.00243902 0)
(0.00651187 0.00230954 0)
(0.0048984 0.00212262 0)
(0.00342817 0.00186541 0)
(0.00215096 0.00152509 0)
(0.00111716 0.00109619 0)
(0.000385211 0.000595965 0)
(5.15783e-05 0.000110347 0)
(6.86421e-05 -0.000349308 0)
(0.000375991 -0.000939909 0)
(0.000934669 -0.00135772 0)
(0.00160693 -0.00159326 0)
(0.00231197 -0.00166411 0)
(0.00298944 -0.00159749 0)
(0.00358723 -0.00142308 0)
(0.00406365 -0.00116919 0)
(0.00438751 -0.000860747 0)
(0.00453673 -0.000518332 0)
(0.00449667 -0.000157875 0)
(0.00425841 0.000209302 0)
(0.003817 0.000576171 0)
(0.00316978 0.000939535 0)
(0.00231494 0.00129934 0)
(0.00125036 0.00165795 0)
(-2.71991e-05 0.00201931 0)
(-0.00152256 0.00238815 0)
(-0.00324226 0.0027693 0)
(-0.00519427 0.00316698 0)
(-0.00738762 0.00358442 0)
(-0.00983166 0.00402346 0)
(-0.0125353 0.00448443 0)
(-0.0155063 0.00496611 0)
(-0.0187503 0.00546569 0)
(-0.0222702 0.00597897 0)
(-0.0260651 0.0065004 0)
(-0.0301302 0.00702323 0)
(-0.0344561 0.00753965 0)
(-0.039028 0.00804091 0)
(-0.0438262 0.0085175 0)
(-0.0488251 0.00895926 0)
(-0.0539937 0.00935564 0)
(-0.0592959 0.00969586 0)
(-0.0646903 0.00996922 0)
(-0.0701311 0.0101653 0)
(-0.0755685 0.0102742 0)
(-0.0809497 0.010287 0)
(-0.0862192 0.0101957 0)
(-0.0913203 0.00999387 0)
(-0.0961957 0.0096763 0)
(-0.100788 0.00923966 0)
(-0.105043 0.0086824 0)
(-0.108905 0.00800485 0)
(-0.112325 0.0072093 0)
(-0.115257 0.0063 0)
(-0.117657 0.00528317 0)
(-0.119489 0.00416695 0)
(-0.120719 0.00296127 0)
(-0.121324 0.00167753 0)
(-0.121284 0.000329459 0)
(-0.120584 -0.00106424 0)
(-0.119215 -0.00249131 0)
(-0.117181 -0.00393303 0)
(-0.114491 -0.00537021 0)
(-0.111157 -0.00678289 0)
(-0.107202 -0.00815047 0)
(-0.102657 -0.00945203 0)
(-0.0975571 -0.0106666 0)
(-0.0919477 -0.0117738 0)
(-0.0858798 -0.0127539 0)
(-0.0794111 -0.0135886 0)
(-0.0726056 -0.0142615 0)
(-0.0655331 -0.0147586 0)
(-0.0582679 -0.015069 0)
(-0.0508883 -0.015185 0)
(-0.0434753 -0.0151031 0)
(-0.0361113 -0.0148238 0)
(-0.0288788 -0.0143523 0)
(-0.0218587 -0.0136984 0)
(-0.0151288 -0.0128762 0)
(-0.00876171 -0.0119041 0)
(-0.00282345 -0.0108046 0)
(0.00262682 -0.00960268 0)
(0.0075403 -0.00832611 0)
(0.0118797 -0.00700386 0)
(0.0156178 -0.00566507 0)
(0.0187396 -0.00433851 0)
(0.0212427 -0.00305085 0)
(0.023136 -0.00182613 0)
(0.0244398 -0.000684961 0)
(0.0251844 0.000356164 0)
(0.0254088 0.00128499 0)
(0.0251586 0.00209423 0)
(0.024485 0.00278081 0)
(0.0234424 0.00334566 0)
(0.0220868 0.00379314 0)
(0.0204738 0.00413006 0)
(0.0186583 0.00436458 0)
(0.0166928 0.00450483 0)
(0.0146277 0.00455743 0)
(0.0125118 0.0045258 0)
(0.0103928 0.00440869 0)
(0.0083195 0.00419905 0)
(0.00634302 0.00388368 0)
(0.00451891 0.00344484 0)
(0.00290675 0.00286492 0)
(0.00156654 0.00213558 0)
(0.000577114 0.00127427 0)
(9.12076e-05 0.000365657 0)
(7.64854e-05 -0.000564463 0)
(0.000409897 -0.00142389 0)
(0.00100173 -0.0019979 0)
(0.00169372 -0.00230099 0)
(0.00239504 -0.00236551 0)
(0.00304018 -0.0022314 0)
(0.0035733 -0.00194021 0)
(0.00394955 -0.00153123 0)
(0.00413478 -0.00103922 0)
(0.00410392 -0.000493134 0)
(0.00383936 8.44137e-05 0)
(0.00332914 0.000677172 0)
(0.00256524 0.00127492 0)
(0.00154198 0.00187284 0)
(0.000254549 0.00247055 0)
(-0.00130207 0.00307109 0)
(-0.00313385 0.0036797 0)
(-0.00524809 0.00430267 0)
(-0.00765338 0.00494622 0)
(-0.0103592 0.00561562 0)
(-0.0133753 0.00631443 0)
(-0.0167108 0.00704408 0)
(-0.0203733 0.00780357 0)
(-0.0243681 0.00858943 0)
(-0.0286967 0.00939576 0)
(-0.0333566 0.0102145 0)
(-0.0383399 0.0110353 0)
(-0.0436332 0.0118465 0)
(-0.0492169 0.0126344 0)
(-0.0550649 0.0133845 0)
(-0.0611448 0.014081 0)
(-0.0674176 0.0147079 0)
(-0.0738385 0.0152488 0)
(-0.0803569 0.0156874 0)
(-0.0869179 0.0160083 0)
(-0.0934625 0.0161971 0)
(-0.0999288 0.0162406 0)
(-0.106253 0.0161277 0)
(-0.112372 0.0158492 0)
(-0.11822 0.0153985 0)
(-0.123737 0.0147715 0)
(-0.128862 0.0139665 0)
(-0.133538 0.0129848 0)
(-0.137714 0.0118303 0)
(-0.141342 0.0105097 0)
(-0.144378 0.00903194 0)
(-0.146787 0.00740872 0)
(-0.148536 0.00565392 0)
(-0.1496 0.00378352 0)
(-0.14996 0.00181529 0)
(-0.149599 -0.000230408 0)
(-0.148514 -0.00232853 0)
(-0.146704 -0.00446013 0)
(-0.144172 -0.00659945 0)
(-0.140931 -0.00872027 0)
(-0.137 -0.0107956 0)
(-0.132401 -0.0127978 0)
(-0.127168 -0.0146989 0)
(-0.121337 -0.0164711 0)
(-0.114954 -0.0180868 0)
(-0.10807 -0.0195198 0)
(-0.100741 -0.0207454 0)
(-0.0930332 -0.0217413 0)
(-0.085015 -0.0224883 0)
(-0.0767616 -0.0229707 0)
(-0.0683527 -0.0231773 0)
(-0.0598712 -0.023102 0)
(-0.0514027 -0.0227443 0)
(-0.0430341 -0.0221095 0)
(-0.0348516 -0.0212092 0)
(-0.02694 -0.020061 0)
(-0.0193799 -0.0186886 0)
(-0.012247 -0.017121 0)
(-0.00560999 -0.0153924 0)
(0.000471163 -0.0135395 0)
(0.00594709 -0.0116025 0)
(0.0107788 -0.00962219 0)
(0.0149396 -0.00764016 0)
(0.0184159 -0.00569528 0)
(0.0212065 -0.00382377 0)
(0.0233226 -0.00205771 0)
(0.0247869 -0.000423992 0)
(0.0256332 0.00105617 0)
(0.0259044 0.00236819 0)
(0.0256505 0.00350361 0)
(0.0249277 0.00445976 0)
(0.0237956 0.0052392 0)
(0.0223163 0.00584849 0)
(0.0205521 0.00629671 0)
(0.0185649 0.00659357 0)
(0.0164155 0.00674737 0)
(0.0141635 0.00676272 0)
(0.0118677 0.00663852 0)
(0.00958753 0.00636638 0)
(0.00738425 0.00593026 0)
(0.00532301 0.00530803 0)
(0.00347303 0.00447641 0)
(0.00190514 0.00341985 0)
(0.000719473 0.00214512 0)
(0.000119166 0.000712805 0)
(7.7785e-05 -0.000788739 0)
(0.000409673 -0.00191868 0)
(0.000985369 -0.00263552 0)
(0.00163615 -0.00298254 0)
(0.00226496 -0.00301105 0)
(0.00280295 -0.00277621 0)
(0.00319236 -0.00233255 0)
(0.0033869 -0.00173066 0)
(0.00335089 -0.00101502 0)
(0.00305743 -0.000222733 0)
(0.00248662 0.000617153 0)
(0.00162389 0.00148368 0)
(0.000458285 0.00236359 0)
(-0.00101899 0.00325048 0)
(-0.0028159 0.00414363 0)
(-0.0049405 0.00504659 0)
(-0.00740152 0.0059656 0)
(-0.0102085 0.00690799 0)
(-0.0133715 0.00788077 0)
(-0.0169006 0.00888936 0)
(-0.020805 0.00993663 0)
(-0.0250919 0.0110223 0)
(-0.0297656 0.0121428 0)
(-0.0348262 0.0132907 0)
(-0.0402686 0.0144555 0)
(-0.0460819 0.0156236 0)
(-0.0522485 0.0167786 0)
(-0.0587436 0.0179019 0)
(-0.0655351 0.0189731 0)
(-0.0725835 0.0199705 0)
(-0.0798426 0.0208717 0)
(-0.0872594 0.0216542 0)
(-0.0947757 0.022296 0)
(-0.102328 0.0227761 0)
(-0.109851 0.0230751 0)
(-0.117275 0.0231761 0)
(-0.124531 0.0230646 0)
(-0.131551 0.0227292 0)
(-0.138267 0.022162 0)
(-0.144614 0.0213582 0)
(-0.150532 0.0203168 0)
(-0.155965 0.0190403 0)
(-0.160861 0.0175345 0)
(-0.165173 0.0158083 0)
(-0.168862 0.0138739 0)
(-0.171892 0.011746 0)
(-0.174234 0.00944196 0)
(-0.175863 0.00698164 0)
(-0.176761 0.00438702 0)
(-0.176915 0.00168227 0)
(-0.176315 -0.00110675 0)
(-0.17496 -0.00395428 0)
(-0.172851 -0.00682935 0)
(-0.169996 -0.00970166 0)
(-0.166406 -0.0125395 0)
(-0.162099 -0.0153102 0)
(-0.157098 -0.0179798 0)
(-0.151432 -0.0205142 0)
(-0.145135 -0.0228793 0)
(-0.13825 -0.0250411 0)
(-0.130823 -0.026967 0)
(-0.122907 -0.0286258 0)
(-0.114565 -0.0299893 0)
(-0.105861 -0.0310322 0)
(-0.0968692 -0.0317338 0)
(-0.0876673 -0.0320783 0)
(-0.078338 -0.0320559 0)
(-0.0689682 -0.0316638 0)
(-0.0596469 -0.0309061 0)
(-0.0504646 -0.0297949 0)
(-0.0415111 -0.0283498 0)
(-0.0328744 -0.0265984 0)
(-0.0246381 -0.0245753 0)
(-0.0168803 -0.0223217 0)
(-0.00967122 -0.0198836 0)
(-0.00307159 -0.0173115 0)
(0.00286748 -0.0146579 0)
(0.00810747 -0.0119761 0)
(0.0126233 -0.00931822 0)
(0.0164019 -0.0067335 0)
(0.0194438 -0.00426663 0)
(0.0217623 -0.00195643 0)
(0.0233832 0.000165345 0)
(0.024343 0.00207434 0)
(0.0246878 0.00375451 0)
(0.0244714 0.00519724 0)
(0.023754 0.006401 0)
(0.0226 0.00736999 0)
(0.0210765 0.00811233 0)
(0.0192516 0.00863785 0)
(0.0171939 0.00895547 0)
(0.0149719 0.00907043 0)
(0.0126536 0.00898168 0)
(0.0103078 0.00867981 0)
(0.00800509 0.00814624 0)
(0.00581981 0.00735437 0)
(0.00383099 0.00627367 0)
(0.00212091 0.00487708 0)
(0.000808813 0.00315234 0)
(0.000135792 0.00112283 0)
(7.43745e-05 -0.00100552 0)
(0.000381463 -0.00238618 0)
(0.000896651 -0.00321856 0)
(0.00145033 -0.00357646 0)
(0.0019433 -0.00353261 0)
(0.00230549 -0.00315906 0)
(0.00247896 -0.00252407 0)
(0.00241737 -0.00168957 0)
(0.00208464 -0.000709484 0)
(0.00145286 0.000371488 0)
(0.000500497 0.00151837 0)
(-0.000789272 0.00270596 0)
(-0.00243008 0.00391828 0)
(-0.00443372 0.00514751 0)
(-0.00681118 0.00639255 0)
(-0.00957333 0.00765723 0)
(-0.0127313 0.00894825 0)
(-0.0162961 0.0102733 0)
(-0.0202786 0.0116391 0)
(-0.0246879 0.01305 0)
(-0.029531 0.0145068 0)
(-0.0348111 0.0160059 0)
(-0.0405268 0.0175392 0)
(-0.0466706 0.0190939 0)
(-0.0532282 0.0206531 0)
(-0.0601778 0.022196 0)
(-0.0674894 0.0236986 0)
(-0.0751252 0.0251346 0)
(-0.0830393 0.0264758 0)
(-0.0911782 0.0276932 0)
(-0.0994822 0.0287578 0)
(-0.107886 0.0296415 0)
(-0.11632 0.0303177 0)
(-0.124712 0.0307623 0)
(-0.132989 0.0309543 0)
(-0.141078 0.0308763 0)
(-0.148907 0.0305149 0)
(-0.156409 0.0298612 0)
(-0.163518 0.0289105 0)
(-0.170176 0.0276624 0)
(-0.176328 0.0261209 0)
(-0.181926 0.0242938 0)
(-0.186926 0.0221924 0)
(-0.191292 0.0198315 0)
(-0.19499 0.0172286 0)
(-0.197995 0.0144042 0)
(-0.200283 0.0113808 0)
(-0.201838 0.00818311 0)
(-0.202647 0.00483801 0)
(-0.202699 0.00137419 0)
(-0.201988 -0.00217812 0)
(-0.200513 -0.00578807 0)
(-0.198275 -0.00942109 0)
(-0.195281 -0.0130422 0)
(-0.191539 -0.016615 0)
(-0.187064 -0.0201016 0)
(-0.181873 -0.0234631 0)
(-0.175991 -0.0266599 0)
(-0.169446 -0.0296518 0)
(-0.162273 -0.0323989 0)
(-0.154514 -0.034862 0)
(-0.146215 -0.0370035 0)
(-0.137434 -0.0387882 0)
(-0.12823 -0.0401846 0)
(-0.118672 -0.0411655 0)
(-0.108838 -0.0417096 0)
(-0.0988064 -0.0418022 0)
(-0.0886657 -0.0414363 0)
(-0.0785067 -0.0406137 0)
(-0.0684231 -0.0393451 0)
(-0.0585099 -0.037651 0)
(-0.0488617 -0.035561 0)
(-0.0395702 -0.0331142 0)
(-0.0307229 -0.0303578 0)
(-0.0224005 -0.027346 0)
(-0.0146752 -0.0241386 0)
(-0.00760928 -0.0207999 0)
(-0.00125342 -0.0173946 0)
(0.00435482 -0.0139881 0)
(0.0091909 -0.0106431 0)
(0.0132442 -0.00741768 0)
(0.0165178 -0.00436367 0)
(0.0190279 -0.00152508 0)
(0.0208036 0.00106272 0)
(0.0218846 0.00337364 0)
(0.0223207 0.00539134 0)
(0.0221698 0.00710799 0)
(0.0214962 0.00852321 0)
(0.0203688 0.00964216 0)
(0.0188599 0.010473 0)
(0.0170435 0.011024 0)
(0.0149946 0.0113001 0)
(0.0127893 0.0112996 0)
(0.0105042 0.0110121 0)
(0.0082186 0.0104161 0)
(0.00601563 0.00948014 0)
(0.00398394 0.00816493 0)
(0.00221672 0.00642886 0)
(0.000848124 0.00423585 0)
(0.000142542 0.00156685 0)
(6.73115e-05 -0.00120138 0)
(0.00032946 -0.00279269 0)
(0.000744044 -0.00369925 0)
(0.00114914 -0.00402549 0)
(0.00144759 -0.00386659 0)
(0.00157051 -0.00331215 0)
(0.00146154 -0.00244433 0)
(0.00107562 -0.0013361 0)
(0.000377214 -5.0156e-05 0)
(-0.000661905 0.00136189 0)
(-0.00206443 0.00285988 0)
(-0.00384907 0.00441495 0)
(-0.00603184 0.00600879 0)
(-0.00862721 0.00763236 0)
(-0.0116488 0.00928409 0)
(-0.0151098 0.0109676 0)
(-0.019023 0.0126894 0)
(-0.0233998 0.0144564 0)
(-0.0282503 0.0162738 0)
(-0.0335812 0.0181432 0)
(-0.0393951 0.0200614 0)
(-0.0456891 0.0220199 0)
(-0.0524535 0.0240041 0)
(-0.0596709 0.025994 0)
(-0.0673154 0.0279647 0)
(-0.0753524 0.0298868 0)
(-0.0837384 0.0317279 0)
(-0.0924215 0.0334534 0)
(-0.101342 0.0350274 0)
(-0.110435 0.0364145 0)
(-0.119627 0.0375801 0)
(-0.128846 0.0384922 0)
(-0.138013 0.0391219 0)
(-0.147054 0.0394445 0)
(-0.155892 0.0394398 0)
(-0.164456 0.0390929 0)
(-0.172678 0.0383941 0)
(-0.180496 0.037339 0)
(-0.187852 0.0359282 0)
(-0.194697 0.0341672 0)
(-0.200984 0.0320659 0)
(-0.206675 0.0296377 0)
(-0.211736 0.0268998 0)
(-0.216139 0.0238722 0)
(-0.21986 0.0205774 0)
(-0.222878 0.0170401 0)
(-0.225178 0.0132869 0)
(-0.226744 0.00934624 0)
(-0.227568 0.00524816 0)
(-0.22764 0.00102448 0)
(-0.226954 -0.00329139 0)
(-0.225507 -0.00766516 0)
(-0.223299 -0.0120598 0)
(-0.220331 -0.0164368 0)
(-0.216608 -0.0207562 0)
(-0.212138 -0.024976 0)
(-0.206932 -0.0290529 0)
(-0.201008 -0.032942 0)
(-0.194387 -0.0365978 0)
(-0.187095 -0.0399742 0)
(-0.179168 -0.0430255 0)
(-0.170644 -0.0457071 0)
(-0.161573 -0.0479764 0)
(-0.152009 -0.0497946 0)
(-0.142017 -0.0511271 0)
(-0.131668 -0.0519454 0)
(-0.121042 -0.0522285 0)
(-0.110224 -0.0519639 0)
(-0.0993064 -0.0511487 0)
(-0.0883872 -0.0497911 0)
(-0.0775659 -0.0479101 0)
(-0.0669441 -0.0455364 0)
(-0.056622 -0.0427119 0)
(-0.0466969 -0.0394886 0)
(-0.0372606 -0.035928 0)
(-0.028397 -0.032099 0)
(-0.0201808 -0.0280761 0)
(-0.0126748 -0.0239367 0)
(-0.00592915 -0.0197591 0)
(1.97777e-05 -0.0156197 0)
(0.00515005 -0.0115908 0)
(0.00945424 -0.00773803 0)
(0.0129392 -0.00411891 0)
(0.0156252 -0.000781155 0)
(0.0175455 0.0022378 0)
(0.0187447 0.00491175 0)
(0.0192767 0.0072247 0)
(0.0192043 0.00916969 0)
(0.0185965 0.010747 0)
(0.0175275 0.0119614 0)
(0.0160748 0.0128188 0)
(0.0143187 0.0133226 0)
(0.0123413 0.0134699 0)
(0.0102266 0.0132482 0)
(0.00806115 0.0126331 0)
(0.00593653 0.0115874 0)
(0.00395007 0.0100621 0)
(0.00220441 0.00799966 0)
(0.00084361 0.0053389 0)
(0.00014115 0.00201906 0)
(5.70835e-05 -0.00136478 0)
(0.000256109 -0.00310804 0)
(0.000533224 -0.00403382 0)
(0.000741964 -0.00427672 0)
(0.000791392 -0.00395414 0)
(0.000616292 -0.00317303 0)
(0.000163777 -0.00202883 0)
(-0.000608672 -0.000604745 0)
(-0.00173522 0.00102869 0)
(-0.00324385 0.00281392 0)
(-0.005158 0.00470643 0)
(-0.00749789 0.00667436 0)
(-0.0102816 0.00869746 0)
(-0.0135257 0.0107656 0)
(-0.017246 0.0128763 0)
(-0.0214571 0.0150325 0)
(-0.026172 0.0172395 0)
(-0.0314016 0.019502 0)
(-0.0371531 0.0218219 0)
(-0.0434289 0.0241964 0)
(-0.050225 0.0266163 0)
(-0.0575301 0.0290659 0)
(-0.0653239 0.0315226 0)
(-0.0735771 0.0339574 0)
(-0.0822509 0.0363361 0)
(-0.0912968 0.0386203 0)
(-0.100658 0.0407688 0)
(-0.110268 0.0427391 0)
(-0.120058 0.0444891 0)
(-0.129949 0.0459779 0)
(-0.139865 0.0471682 0)
(-0.149724 0.0480263 0)
(-0.159449 0.048524 0)
(-0.168964 0.0486388 0)
(-0.178197 0.0483541 0)
(-0.187082 0.04766 0)
(-0.19556 0.0465524 0)
(-0.203576 0.045033 0)
(-0.211084 0.043109 0)
(-0.218043 0.0407919 0)
(-0.224418 0.0380974 0)
(-0.23018 0.0350447 0)
(-0.235302 0.0316555 0)
(-0.239764 0.0279541 0)
(-0.243548 0.0239666 0)
(-0.246638 0.0197207 0)
(-0.249022 0.0152457 0)
(-0.250687 0.0105722 0)
(-0.251623 0.00573208 0)
(-0.251822 0.00075901 0)
(-0.251276 -0.00431175 0)
(-0.249979 -0.00944399 0)
(-0.247926 -0.0145988 0)
(-0.245115 -0.0197353 0)
(-0.241544 -0.0248107 0)
(-0.237215 -0.0297797 0)
(-0.232134 -0.0345952 0)
(-0.226308 -0.0392078 0)
(-0.21975 -0.0435668 0)
(-0.21248 -0.04762 0)
(-0.204523 -0.051315 0)
(-0.195909 -0.0546 0)
(-0.186679 -0.0574246 0)
(-0.176881 -0.0597413 0)
(-0.166571 -0.0615073 0)
(-0.155817 -0.0626854 0)
(-0.144692 -0.0632465 0)
(-0.133283 -0.0631705 0)
(-0.121681 -0.0624485 0)
(-0.109985 -0.0610833 0)
(-0.0983013 -0.0590911 0)
(-0.0867373 -0.0565014 0)
(-0.0754026 -0.0533572 0)
(-0.064405 -0.0497145 0)
(-0.0538484 -0.0456406 0)
(-0.0438299 -0.041213 0)
(-0.0344373 -0.0365164 0)
(-0.0257472 -0.0316406 0)
(-0.017823 -0.0266773 0)
(-0.0107135 -0.0217173 0)
(-0.00445246 -0.0168476 0)
(0.000941952 -0.0121489 0)
(0.00546702 -0.00769303 0)
(0.00913478 -0.00354154 0)
(0.0119714 0.000255835 0)
(0.0140157 0.00366117 0)
(0.0153179 0.00664871 0)
(0.0159379 0.00920322 0)
(0.015944 0.0113183 0)
(0.0154111 0.0129937 0)
(0.014419 0.0142314 0)
(0.0130519 0.0150319 0)
(0.0113967 0.0153899 0)
(0.00954352 0.0152902 0)
(0.00758569 0.0147045 0)
(0.00562196 0.0135897 0)
(0.00375712 0.0118867 0)
(0.00210116 0.00952249 0)
(0.000803118 0.00641207 0)
(0.000133404 0.00245789 0)
(4.38155e-05 -0.00148511 0)
(0.000162637 -0.00330425 0)
(0.00026773 -0.00418159 0)
(0.000235433 -0.00428096 0)
(-1.4768e-05 -0.00374083 0)
(-0.00054195 -0.00268428 0)
(-0.0013937 -0.00121876 0)
(-0.00260874 0.000563676 0)
(-0.00421915 0.00258597 0)
(-0.00625219 0.00478577 0)
(-0.00873166 0.00711514 0)
(-0.011679 0.00953983 0)
(-0.0151137 0.012038 0)
(-0.0190541 0.0145982 0)
(-0.023517 0.0172168 0)
(-0.0285172 0.019895 0)
(-0.034067 0.0226354 0)
(-0.0401745 0.025439 0)
(-0.0468423 0.0283026 0)
(-0.0540662 0.0312166 0)
(-0.0618335 0.0341641 0)
(-0.0701223 0.0371202 0)
(-0.0789003 0.0400525 0)
(-0.0881249 0.0429222 0)
(-0.0977438 0.0456852 0)
(-0.107695 0.048294 0)
(-0.117909 0.0506994 0)
(-0.128309 0.0528528 0)
(-0.138816 0.0547073 0)
(-0.149348 0.0562199 0)
(-0.159822 0.0573527 0)
(-0.170159 0.0580738 0)
(-0.180282 0.0583584 0)
(-0.190123 0.0581888 0)
(-0.199616 0.0575546 0)
(-0.208704 0.0564522 0)
(-0.217337 0.0548845 0)
(-0.225473 0.0528599 0)
(-0.233074 0.050392 0)
(-0.240109 0.0474981 0)
(-0.246552 0.044199 0)
(-0.25238 0.0405183 0)
(-0.257576 0.0364812 0)
(-0.262123 0.032115 0)
(-0.266007 0.027448 0)
(-0.269216 0.0225098 0)
(-0.271737 0.0173309 0)
(-0.273562 0.0119429 0)
(-0.274678 0.00637878 0)
(-0.275077 0.000672711 0)
(-0.274749 -0.00513935 0)
(-0.273685 -0.01102 0)
(-0.271877 -0.0169291 0)
(-0.269317 -0.0228246 0)
(-0.265999 -0.0286616 0)
(-0.261919 -0.0343924 0)
(-0.257073 -0.0399666 0)
(-0.251463 -0.0453311 0)
(-0.245093 -0.0504303 0)
(-0.237972 -0.0552067 0)
(-0.230115 -0.0596012 0)
(-0.221545 -0.0635544 0)
(-0.21229 -0.0670079 0)
(-0.202388 -0.0699049 0)
(-0.191889 -0.072193 0)
(-0.18085 -0.0738252 0)
(-0.16934 -0.0747623 0)
(-0.157441 -0.0749747 0)
(-0.145242 -0.0744446 0)
(-0.132845 -0.0731677 0)
(-0.120357 -0.0711544 0)
(-0.107893 -0.0684307 0)
(-0.0955721 -0.065039 0)
(-0.0835131 -0.0610369 0)
(-0.0718332 -0.0564967 0)
(-0.0606441 -0.0515034 0)
(-0.0500493 -0.0461518 0)
(-0.0401407 -0.0405441 0)
(-0.0309968 -0.034786 0)
(-0.0226809 -0.0289838 0)
(-0.0152394 -0.0232403 0)
(-0.00870223 -0.0176522 0)
(-0.00308197 -0.0123073 0)
(0.001625 -0.00728203 0)
(0.00543783 -0.00264022 0)
(0.00839005 0.00156756 0)
(0.0105278 0.00530402 0)
(0.0119084 0.00854437 0)
(0.0125989 0.0112741 0)
(0.0126746 0.0134861 0)
(0.012217 0.0151772 0)
(0.0113132 0.0163438 0)
(0.0100542 0.0169768 0)
(0.00853517 0.0170575 0)
(0.00685535 0.0165533 0)
(0.00511951 0.0154147 0)
(0.00343837 0.0135732 0)
(0.00192708 0.0109418 0)
(0.000735332 0.00741519 0)
(0.000121089 0.00286647 0)
(2.74506e-05 -0.00155201 0)
(4.95405e-05 -0.00335448 0)
(-5.02413e-05 -0.0041045 0)
(-0.000365485 -0.00399246 0)
(-0.000962057 -0.00317645 0)
(-0.00189055 -0.0017936 0)
(-0.00319149 3.87848e-05 0)
(-0.00489871 0.00222175 0)
(-0.00704151 0.00467336 0)
(-0.00964603 0.00732782 0)
(-0.0127361 0.0101347 0)
(-0.0163339 0.013058 0)
(-0.0204599 0.0160742 0)
(-0.0251331 0.0191705 0)
(-0.0303704 0.0223411 0)
(-0.0361856 0.0255843 0)
(-0.0425881 0.0288984 0)
(-0.0495814 0.0322789 0)
(-0.0571615 0.0357152 0)
(-0.0653156 0.0391891 0)
(-0.0740203 0.0426737 0)
(-0.0832416 0.0461338 0)
(-0.0929342 0.0495261 0)
(-0.103042 0.0528014 0)
(-0.1135 0.0559061 0)
(-0.124234 0.0587847 0)
(-0.135164 0.0613819 0)
(-0.146208 0.0636449 0)
(-0.157279 0.0655253 0)
(-0.168295 0.0669806 0)
(-0.179175 0.0679756 0)
(-0.189842 0.0684831 0)
(-0.200229 0.068484 0)
(-0.210272 0.0679676 0)
(-0.219917 0.0669308 0)
(-0.229118 0.0653772 0)
(-0.237833 0.0633169 0)
(-0.24603 0.0607648 0)
(-0.253681 0.0577399 0)
(-0.260763 0.0542646 0)
(-0.267255 0.0503636 0)
(-0.273143 0.0460635 0)
(-0.278412 0.0413923 0)
(-0.283049 0.0363787 0)
(-0.287045 0.0310524 0)
(-0.290388 0.0254439 0)
(-0.293069 0.019584 0)
(-0.295077 0.0135048 0)
(-0.296404 0.00723912 0)
(-0.297037 0.000821295 0)
(-0.296968 -0.005713 0)
(-0.296185 -0.0123258 0)
(-0.294677 -0.0189769 0)
(-0.292433 -0.0256235 0)
(-0.289442 -0.0322198 0)
(-0.285694 -0.0387165 0)
(-0.28118 -0.0450613 0)
(-0.275893 -0.0511979 0)
(-0.269827 -0.0570671 0)
(-0.262982 -0.0626062 0)
(-0.255362 -0.0677505 0)
(-0.246978 -0.0724333 0)
(-0.237846 -0.0765877 0)
(-0.227993 -0.0801478 0)
(-0.217455 -0.0830503 0)
(-0.20628 -0.0852371 0)
(-0.194528 -0.0866571 0)
(-0.182272 -0.0872692 0)
(-0.169597 -0.0870441 0)
(-0.156603 -0.085967 0)
(-0.143398 -0.0840398 0)
(-0.130103 -0.081282 0)
(-0.116845 -0.0777322 0)
(-0.103753 -0.0734474 0)
(-0.0909599 -0.0685029 0)
(-0.0785934 -0.0629897 0)
(-0.0667748 -0.0570124 0)
(-0.0556144 -0.0506854 0)
(-0.0452089 -0.0441296 0)
(-0.0356383 -0.0374674 0)
(-0.0269648 -0.0308194 0)
(-0.0192316 -0.0243001 0)
(-0.0124625 -0.0180147 0)
(-0.00666308 -0.0120566 0)
(-0.0018213 -0.00650523 0)
(0.00209092 -0.00142537 0)
(0.00511625 0.00313291 0)
(0.00731001 0.00713374 0)
(0.00873836 0.0105531 0)
(0.00947682 0.013376 0)
(0.00960863 0.0155927 0)
(0.00922339 0.0171942 0)
(0.00841599 0.0181669 0)
(0.00728595 0.0184877 0)
(0.00593745 0.0181192 0)
(0.00448024 0.0170057 0)
(0.00302943 0.0150706 0)
(0.00170339 0.012215 0)
(0.000649159 0.00831834 0)
(0.000105949 0.00323278 0)
(8.0197e-06 -0.00155527 0)
(-8.32734e-05 -0.00323332 0)
(-0.000419323 -0.00376621 0)
(-0.00105615 -0.00336856 0)
(-0.00204191 -0.00221517 0)
(-0.00341587 -0.000454086 0)
(-0.00520983 0.00179041 0)
(-0.00745182 0.00441496 0)
(-0.0101678 0.00733476 0)
(-0.0133825 0.010482 0)
(-0.0171194 0.0138047 0)
(-0.0214008 0.0172654 0)
(-0.0262475 0.0208391 0)
(-0.0316783 0.0245106 0)
(-0.0377087 0.0282712 0)
(-0.0443497 0.0321144 0)
(-0.0516061 0.0360329 0)
(-0.0594751 0.0400141 0)
(-0.0679439 0.0440383 0)
(-0.0769891 0.0480767 0)
(-0.0865757 0.0520911 0)
(-0.0966565 0.0560347 0)
(-0.107173 0.0598533 0)
(-0.118058 0.0634876 0)
(-0.129233 0.0668759 0)
(-0.140615 0.0699567 0)
(-0.15212 0.0726709 0)
(-0.163658 0.0749648 0)
(-0.175146 0.0767911 0)
(-0.186501 0.0781113 0)
(-0.197648 0.0788954 0)
(-0.208518 0.0791231 0)
(-0.219051 0.078783 0)
(-0.229194 0.077872 0)
(-0.238903 0.0763948 0)
(-0.248139 0.0743624 0)
(-0.256872 0.0717912 0)
(-0.265077 0.0687017 0)
(-0.272732 0.0651176 0)