/*--------------------------------*- C++ -*----------------------------------*\
  =========                 |
  \\      /  F ield         | OpenFOAM: The Open Source CFD Toolbox
   \\    /   O peration     | Website:  https://openfoam.org
    \\  /    A nd           | Version:  9
     \\/     M anipulation  |
\*---------------------------------------------------------------------------*/
FoamFile
{
    format      ascii;
    class       volScalarField;
    location    "0.5";
    object      p;
}
// * * * * * * * * * * * * * * * * * * * * * * * * * * * * * * * * * * * * * //

dimensions      [0 2 -2 0 0 0 0];

internalField   nonuniform List<scalar> 
1250
(
-0.00300909
-0.00304088
-0.00319061
-0.00322209
-0.00324321
-0.00325938
-0.00327291
-0.00328399
-0.00329297
-0.00330029
-0.00330629
-0.00331126
-0.00331542
-0.00331892
-0.00332191
-0.00332446
-0.00332663
-0.00332847
-0.00332999
-0.0033312
-0.0033321
-0.00333268
-0.00333292
-0.00333281
-0.00333232
-0.00333143
-0.00333013
-0.00332842
-0.00332625
-0.00332337
-0.00331975
-0.00331562
-0.00331104
-0.00330591
-0.00330001
-0.0032933
-0.00337655
-0.00340769
-0.00342873
-0.00344503
-0.00345886
-0.00347041
-0.00348004
-0.00348818
-0.00349519
-0.00350135
-0.00350687
-0.00351194
-0.00351668
-0.00352119
-0.00352553
-0.00352975
-0.00353387
-0.00353792
-0.0035419
-0.00354582
-0.00354967
-0.00355346
-0.00355718
-0.00356082
-0.0035644
-0.00356791
-0.00357137
-0.00357469
-0.00357782
-0.00358089
-0.00358403
-0.00358728
-0.00359061
-0.00359375
-0.00359696
-0.00360061
-0.00360473
-0.00360945
-0.00361495
-0.00362157
-0.00362973
-0.0036396
-0.00365213
-0.00356677
-0.00359747
-0.00361839
-0.00363477
-0.00364886
-0.00366087
-0.00367114
-0.00368012
-0.00368816
-0.00369554
-0.00370249
-0.00370919
-0.00371577
-0.00372233
-0.00372894
-0.00373567
-0.00374254
-0.00374959
-0.00375683
-0.0037643
-0.003772
-0.00377995
-0.00378817
-0.00379668
-0.00380551
-0.00381468
-0.00382424
-0.0038342
-0.00384459
-0.00385553
-0.00386713
-0.00387949
-0.00389277
-0.00390698
-0.00392209
-0.00393849
-0.00395651
-0.00397643
-0.00399862
-0.00402363
-0.00405223
-0.0040853
-0.00412347
-0.00416909
-0.00422527
-0.00429538
-0.00438353
-0.00449305
-0.00463226
-0.00376112
-0.00379135
-0.00381211
-0.00382855
-0.0038429
-0.00385536
-0.00386628
-0.00387611
-0.00388521
-0.00389386
-0.00390229
-0.00391068
-0.00391917
-0.00392788
-0.00393687
-0.00394622
-0.00395598
-0.00396618
-0.00397687
-0.00398808
-0.00399985
-0.00401222
-0.00402523
-0.00403893
-0.00405338
-0.00406864
-0.00408479
-0.0041019
-0.00412008
-0.00413947
-0.00416023
-0.00418252
-0.00420655
-0.00423253
-0.00426066
-0.00429124
-0.00432473
-0.0043616
-0.00440248
-0.00444817
-0.00449975
-0.00455866
-0.00462662
-0.00470585
-0.0048003
-0.00491501
-0.00505575
-0.00522763
-0.00544071
-0.00395942
-0.00398916
-0.00400976
-0.00402627
-0.00404088
-0.0040538
-0.00406539
-0.00407611
-0.0040863
-0.00409626
-0.00410622
-0.00411637
-0.00412685
-0.00413778
-0.00414925
-0.00416134
-0.00417411
-0.00418762
-0.00420192
-0.00421706
-0.00423312
-0.00425014
-0.00426821
-0.00428741
-0.00430782
-0.00432956
-0.00435274
-0.00437751
-0.00440402
-0.00443246
-0.00446307
-0.00449609
-0.0045318
-0.00457055
-0.0046127
-0.0046587
-0.00470916
-0.00476475
-0.00482636
-0.0048951
-0.00497243
-0.00506031
-0.0051613
-0.00527874
-0.00541736
-0.00558374
-0.00578567
-0.00603074
-0.00633162
-0.00416146
-0.00419069
-0.00421111
-0.00422769
-0.00424257
-0.00425597
-0.00426825
-0.00427987
-0.00429119
-0.00430249
-0.00431402
-0.00432597
-0.0043385
-0.00435173
-0.00436576
-0.00438068
-0.00439658
-0.00441351
-0.00443157
-0.00445082
-0.00447135
-0.00449325
-0.00451663
-0.0045416
-0.0045683
-0.00459687
-0.0046275
-0.00466038
-0.00469573
-0.00473382
-0.00477495
-0.00481946
-0.00486776
-0.00492029
-0.0049776
-0.00504032
-0.00510924
-0.00518529
-0.00526966
-0.00536384
-0.00546978
-0.00559002
-0.00572799
-0.0058882
-0.00607677
-0.00630199
-0.00657394
-0.00690296
-0.00730493
-0.00436703
-0.00439572
-0.00441595
-0.00443259
-0.00444774
-0.00446162
-0.00447461
-0.00448715
-0.00449961
-0.00451228
-0.00452541
-0.0045392
-0.00455382
-0.0045694
-0.00458605
-0.00460388
-0.00462299
-0.00464346
-0.0046654
-0.00468889
-0.00471406
-0.00474103
-0.00476993
-0.00480093
-0.0048342
-0.00486994
-0.00490838
-0.00494978
-0.00499445
-0.00504273
-0.005095
-0.00515173
-0.00521343
-0.00528071
-0.00535427
-0.00543496
-0.00552379
-0.00562198
-0.00573108
-0.00585303
-0.00599032
-0.00614627
-0.00632523
-0.006533
-0.00677734
-0.00706858
-0.00741933
-0.00784306
-0.00835902
-0.0045759
-0.00460402
-0.00462406
-0.00464075
-0.00465617
-0.00467054
-0.00468423
-0.0046977
-0.0047113
-0.00472535
-0.00474009
-0.00475575
-0.00477248
-0.00479044
-0.00480976
-0.00483056
-0.00485295
-0.00487703
-0.00490294
-0.0049308
-0.00496074
-0.00499293
-0.00502754
-0.00506477
-0.00510486
-0.00514804
-0.00519462
-0.00524492
-0.00529933
-0.00535828
-0.00542227
-0.00549186
-0.00556772
-0.00565061
-0.00574142
-0.00584123
-0.00595132
-0.00607323
-0.00620891
-0.00636081
-0.00653209
-0.00672687
-0.00695059
-0.00721049
-0.00751616
-0.00788022
-0.00831812
-0.00884668
-0.00948872
-0.00478781
-0.00481536
-0.00483519
-0.00485194
-0.00486762
-0.00488248
-0.00489687
-0.00491125
-0.004926
-0.00494142
-0.00495778
-0.0049753
-0.00499416
-0.00501451
-0.00503652
-0.00506031
-0.00508601
-0.00511376
-0.00514371
-0.005176
-0.00521082
-0.00524835
-0.00528881
-0.00533245
-0.00537954
-0.0054304
-0.00548539
-0.00554491
-0.00560942
-0.00567947
-0.00575565
-0.00583867
-0.00592934
-0.0060286
-0.00613756
-0.00625753
-0.00639008
-0.00653714
-0.00670109
-0.00688495
-0.00709258
-0.00732904
-0.00760092
-0.00791702
-0.00828902
-0.00873204
-0.00926455
-0.00990695
-0.0106856
-0.00500254
-0.00502949
-0.00504911
-0.00506591
-0.00508185
-0.00509718
-0.00511226
-0.00512755
-0.00514343
-0.00516021
-0.00517817
-0.00519753
-0.00521849
-0.00524123
-0.00526592
-0.0052927
-0.00532172
-0.00535316
-0.00538717
-0.00542395
-0.00546369
-0.00550664
-0.00555305
-0.00560321
-0.00565745
-0.00571616
-0.00577976
-0.00584874
-0.00592365
-0.00600513
-0.00609391
-0.00619083
-0.00629686
-0.00641313
-0.00654098
-0.00668199
-0.00683805
-0.00701148
-0.00720515
-0.00742269
-0.00766877
-0.00794935
-0.00827225
-0.00864795
-0.00909053
-0.00961766
-0.010251
-0.0110146
-0.011938
-0.00521982
-0.00524618
-0.00526558
-0.00528242
-0.00529862
-0.0053144
-0.00533016
-0.00534633
-0.0053633
-0.00538141
-0.00540092
-0.00542208
-0.00544511
-0.0054702
-0.00549753
-0.00552727
-0.0055596
-0.0055947
-0.00563277
-0.00567403
-0.00571872
-0.00576711
-0.0058195
-0.00587625
-0.00593773
-0.0060044
-0.00607675
-0.00615535
-0.00624086
-0.00633402
-0.00643569
-0.00654686
-0.00666866
-0.00680245
-0.00694977
-0.00711251
-0.0072929
-0.00749368
-0.00771825
-0.00797089
-0.00825709
-0.00858381
-0.00896003
-0.00939834
-0.00991492
-0.0105302
-0.0112689
-0.0121591
-0.0132323
-0.0054394
-0.00546517
-0.00548435
-0.00550123
-0.00551767
-0.0055339
-0.00555029
-0.0055673
-0.00558533
-0.0056047
-0.00562571
-0.00564862
-0.00567365
-0.00570102
-0.00573092
-0.00576356
-0.00579912
-0.00583783
-0.0058799
-0.0059256
-0.0059752
-0.00602901
-0.00608738
-0.00615071
-0.00621945
-0.00629411
-0.00637527
-0.00646358
-0.0065598
-0.00666478
-0.00677952
-0.00690516
-0.00704301
-0.00719463
-0.00736183
-0.00754678
-0.00775208
-0.0079809
-0.00823721
-0.00852597
-0.00885359
-0.00922819
-0.00965991
-0.0101632
-0.00566102
-0.00568621
-0.00570519
-0.0057221
-0.00573876
-0.0057554
-0.0057724
-0.0057902
-0.00580922
-0.00582979
-0.00585221
-0.00587677
-0.00590371
-0.00593326
-0.00596564
-0.00600106
-0.00603976
-0.00608197
-0.00612796
-0.006178
-0.00623242
-0.00629157
-0.00635585
-0.0064257
-0.00650165
-0.00658427
-0.0066742
-0.00677221
-0.00687914
-0.00699598
-0.00712384
-0.00726402
-0.00741803
-0.00758763
-0.00777488
-0.00798227
-0.00821277
-0.00847
-0.00875848
-0.00908388
-0.00945353
-0.00987675
-0.0103651
-0.0109345
-0.00588443
-0.00590906
-0.00592784
-0.00594479
-0.00596166
-0.00597868
-0.00599622
-0.00601476
-0.00603468
-0.00605635
-0.00608008
-0.00610618
-0.0061349
-0.00616649
-0.00620121
-0.00623928
-0.00628097
-0.00632655
-0.0063763
-0.00643054
-0.00648964
-0.00655399
-0.00662403
-0.00670028
-0.00678331
-0.00687375
-0.00697236
-0.00707996
-0.0071975
-0.00732609
-0.00746699
-0.00762164
-0.00779174
-0.00797926
-0.00818653
-0.00841633
-0.008672
-0.00895762
-0.00927824
-0.00964023
-0.0100518
-0.0105232
-0.0110676
-0.0117021
-0.00610938
-0.00613349
-0.00615209
-0.00616906
-0.00618612
-0.00620348
-0.00622152
-0.0062407
-0.00626142
-0.00628408
-0.00630899
-0.00633647
-0.00636681
-0.00640028
-0.00643715
-0.00647769
-0.00652219
-0.00657093
-0.00662425
-0.0066825
-0.00674607
-0.00681542
-0.00689103
-0.00697347
-0.00706337
-0.00716145
-0.00726851
-0.00738548
-0.00751343
-0.00765356
-0.00780726
-0.00797614
-0.00816209
-0.00836727
-0.00859427
-0.00884617
-0.00912667
-0.00944026
-0.00979255
-0.0101905
-0.0106432
-0.0111618
-0.0117608
-0.0124584
-0.00633562
-0.00635926
-0.0063777
-0.0063947
-0.00641193
-0.00642958
-0.00644804
-0.00646776
-0.00648917
-0.00651267
-0.00653859
-0.00656728
-0.00659904
-0.00663418
-0.006673
-0.00671577
-0.00676283
-0.0068145
-0.00687114
-0.00693314
-0.00700094
-0.00707502
-0.00715593
-0.00724428
-0.00734077
-0.00744618
-0.00756139
-0.00768743
-0.00782544
-0.00797676
-0.0081429
-0.00832562
-0.00852697
-0.00874935
-0.00899556
-0.00926897
-0.0095736
-0.0099144
-0.0102974
-0.0107303
-0.0112226
-0.0117868
-0.0124381
-0.0131963
-0.00656293
-0.00658617
-0.00660447
-0.00662151
-0.00663887
-0.00665676
-0.00667555
-0.0066957
-0.00671766
-0.00674182
-0.00676856
-0.00679824
-0.0068312
-0.00686776
-0.00690825
-0.00695299
-0.00700233
-0.00705664
-0.00711629
-0.00718173
-0.00725342
-0.00733191
-0.00741778
-0.00751169
-0.0076144
-0.00772676
-0.00784974
-0.00798442
-0.00813206
-0.00829408
-0.00847215
-0.00866815
-0.00888429
-0.00912317
-0.00938782
-0.00968187
-0.0100097
-0.0103765
-0.0107889
-0.011255
-0.011785
-0.0123922
-0.0130928
-0.0139078
-0.0067911
-0.00681401
-0.00683222
-0.00684929
-0.00686676
-0.00688482
-0.00690384
-0.0069243
-0.00694662
-0.00697125
-0.00699859
-0.00702901
-0.00706289
-0.00710058
-0.00714243
-0.00718882
-0.00724011
-0.00729669
-0.00735901
-0.00742751
-0.00750273
-0.00758522
-0.00767564
-0.00777469
-0.00788318
-0.00800203
-0.00813227
-0.00827507
-0.00843177
-0.00860391
-0.00879324
-0.0090018
-0.00923195
-0.00948645
-0.00976855
-0.0100821
-0.0104317
-0.0108231
-0.011263
-0.0117602
-0.0123255
-0.0129724
-0.0137185
-0.0145852
-0.00701993
-0.00704261
-0.00706076
-0.00707788
-0.00709543
-0.00711359
-0.00713273
-0.00715332
-0.00717583
-0.0072007
-0.00722836
-0.00725923
-0.00729371
-0.0073322
-0.00737507
-0.00742273
-0.00747557
-0.00753405
-0.0075986
-0.00766975
-0.00774804
-0.00783408
-0.00792856
-0.00803225
-0.008146
-0.00827079
-0.00840771
-0.00855801
-0.00872311
-0.00890464
-0.00910445
-0.00932471
-0.0095679
-0.00983695
-0.0101353
-0.010467
-0.0108369
-0.0112509
-0.0117162
-0.0122419
-0.0128392
-0.0135222
-0.0143089
-0.0152215
-0.00724925
-0.00727182
-0.00728998
-0.00730714
-0.00732473
-0.00734291
-0.00736204
-0.00738259
-0.00740505
-0.00742989
-0.00745759
-0.00748858
-0.00752331
-0.0075622
-0.00760569
-0.00765419
-0.00770816
-0.00776806
-0.00783439
-0.00790769
-0.00798855
-0.00807762
-0.00817563
-0.00828338
-0.0084018
-0.0085319
-0.00867483
-0.00883192
-0.00900465
-0.00919473
-0.00940411
-0.00963506
-0.00989019
-0.0101725
-0.0104857
-0.0108339
-0.0112222
-0.0116568
-0.012145
-0.0126963
-0.013322
-0.0140368
-0.0148588
-0.0158107
-0.00747892
-0.00750152
-0.00751974
-0.00753696
-0.00755456
-0.00757267
-0.00759163
-0.00761194
-0.0076341
-0.00765862
-0.00768601
-0.00771674
-0.00775131
-0.00779019
-0.00783383
-0.00788271
-0.0079373
-0.00799812
-0.0080657
-0.0081406
-0.00822347
-0.00831498
-0.00841591
-0.0085271
-0.00864951
-0.00878421
-0.00893242
-0.00909549
-0.00927499
-0.0094727
-0.00969064
-0.00993116
-0.010197
-0.0104912
-0.0108177
-0.0111806
-0.0115853
-0.012038
-0.0125464
-0.0131199
-0.0137702
-0.0145119
-0.0153635
-0.0163476
-0.00770883
-0.00773162
-0.00775
-0.00776729
-0.00778485
-0.00780277
-0.0078214
-0.00784123
-0.00786281
-0.00788667
-0.00791337
-0.00794343
-0.00797739
-0.00801576
-0.00805905
-0.00810778
-0.00816245
-0.00822362
-0.00829186
-0.00836777
-0.00845203
-0.00854534
-0.00864852
-0.00876245
-0.00888813
-0.00902667
-0.00917932
-0.00934751
-0.00953285
-0.00973716
-0.00996254
-0.0102114
-0.0104866
-0.0107912
-0.0111292
-0.0115049
-0.0119238
-0.0123921
-0.0129176
-0.0135098
-0.0141805
-0.0149442
-0.0158192
-0.0168282
-0.00793891
-0.00796209
-0.00798071
-0.0079981
-0.00801557
-0.00803319
-0.00805128
-0.00807038
-0.00809105
-0.00811387
-0.00813945
-0.00816837
-0.00820121
-0.00823854
-0.00828093
-0.00832892
-0.00838307
-0.00844398
-0.00851224
-0.00858851
-0.00867348
-0.0087679
-0.0088726
-0.00898852
-0.00911668
-0.00925822
-0.00941445
-0.00958682
-0.00977698
-0.00998681
-0.0102185
-0.0104744
-0.0107574
-0.0110708
-0.0114185
-0.011805
-0.0122357
-0.0127169
-0.0132564
-0.0138637
-0.0145505
-0.015331
-0.0162233
-0.0172496
-0.00816915
-0.00819294
-0.0082119
-0.00822941
-0.00824674
-0.00826391
-0.00828126
-0.00829933
-0.00831873
-0.00834009
-0.00836407
-0.00839132
-0.00842249
-0.00845819
-0.00849905
-0.00854567
-0.00859865
-0.00865862
-0.00872622
-0.00880214
-0.00888709
-0.00898187
-0.00908734
-0.00920445
-0.00933424
-0.00947791
-0.00963678
-0.00981235
-0.0100063
-0.0102205
-0.0104571
-0.0107187
-0.0110082
-0.0113287
-0.0116843
-0.0120794
-0.0125194
-0.0130108
-0.0135611
-0.0141798
-0.0148782
-0.0156705
-0.016574
-0.0176103
-0.00839958
-0.00842423
-0.00844366
-0.00846131
-0.00847843
-0.00849501
-0.00851137
-0.00852808
-0.0085458
-0.00856522
-0.00858707
-0.00861208
-0.00864095
-0.00867438
-0.00871304
-0.00875759
-0.00880869
-0.008867
-0.0089332
-0.00900802
-0.00909219
-0.00918655
-0.00929197
-0.00940942
-0.00953997
-0.00968484
-0.00984538
-0.0100231
-0.0102197
-0.0104371
-0.0106775
-0.0109434
-0.0112377
-0.0115636
-0.0119251
-0.0123267
-0.0127737
-0.0132724
-0.0138304
-0.0144568
-0.0151627
-0.0159616
-0.0168705
-0.0179099
-0.0086303
-0.0086561
-0.00867614
-0.00869395
-0.0087108
-0.0087266
-0.00874169
-0.00875666
-0.00877224
-0.00878919
-0.00880832
-0.00883044
-0.00885634
-0.00888679
-0.00892252
-0.00896426
-0.00901271
-0.00906859
-0.00913261
-0.00920552
-0.00928811
-0.00938122
-0.00948574
-0.00960266
-0.00973305
-0.00987814
-0.0100394
-0.0102183
-0.0104165
-0.0106359
-0.0108787
-0.0111474
-0.011445
-0.0117746
-0.0121402
-0.0125461
-0.0129977
-0.013501
-0.0140635
-0.0146941
-0.0154033
-0.0162041
-0.0171128
-0.0181488
-0.00886149
-0.00888878
-0.00890958
-0.00892759
-0.00894407
-0.00895889
-0.00897239
-0.0089852
-0.00899812
-0.00901201
-0.00902776
-0.00904629
-0.00906848
-0.00909517
-0.00912718
-0.0091653
-0.00921029
-0.00926291
-0.00932393
-0.00939411
-0.00947427
-0.00956527
-0.00966802
-0.00978352
-0.00991283
-0.0100573
-0.0102183
-0.0103974
-0.0105961
-0.0108163
-0.0110602
-0.0113304
-0.0116297
-0.0119614
-0.0123291
-0.0127374
-0.0131912
-0.0136965
-0.0142606
-0.0148919
-0.0156006
-0.0163989
-0.0173023
-0.0183291
-0.00909344
-0.00912262
-0.00914438
-0.00916264
-0.00917867
-0.0091923
-0.00920385
-0.00921403
-0.00922372
-0.00923389
-0.00924554
-0.00925971
-0.00927736
-0.00929947
-0.00932691
-0.00936056
-0.00940123
-0.00944974
-0.00950689
-0.00957347
-0.00965034
-0.00973837
-0.00983849
-0.00995172
-0.0100792
-0.0102223
)
;

boundaryField
{
    movingWall
    {
        type            zeroGradient;
    }
    fixedWalls
    {
        type            zeroGradient;
    }
    frontAndBack
    {
        type            empty;
    }
    procBoundary3to0
    {
        type            processor;
        value           nonuniform List<scalar> 
29
(
-0.00283231
-0.0028644
-0.00306206
-0.00306206
-0.00307809
-0.00309133
-0.00310196
-0.00311032
-0.00311686
-0.00312191
-0.00312575
-0.00312861
-0.00313064
-0.00313196
-0.00313266
-0.0031328
-0.0031324
-0.00313147
-0.00313003
-0.00312805
-0.00312551
-0.00312239
-0.00311865
-0.00311426
-0.00310917
-0.00310337
-0.00309683
-0.00308941
-0.00308079
)
;
    }
    procBoundary3to1
    {
        type            processor;
        value           nonuniform List<scalar> 
23
(
-0.00307105
-0.00306041
-0.00304886
-0.00303621
-0.00302224
-0.003007
-0.00328609
-0.00328609
-0.00327837
-0.00327017
-0.00326144
-0.00325221
-0.00324265
-0.00323291
-0.00322317
-0.00321418
-0.00366923
-0.00366923
-0.00369264
-0.00372494
-0.00376899
-0.00382691
-0.00390504
)
;
    }
    procBoundary3to2
    {
        type            processor;
        value           nonuniform List<scalar> 
45
(
-0.0103821
-0.0105604
-0.0107584
-0.0109782
-0.0112221
-0.0114924
-0.0117921
-0.0121241
-0.0124923
-0.0129009
-0.0133548
-0.0138598
-0.0144228
-0.0150518
-0.0157564
-0.0165483
-0.0174418
-0.0184538
-0.00932652
-0.00935803
-0.009381
-0.00939958
-0.00941509
-0.00942728
-0.00943651
-0.00944354
-0.00944938
-0.0094551
-0.00946187
-0.00947083
-0.00948309
-0.00949972
-0.0095217
-0.00954997
-0.00958543
-0.00962893
-0.00968132
-0.00974344
-0.00981614
-0.00990032
-0.00999694
-0.010107
-0.0102317
-0.0103821
-0.0103723
)
;
    }
    procBoundary3to5
    {
        type            processor;
        value           nonuniform List<scalar> 
21
(
-0.0107566
-0.0114628
-0.0123094
-0.0133287
-0.0145549
-0.0107566
-0.0116058
-0.0124496
-0.0132794
-0.0140874
-0.0148641
-0.0156004
-0.0162882
-0.0169207
-0.0174921
-0.0179982
-0.0184361
-0.0188045
-0.0191035
-0.0193344
-0.0195
)
;
    }
    procBoundary3to6
    {
        type            processor;
        value           nonuniform List<scalar> 9(-0.00481511 -0.00571213 -0.00670806 -0.00780287 -0.0089939 -0.0102746 -0.0116341 -0.013058 -0.0145285);
    }
}


// ************************************************************************* //
