/*--------------------------------*- C++ -*----------------------------------*\
  =========                 |
  \\      /  F ield         | OpenFOAM: The Open Source CFD Toolbox
   \\    /   O peration     | Website:  https://openfoam.org
    \\  /    A nd           | Version:  9
     \\/     M anipulation  |
\*---------------------------------------------------------------------------*/
FoamFile
{
    format      ascii;
    class       surfaceScalarField;
    location    "0.5";
    object      phi;
}
// * * * * * * * * * * * * * * * * * * * * * * * * * * * * * * * * * * * * * //

dimensions      [0 3 -1 0 0 0 0];

internalField   nonuniform List<scalar> 
2422
(
-1.46632e-09
5.35327e-08
1.43565e-07
-1.44434e-09
5.4977e-08
-5.35018e-09
1.47471e-07
-1.13396e-08
2.24723e-07
-1.9081e-08
2.88789e-07
-2.82872e-08
3.41555e-07
-3.87119e-08
3.84721e-07
-5.01462e-08
4.19805e-07
-6.24152e-08
4.4814e-07
-7.5375e-08
4.70888e-07
-8.89092e-08
4.89051e-07
-1.02926e-07
5.03484e-07
-1.17354e-07
5.1491e-07
-1.32141e-07
5.23935e-07
-1.4725e-07
5.31064e-07
-1.62658e-07
5.36711e-07
-1.78352e-07
5.41213e-07
-1.9433e-07
5.44841e-07
-2.10598e-07
5.47811e-07
-2.27167e-07
5.50291e-07
-2.44058e-07
5.52409e-07
-2.61293e-07
5.54261e-07
-2.78901e-07
5.55915e-07
-2.96914e-07
5.5742e-07
-3.1537e-07
5.58803e-07
-3.34308e-07
5.60079e-07
-3.53774e-07
5.61249e-07
-3.73816e-07
5.62308e-07
-3.9448e-07
5.63243e-07
-4.1581e-07
5.64031e-07
-4.37858e-07
5.64613e-07
-4.60685e-07
5.64924e-07
-4.84358e-07
5.64912e-07
-5.08946e-07
5.64517e-07
5.63675e-07
-1.42043e-09
5.63974e-08
-5.27355e-09
1.51324e-07
-1.11929e-08
2.30642e-07
-1.88558e-08
2.96452e-07
-2.798e-08
3.50679e-07
-3.83226e-08
3.95064e-07
-4.96763e-08
4.31158e-07
-6.18675e-08
4.60331e-07
-7.47527e-08
4.83773e-07
-8.82155e-08
5.02514e-07
-1.02164e-07
5.17432e-07
-1.16527e-07
5.29273e-07
-1.31252e-07
5.3866e-07
-1.46302e-07
5.46115e-07
-1.61655e-07
5.52064e-07
-1.77298e-07
5.56856e-07
-1.9323e-07
5.60773e-07
-2.09458e-07
5.64039e-07
-2.25996e-07
5.66828e-07
-2.42864e-07
5.69277e-07
-2.60088e-07
5.71485e-07
-2.77699e-07
5.73526e-07
-2.95732e-07
5.75454e-07
-3.14228e-07
5.77299e-07
-3.33231e-07
5.79081e-07
-3.52788e-07
5.80807e-07
-3.72951e-07
5.82472e-07
-3.93773e-07
5.84064e-07
-4.153e-07
5.85559e-07
-4.37595e-07
5.86908e-07
-4.60728e-07
5.88057e-07
-4.84773e-07
5.88957e-07
-5.09808e-07
5.89552e-07
-5.35914e-07
5.89781e-07
-5.63181e-07
5.89585e-07
-5.91704e-07
5.88879e-07
-6.21593e-07
5.87589e-07
-6.52976e-07
5.85651e-07
-6.86001e-07
5.83024e-07
-7.20852e-07
5.79695e-07
-7.57764e-07
5.75713e-07
-7.97047e-07
5.71205e-07
5.66401e-07
-1.39604e-09
5.77935e-08
-5.19168e-09
1.5512e-07
-1.10343e-08
2.36485e-07
-1.86097e-08
3.04027e-07
-2.76416e-08
3.59711e-07
-3.78906e-08
4.05313e-07
-4.91517e-08
4.42419e-07
-6.12521e-08
4.72431e-07
-7.40488e-08
4.9657e-07
-8.74254e-08
5.15891e-07
-1.0129e-07
5.31297e-07
-1.15571e-07
5.43554e-07
-1.30215e-07
5.53305e-07
-1.45187e-07
5.61086e-07
-1.60463e-07
5.67339e-07
-1.76031e-07
5.72425e-07
-1.91893e-07
5.76634e-07
-2.08054e-07
5.802e-07
-2.2453e-07
5.83305e-07
-2.41344e-07
5.8609e-07
-2.58522e-07
5.88663e-07
-2.76099e-07
5.91103e-07
-2.94112e-07
5.93467e-07
-3.12604e-07
5.95791e-07
-3.31623e-07
5.981e-07
-3.5122e-07
6.00403e-07
-3.71449e-07
6.02701e-07
-3.92366e-07
6.04982e-07
-4.14031e-07
6.07224e-07
-4.36511e-07
6.09388e-07
-4.59885e-07
6.11431e-07
-4.84235e-07
6.13307e-07
-5.0965e-07
6.14967e-07
-5.36225e-07
6.16356e-07
-5.64059e-07
6.17419e-07
-5.93274e-07
6.18093e-07
-6.24e-07
6.18315e-07
-6.56391e-07
6.18043e-07
-6.90632e-07
6.17264e-07
-7.26948e-07
6.16012e-07
-7.65627e-07
6.14393e-07
-8.07037e-07
6.12615e-07
-8.5165e-07
6.11015e-07
-9.00062e-07
6.10084e-07
-9.52985e-07
6.10435e-07
-1.01128e-06
6.12835e-07
-1.07589e-06
6.181e-07
-1.14783e-06
6.26987e-07
6.40244e-07
-1.37028e-09
5.91638e-08
-5.1048e-09
1.58854e-07
-1.0864e-08
2.42244e-07
-1.83433e-08
3.11507e-07
-2.72728e-08
3.68641e-07
-3.74169e-08
4.15457e-07
-4.85729e-08
4.53575e-07
-6.05692e-08
4.84427e-07
-7.32629e-08
5.09263e-07
-8.65379e-08
5.29165e-07
-1.00301e-07
5.4506e-07
-1.14482e-07
5.57734e-07
-1.29026e-07
5.67849e-07
-1.43898e-07
5.75958e-07
-1.59074e-07
5.82515e-07
-1.74543e-07
5.87894e-07
-1.90306e-07
5.92397e-07
-2.0637e-07
5.96265e-07
-2.22753e-07
5.99687e-07
-2.39477e-07
6.02814e-07
-2.56572e-07
6.05758e-07
-2.74073e-07
6.08604e-07
-2.92021e-07
6.11414e-07
-3.10461e-07
6.14231e-07
-3.29443e-07
6.17082e-07
-3.49021e-07
6.19982e-07
-3.69254e-07
6.22934e-07
-3.90205e-07
6.25932e-07
-4.11938e-07
6.28958e-07
-4.34532e-07
6.31981e-07
-4.58069e-07
6.34969e-07
-4.82643e-07
6.37881e-07
-5.08353e-07
6.40676e-07
-5.35307e-07
6.4331e-07
-5.63624e-07
6.45735e-07
-5.93435e-07
6.47905e-07
-6.24898e-07
6.49778e-07
-6.58195e-07
6.5134e-07
-6.93546e-07
6.52615e-07
-7.31223e-07
6.53689e-07
-7.71572e-07
6.54741e-07
-8.15027e-07
6.5607e-07
-8.62138e-07
6.58126e-07
-9.13578e-07
6.61524e-07
-9.70176e-07
6.67033e-07
-1.03287e-06
6.75525e-07
-1.10266e-06
6.87895e-07
-1.18057e-06
7.04899e-07
7.27192e-07
-1.34262e-09
6.05064e-08
-5.01181e-09
1.62523e-07
-1.06814e-08
2.47913e-07
-1.80567e-08
3.18882e-07
-2.68743e-08
3.77458e-07
-3.69029e-08
4.25486e-07
-4.7942e-08
4.64615e-07
-5.98212e-08
4.96307e-07
-7.2398e-08
5.2184e-07
-8.55559e-08
5.42323e-07
-9.92017e-08
5.58706e-07
-1.13264e-07
5.71796e-07
-1.27688e-07
5.82274e-07
-1.42438e-07
5.90708e-07
-1.5749e-07
5.97568e-07
-1.72834e-07
6.03239e-07
-1.8847e-07
6.08033e-07
-2.04406e-07
6.12201e-07
-2.20661e-07
6.15942e-07
-2.37259e-07
6.19412e-07
-2.5423e-07
6.22729e-07
-2.71611e-07
6.25986e-07
-2.89446e-07
6.29249e-07
-3.07781e-07
6.32566e-07
-3.26669e-07
6.3597e-07
-3.46168e-07
6.39481e-07
-3.66341e-07
6.43107e-07
-3.87254e-07
6.46845e-07
-4.08982e-07
6.50686e-07
-4.31607e-07
6.54607e-07
-4.55222e-07
6.58583e-07
-4.79927e-07
6.62586e-07
-5.05832e-07
6.66581e-07
-5.33057e-07
6.70535e-07
-5.61737e-07
6.74415e-07
-5.92023e-07
6.78191e-07
-6.24095e-07
6.8185e-07
-6.58163e-07
6.85408e-07
-6.94483e-07
6.88935e-07
-7.33375e-07
6.92581e-07
-7.75235e-07
6.96602e-07
-8.20565e-07
7.014e-07
-8.69987e-07
7.07548e-07
-9.24255e-07
7.15793e-07
-9.84258e-07
7.27036e-07
-1.05099e-06
7.42257e-07
-1.12549e-06
7.62395e-07
-1.20874e-06
7.88148e-07
8.2002e-07
-1.31313e-09
6.18195e-08
-4.91282e-09
1.66123e-07
-1.0487e-08
2.53488e-07
-1.77508e-08
3.26146e-07
-2.64479e-08
3.86155e-07
-3.6351e-08
4.35389e-07
-4.72622e-08
4.75526e-07
-5.90121e-08
5.08056e-07
-7.14583e-08
5.34287e-07
-8.44841e-08
5.55349e-07
-9.79958e-08
5.72218e-07
-1.11921e-07
5.85721e-07
-1.26205e-07
5.96558e-07
-1.40811e-07
6.05314e-07
-1.55715e-07
6.12472e-07
-1.70907e-07
6.1843e-07
-1.86386e-07
6.23512e-07
-2.02163e-07
6.27978e-07
-2.18254e-07
6.32034e-07
-2.34686e-07
6.35844e-07
-2.51491e-07
6.39534e-07
-2.68706e-07
6.43201e-07
-2.86377e-07
6.46919e-07
-3.04551e-07
6.50741e-07
-3.23286e-07
6.54705e-07
-3.42641e-07
6.58836e-07
-3.62683e-07
6.63148e-07
-3.83484e-07
6.67647e-07
-4.05125e-07
6.72326e-07
-4.27693e-07
6.77176e-07
-4.51289e-07
6.82179e-07
-4.7602e-07
6.87317e-07
-5.02007e-07
6.92568e-07
-5.29381e-07
6.9791e-07
-5.58293e-07
7.03327e-07
-5.88913e-07
7.08811e-07
-6.21441e-07
7.14377e-07
-6.56116e-07
7.20083e-07
-6.93229e-07
7.26049e-07
-7.33141e-07
7.32492e-07
-7.76298e-07
7.39759e-07
-8.23258e-07
7.4836e-07
-8.74703e-07
7.58992e-07
-9.31448e-07
7.72538e-07
-9.9443e-07
7.90018e-07
-1.06467e-06
8.12495e-07
-1.14318e-06
8.4091e-07
-1.23089e-06
8.75854e-07
9.17603e-07
-1.28203e-09
6.31015e-08
-4.80848e-09
1.6965e-07
-1.02818e-08
2.58961e-07
-1.74276e-08
3.33292e-07
-2.59963e-08
3.94724e-07
-3.57649e-08
4.45157e-07
-4.65379e-08
4.86299e-07
-5.81468e-08
5.19665e-07
-7.04494e-08
5.46589e-07
-8.33286e-08
5.68228e-07
-9.66899e-08
5.85579e-07
-1.1046e-07
5.99491e-07
-1.24584e-07
6.10682e-07
-1.39023e-07
6.19753e-07
-1.53755e-07
6.27203e-07
-1.68767e-07
6.33442e-07
-1.8406e-07
6.38805e-07
-1.99643e-07
6.43561e-07
-2.15535e-07
6.47926e-07
-2.31761e-07
6.5207e-07
-2.48355e-07
6.56128e-07
-2.65356e-07
6.60202e-07
-2.82809e-07
6.64372e-07
-3.00766e-07
6.68698e-07
-3.19284e-07
6.73223e-07
-3.38427e-07
6.77979e-07
-3.58264e-07
6.82985e-07
-3.78872e-07
6.88255e-07
-4.00337e-07
6.93791e-07
-4.22752e-07
6.99591e-07
-4.46223e-07
7.0565e-07
-4.70867e-07
7.1196e-07
-4.9681e-07
7.18511e-07
-5.24199e-07
7.25298e-07
-5.53194e-07
7.32323e-07
-5.83985e-07
7.39602e-07
-6.16793e-07
7.47185e-07
-6.51882e-07
7.55172e-07
-6.89574e-07
7.63741e-07
-7.30266e-07
7.73184e-07
-7.74447e-07
7.8394e-07
-8.2272e-07
7.96633e-07
-8.75811e-07
8.12084e-07
-9.34575e-07
8.31302e-07
-9.99971e-07
8.55413e-07
-1.07301e-06
8.85532e-07
-1.15465e-06
9.22556e-07
-1.24571e-06
9.66908e-07
1.01856e-06
-1.2496e-09
6.43511e-08
-4.69962e-09
1.731e-07
-1.00676e-08
2.64329e-07
-1.70896e-08
3.40314e-07
-2.5523e-08
4.03158e-07
-3.5149e-08
4.54783e-07
-4.57744e-08
4.96924e-07
-5.72316e-08
5.31123e-07
-6.93785e-08
5.58736e-07
-8.20972e-08
5.80947e-07
-9.52924e-08
5.98774e-07
-1.0889e-07
6.13088e-07
-1.22834e-07
6.24626e-07
-1.37085e-07
6.34004e-07
-1.51618e-07
6.41737e-07
-1.66423e-07
6.48247e-07
-1.81499e-07
6.5388e-07
-1.96854e-07
6.58917e-07
-2.12509e-07
6.6358e-07
-2.28488e-07
6.6805e-07
-2.44826e-07
6.72465e-07
-2.61562e-07
6.76938e-07
-2.78743e-07
6.81553e-07
-2.96422e-07
6.86377e-07
-3.14658e-07
6.91459e-07
-3.33517e-07
6.96837e-07
-3.53071e-07
7.02539e-07
-3.73401e-07
7.08585e-07
-3.94596e-07
7.14986e-07
-4.16755e-07
7.21751e-07
-4.39989e-07
7.28884e-07
-4.6442e-07
7.36391e-07
-4.90185e-07
7.44277e-07
-5.17438e-07
7.52551e-07
-5.46354e-07
7.61239e-07
-5.77137e-07
7.70384e-07
-6.10025e-07
7.80073e-07
-6.45305e-07
7.90452e-07
-6.83326e-07
8.01762e-07
-7.24513e-07
8.14371e-07
-7.69389e-07
8.28816e-07
-8.18586e-07
8.4583e-07
-8.7286e-07
8.66357e-07
-9.33077e-07
8.91519e-07
-1.00019e-06
9.22527e-07
-1.07517e-06
9.60509e-07
-1.15889e-06
1.00627e-06
-1.25199e-06
1.06001e-06
1.12134e-06
-1.21613e-09
6.55673e-08
-4.58724e-09
1.76471e-07
-9.84625e-09
2.69588e-07
-1.67398e-08
3.47207e-07
-2.50321e-08
4.1145e-07
-3.45088e-08
4.6426e-07
-4.49785e-08
5.07394e-07
-5.62744e-08
5.42418e-07
-6.82543e-08
5.70716e-07
-8.07995e-08
5.93492e-07
-9.38137e-08
6.11789e-07
-1.07221e-07
6.26496e-07
-1.20966e-07
6.3837e-07
-1.35006e-07
6.48045e-07
-1.49317e-07
6.56048e-07
-1.63887e-07
6.62817e-07
-1.78714e-07
6.68708e-07
-1.93808e-07
6.74011e-07
-2.09187e-07
6.78959e-07
-2.24877e-07
6.83739e-07
-2.40912e-07
6.885e-07
-2.57332e-07
6.93358e-07
-2.74185e-07
6.98406e-07
-2.91524e-07
7.03716e-07
-3.0941e-07
7.09345e-07
-3.2791e-07
7.15338e-07
-3.47099e-07
7.21729e-07
-3.67061e-07
7.28546e-07
-3.87888e-07
7.35812e-07
-4.09682e-07
7.43545e-07
-4.3256e-07
7.51761e-07
-4.56647e-07
7.60479e-07
-4.82088e-07
7.69718e-07
-5.09045e-07
7.79508e-07
-5.37703e-07
7.89897e-07
-5.68278e-07
8.00959e-07
-6.01024e-07
8.12819e-07
-6.36246e-07
8.25674e-07
-6.74311e-07
8.39827e-07
-7.15667e-07
8.55727e-07
-7.60856e-07
8.74005e-07
-8.10526e-07
8.95501e-07
-8.65437e-07
9.21268e-07
-9.26444e-07
9.52527e-07
-9.94466e-07
9.90549e-07
-1.0704e-06
1.03644e-06
-1.15499e-06
1.09087e-06
-1.24872e-06
1.15375e-06
1.22426e-06
-1.18197e-09
6.67492e-08
-4.47251e-09
1.79761e-07
-9.62005e-09
2.74735e-07
-1.63818e-08
3.53969e-07
-2.45288e-08
4.19597e-07
-3.38506e-08
4.73582e-07
-4.41579e-08
5.17701e-07
-5.52843e-08
5.53545e-07
-6.70872e-08
5.82519e-07
-7.9447e-08
6.05852e-07
-9.22662e-08
6.24608e-07
-1.05468e-07
6.39698e-07
-1.18994e-07
6.51896e-07
-1.32802e-07
6.61853e-07
-1.46866e-07
6.70112e-07
-1.61173e-07
6.77124e-07
-1.75721e-07
6.83256e-07
-1.90519e-07
6.88808e-07
-2.05584e-07
6.94024e-07
-2.20942e-07
6.99097e-07
-2.36626e-07
7.04185e-07
-2.52678e-07
7.0941e-07
-2.69145e-07
7.14873e-07
-2.86081e-07
7.20652e-07
-3.03547e-07
7.26811e-07
-3.21612e-07
7.33403e-07
-3.40353e-07
7.40469e-07
-3.59853e-07
7.48047e-07
-3.80209e-07
7.56168e-07
-4.01526e-07
7.64862e-07
-4.23921e-07
7.74156e-07
-4.47525e-07
7.84083e-07
-4.72488e-07
7.94681e-07
-4.98978e-07
8.05998e-07
-5.27187e-07
8.18106e-07
-5.57341e-07
8.31113e-07
-5.89704e-07
8.45182e-07
-6.24592e-07
8.60562e-07
-6.62386e-07
8.77621e-07
-7.03545e-07
8.96886e-07
-7.48618e-07
9.19078e-07
-7.98251e-07
9.45135e-07
-8.53183e-07
9.76199e-07
-9.1423e-07
1.01357e-06
-9.82259e-07
1.05858e-06
-1.05806e-06
1.11225e-06
-1.14226e-06
1.17506e-06
-1.23513e-06
1.24662e-06
1.32562e-06
-1.1475e-09
6.78967e-08
-4.35676e-09
1.82971e-07
-9.39167e-09
2.7977e-07
-1.60198e-08
3.60597e-07
-2.4019e-08
4.27596e-07
-3.31822e-08
4.82745e-07
-4.33219e-08
5.27841e-07
-5.42721e-08
5.64495e-07
-6.58895e-08
5.94136e-07
-7.80533e-08
6.18016e-07
-9.06646e-08
6.37219e-07
-1.03645e-07
6.52678e-07
-1.16934e-07
6.65185e-07
-1.3049e-07
6.75408e-07
-1.44283e-07
6.83906e-07
-1.583e-07
6.91141e-07
-1.72538e-07
6.97494e-07
-1.87005e-07
7.03275e-07
-2.01717e-07
7.08736e-07
-2.167e-07
7.1408e-07
-2.31987e-07
7.19472e-07
-2.47618e-07
7.25041e-07
-2.63641e-07
7.30896e-07
-2.80109e-07
7.3712e-07
-2.97085e-07
7.43787e-07
-3.14637e-07
7.50955e-07
-3.32842e-07
7.58675e-07
-3.51787e-07
7.66992e-07
-3.71567e-07
7.75948e-07
-3.92288e-07
7.85583e-07
-4.14071e-07
7.95939e-07
-4.37049e-07
8.07062e-07
-4.61374e-07
8.19005e-07
-4.87217e-07
8.31841e-07
-5.14776e-07
8.45665e-07
-5.44281e-07
8.60618e-07
-5.76002e-07
8.76903e-07
-6.10261e-07
8.94821e-07
-6.47442e-07
9.14802e-07
-6.88003e-07
9.37446e-07
-7.32486e-07
9.63561e-07
-7.81517e-07
9.94165e-07
-8.3578e-07
1.03046e-06
-8.96057e-07
1.07385e-06
-9.63138e-07
-1.03769e-06
-1.12017e-06
-1.21071e-06
-1.11318e-09
6.90099e-08
-4.24152e-09
1.86099e-07
-9.16414e-09
2.84693e-07
-1.56587e-08
3.67092e-07
-2.35092e-08
4.35447e-07
-3.2512e-08
4.91748e-07
-4.2481e-08
5.3781e-07
-5.32501e-08
5.75264e-07
-6.46751e-08
6.05561e-07
-7.66339e-08
6.29975e-07
-8.90258e-08
6.49611e-07
-1.01771e-07
6.65423e-07
-1.14807e-07
6.78221e-07
-1.28089e-07
6.88691e-07
-1.41589e-07
6.97406e-07
-1.5529e-07
7.04842e-07
-1.69188e-07
7.11392e-07
-1.83289e-07
7.17376e-07
-1.97611e-07
7.23057e-07
-2.12176e-07
7.28646e-07
-2.27018e-07
7.34313e-07
-2.42175e-07
7.40199e-07
-2.57696e-07
7.46416e-07
-2.73632e-07
7.53057e-07
-2.90046e-07
7.60201e-07
-3.07007e-07
7.67915e-07
-3.2459e-07
7.76258e-07
-3.42882e-07
7.85284e-07
-3.61978e-07
7.95044e-07
-3.81986e-07
8.05591e-07
-4.03025e-07
8.16978e-07
-4.25229e-07
8.29266e-07
-4.48751e-07
8.42527e-07
-4.73762e-07
8.56852e-07
-5.00463e-07
8.72365e-07
-5.29082e-07
8.89237e-07
-5.5989e-07
9.07712e-07
-5.93207e-07
9.28138e-07
-6.2941e-07
9.51004e-07
-6.68944e-07
9.7698e-07
-7.12325e-07
1.00694e-06
-7.60139e-07
1.04198e-06
-8.13022e-07
1.08335e-06
1.13253e-06
-1.07949e-09
7.00894e-08
-4.12848e-09
1.89148e-07
-8.94085e-09
2.89505e-07
-1.53038e-08
3.73455e-07
-2.30071e-08
4.4315e-07
-3.185e-08
5.00591e-07
-4.16472e-08
5.47607e-07
-5.22324e-08
5.85849e-07
-6.34601e-08
6.16789e-07
-7.52066e-08
6.41721e-07
-8.73693e-08
6.61774e-07
-9.9866e-08
6.77919e-07
-1.12633e-07
6.90988e-07
-1.25624e-07
7.01682e-07
-1.38808e-07
7.10589e-07
-1.52166e-07
7.18201e-07
-1.65695e-07
7.2492e-07
-1.79399e-07
7.3108e-07
-1.93292e-07
7.3695e-07
-2.07397e-07
7.42751e-07
-2.21747e-07
7.48663e-07
-2.36379e-07
7.54831e-07
-2.51339e-07
7.61376e-07
-2.6668e-07
7.68398e-07
-2.82461e-07
7.75983e-07
-2.98751e-07
7.84205e-07
-3.15625e-07
7.93132e-07
-3.33168e-07
8.02827e-07
-3.51474e-07
8.1335e-07
-3.70649e-07
8.24766e-07
-3.90811e-07
8.3714e-07
-4.12093e-07
8.50548e-07
-4.34645e-07
8.65079e-07
-4.58637e-07
8.80845e-07
-4.84266e-07
8.97994e-07
-5.11759e-07
9.16729e-07
-5.41378e-07
9.37331e-07
-5.73433e-07
9.60193e-07
-6.08287e-07
9.85858e-07
-6.46359e-07
1.01505e-06
-6.88131e-07
1.04871e-06
-7.3414e-07
1.08799e-06
-7.84969e-07
1.13417e-06
1.1888e-06
-1.04697e-09
7.11364e-08
-4.01954e-09
1.9212e-07
-8.72563e-09
2.94211e-07
-1.49613e-08
3.7969e-07
-2.25212e-08
4.5071e-07
-3.1207e-08
5.09277e-07
-4.08339e-08
5.57234e-07
-5.12347e-08
5.9625e-07
-6.22625e-08
6.27817e-07
-7.37915e-08
6.5325e-07
-8.57171e-08
6.73699e-07
-9.79547e-08
6.90157e-07
-1.10439e-07
7.03472e-07
-1.23121e-07
7.14364e-07
-1.35968e-07
7.23436e-07
-1.4896e-07
7.31193e-07
-1.62091e-07
7.38051e-07
-1.75364e-07
7.44353e-07
-1.88792e-07
7.50378e-07
-2.02397e-07
7.56356e-07
-2.16209e-07
7.62475e-07
-2.30264e-07
7.68886e-07
-2.44607e-07
7.75719e-07
-2.59289e-07
7.8308e-07
-2.74368e-07
7.91062e-07
-2.8991e-07
7.99747e-07
-3.05988e-07
8.09211e-07
-3.22687e-07
8.19525e-07
-3.40096e-07
8.3076e-07
-3.5832e-07
8.4299e-07
-3.77473e-07
8.56293e-07
-3.97685e-07
8.7076e-07
-4.19102e-07
8.86496e-07
-4.41889e-07
9.03632e-07
-4.66236e-07
9.22341e-07
-4.92361e-07
9.42854e-07
-5.20517e-07
9.65486e-07
-5.50995e-07
9.90671e-07
-5.84134e-07
1.019e-06
-6.20323e-07
1.05124e-06
-6.59997e-07
1.08839e-06
-7.03638e-07
1.13163e-06
-7.51756e-07
1.18229e-06
1.24191e-06
-1.01623e-09
7.21526e-08
-3.91683e-09
1.95021e-07
-8.52272e-09
2.98817e-07
-1.46378e-08
3.85805e-07
-2.2061e-08
4.58133e-07
-3.05955e-08
5.17811e-07
-4.00562e-08
5.66695e-07
-5.02749e-08
6.06469e-07
-6.11025e-08
6.38644e-07
-7.24111e-08
6.64559e-07
-8.40936e-08
6.85382e-07
-9.60631e-08
7.02127e-07
-1.08252e-07
7.15661e-07
-1.20609e-07
7.26721e-07
-1.331e-07
7.35927e-07
-1.45703e-07
7.43796e-07
-1.58409e-07
7.50758e-07
-1.71221e-07
7.57164e-07
-1.84149e-07
7.63306e-07
-1.97213e-07
7.69421e-07
-2.10442e-07
7.75703e-07
-2.23871e-07
7.82315e-07
-2.37541e-07
7.89389e-07
-2.51502e-07
7.97041e-07
-2.65811e-07
8.0537e-07
-2.80529e-07
8.14466e-07
-2.95729e-07
8.24411e-07
-3.11489e-07
8.35285e-07
-3.27899e-07
8.4717e-07
-3.45057e-07
8.60147e-07
-3.63073e-07
8.74309e-07
-3.82071e-07
8.89758e-07
-4.02191e-07
9.06616e-07
-4.23591e-07
9.25032e-07
-4.4645e-07
9.45201e-07
-4.70974e-07
9.67378e-07
-4.97399e-07
9.91911e-07
-5.25994e-07
1.01927e-06
-5.57067e-07
1.05007e-06
-5.90967e-07
1.08514e-06
-6.28076e-07
1.1255e-06
-6.68805e-07
1.17236e-06
-7.13574e-07
1.22706e-06
1.2911e-06
-9.87941e-10
7.31405e-08
-3.82267e-09
1.97856e-07
-8.33682e-09
3.03332e-07
-1.43409e-08
3.91809e-07
-2.1637e-08
4.65429e-07
-3.00289e-08
5.26203e-07
-3.93308e-08
5.75997e-07
-4.93724e-08
6.1651e-07
-6.00023e-08
6.49274e-07
-7.10901e-08
6.75646e-07
-8.25261e-08
6.96818e-07
-9.42208e-08
7.13821e-07
-1.06104e-07
7.27544e-07
-1.18123e-07
7.3874e-07
-1.3024e-07
7.48044e-07
-1.42432e-07
7.55989e-07
-1.54688e-07
7.63014e-07
-1.67009e-07
7.69485e-07
-1.79403e-07
7.757e-07
-1.91889e-07
7.81907e-07
-2.04492e-07
7.88307e-07
-2.17246e-07
7.95069e-07
-2.30191e-07
8.02334e-07
-2.43372e-07
8.10223e-07
-2.56844e-07
8.18842e-07
-2.70666e-07
8.28288e-07
-2.84906e-07
8.38651e-07
-2.99639e-07
8.50018e-07
-3.14949e-07
8.6248e-07
-3.30929e-07
8.76128e-07
-3.47685e-07
8.91065e-07
-3.65331e-07
9.07405e-07
-3.84e-07
9.25284e-07
-4.03838e-07
9.4487e-07
-4.25013e-07
9.66375e-07
-4.47713e-07
9.90078e-07
-4.72153e-07
1.01635e-06
-4.98575e-07
1.04569e-06
-5.2725e-07
1.07875e-06
-5.58478e-07
1.11637e-06
-5.9258e-07
1.1596e-06
-6.29885e-07
1.20966e-06
-6.7071e-07
1.26789e-06
1.33571e-06
-9.62835e-10
7.41034e-08
-3.73964e-09
2.00633e-07
-8.17312e-09
3.07765e-07
-1.40789e-08
3.97715e-07
-2.12609e-08
4.72611e-07
-2.95225e-08
5.34465e-07
-3.86761e-08
5.8515e-07
-4.85489e-08
6.26383e-07
-5.89868e-08
6.59712e-07
-6.98562e-08
6.86516e-07
-8.10447e-08
7.08006e-07
-9.246e-08
7.25237e-07
-1.04029e-07
7.39113e-07
-1.15698e-07
7.50408e-07
-1.27425e-07
7.59772e-07
-1.39187e-07
7.6775e-07
-1.5097e-07
7.74797e-07
-1.62771e-07
7.81287e-07
-1.746e-07
7.87529e-07
-1.86471e-07
7.93778e-07
-1.98408e-07
8.00244e-07
-2.10442e-07
8.07102e-07
-2.22609e-07
8.14501e-07
-2.34954e-07
8.22568e-07
-2.47527e-07
8.31414e-07
-2.60383e-07
8.41144e-07
-2.73587e-07
8.51854e-07
-2.87207e-07
8.63639e-07
-3.01323e-07
8.76596e-07
-3.16022e-07
8.90827e-07
-3.314e-07
9.06442e-07
-3.47565e-07
9.2357e-07
-3.64637e-07
9.42356e-07
-3.8275e-07
9.62984e-07
-4.02056e-07
9.85682e-07
-4.22725e-07
1.01075e-06
-4.44944e-07
1.03857e-06
-4.68924e-07
1.06967e-06
-4.94894e-07
1.10472e-06
-5.23099e-07
1.14457e-06
-5.53788e-07
1.19029e-06
-5.87205e-07
1.24308e-06
-6.23558e-07
1.30424e-06
1.37514e-06
-9.41722e-10
7.50451e-08
-3.67058e-09
2.03361e-07
-8.03735e-09
3.12132e-07
-1.3861e-08
4.03539e-07
-2.09455e-08
4.79695e-07
-2.90927e-08
5.42612e-07
-3.81123e-08
5.9417e-07
-4.78282e-08
6.36099e-07
-5.80829e-08
6.69967e-07
-6.87395e-08
6.97172e-07
-7.96822e-08
7.18949e-07
-9.08162e-08
7.36371e-07
-1.02066e-07
7.50363e-07
-1.13374e-07
7.61716e-07
-1.24698e-07
7.71096e-07
-1.36012e-07
7.79064e-07
-1.47299e-07
7.86084e-07
-1.58557e-07
7.92544e-07
-1.6979e-07
7.98762e-07
-1.81012e-07
8.05e-07
-1.92244e-07
8.11476e-07
-2.03514e-07
8.18373e-07
-2.14857e-07
8.25844e-07
-2.26313e-07
8.34023e-07
-2.37927e-07
8.43029e-07
-2.49753e-07
8.5297e-07
-2.61848e-07
8.63949e-07
-2.74276e-07
8.76068e-07
-2.87111e-07
8.8943e-07
-3.00431e-07
9.04146e-07
-3.14323e-07
9.20335e-07
-3.28886e-07
9.38133e-07
-3.44227e-07
9.57697e-07
-3.60467e-07
9.79223e-07
-3.77736e-07
1.00295e-06
-3.96184e-07
1.02919e-06
-4.15969e-07
1.05836e-06
-4.37265e-07
1.09096e-06
-4.60255e-07
1.12771e-06
-4.85124e-07
1.16944e-06
-5.12048e-07
1.21721e-06
-5.41177e-07
1.27221e-06
-5.72614e-07
1.33568e-06
1.4089e-06
-9.25495e-10
7.59706e-08
-3.61864e-09
2.06055e-07
-7.93582e-09
3.16449e-07
-1.36971e-08
4.093e-07
-2.07049e-08
4.86703e-07
-2.8758e-08
5.50665e-07
-3.76619e-08
6.03074e-07
-4.72366e-08
6.45674e-07
-5.73204e-08
6.80051e-07
-6.77728e-08
7.07625e-07
-7.84748e-08
7.29651e-07
-8.93282e-08
7.47224e-07
-1.00255e-07
7.6129e-07
-1.11195e-07
7.72656e-07
-1.22105e-07
7.82006e-07
-1.32955e-07
7.89913e-07
-1.43727e-07
7.96857e-07
-1.54417e-07
8.03234e-07
-1.65027e-07
8.09371e-07
-1.75568e-07
8.15541e-07
-1.8606e-07
8.21968e-07
-1.96527e-07
8.2884e-07
-2.07e-07
8.36318e-07
-2.17517e-07
8.4454e-07
-2.28119e-07
8.53631e-07
-2.38853e-07
8.63704e-07
-2.49773e-07
8.74869e-07
-2.60937e-07
8.87232e-07
-2.7241e-07
9.00903e-07
-2.84262e-07
9.15998e-07
-2.96571e-07
9.32645e-07
-3.09424e-07
9.50985e-07
-3.22914e-07
9.71188e-07
-3.37145e-07
9.93454e-07
-3.5223e-07
1.01804e-06
-3.68289e-07
1.04525e-06
-3.85452e-07
1.07552e-06
-4.03855e-07
1.10937e-06
-4.23629e-07
1.14748e-06
-4.44898e-07
1.19071e-06
-4.67761e-07
1.24008e-06
-4.92278e-07
1.29673e-06
-5.1845e-07
1.36185e-06
1.43664e-06
-9.15139e-10
7.68857e-08
-3.58727e-09
2.08727e-07
-7.87554e-09
3.20737e-07
-1.35985e-08
4.15023e-07
-2.05549e-08
4.93659e-07
-2.85383e-08
5.58648e-07
-3.73493e-08
6.11885e-07
-4.68026e-08
6.55127e-07
-5.67318e-08
6.8998e-07
-6.69923e-08
7.17885e-07
-7.74614e-08
7.4012e-07
-8.80378e-08
7.57801e-07
-9.86409e-08
7.71893e-07
-1.09208e-07
7.83223e-07
-1.19694e-07
7.92491e-07
-1.30066e-07
8.00286e-07
-1.40307e-07
8.07098e-07
-1.50407e-07
8.13334e-07
-1.60369e-07
8.19333e-07
-1.702e-07
8.25373e-07
-1.79918e-07
8.31686e-07
-1.89545e-07
8.38466e-07
-1.99107e-07
8.45881e-07
-2.0864e-07
8.54072e-07
-2.18179e-07
8.6317e-07
-2.27768e-07
8.73293e-07
-2.37453e-07
8.84554e-07
-2.47287e-07
8.97065e-07
-2.57326e-07
9.10942e-07
-2.67631e-07
9.26304e-07
-2.78271e-07
9.43285e-07
-2.89319e-07
9.62033e-07
-3.00853e-07
9.82722e-07
-3.1296e-07
1.00556e-06
-3.25731e-07
1.03081e-06
-3.3926e-07
1.05878e-06
-3.53644e-07
1.0899e-06
-3.68978e-07
1.1247e-06
-3.85343e-07
1.16385e-06
-4.028e-07
1.20817e-06
-4.21375e-07
1.25865e-06
-4.41038e-07
1.31639e-06
-4.61695e-07
1.3825e-06
1.45811e-06
-9.11748e-10
7.77975e-08
-3.58032e-09
2.11395e-07
-7.86422e-09
3.25021e-07
-1.35775e-08
4.20737e-07
-2.05124e-08
5.00594e-07
-2.84559e-08
5.66592e-07
-3.72014e-08
6.2063e-07
-4.65575e-08
6.64483e-07
-5.63525e-08
6.99775e-07
-6.6437e-08
7.2797e-07
-7.66844e-08
7.50367e-07
-8.69905e-08
7.68107e-07
-9.72718e-08
7.82174e-07
-1.07464e-07
7.93415e-07
-1.17518e-07
8.02546e-07
-1.27402e-07
8.1017e-07
-1.37095e-07
8.16791e-07
-1.46587e-07
8.22826e-07
-1.55877e-07
8.28623e-07
-1.64972e-07
8.34468e-07
-1.73886e-07
8.406e-07
-1.82639e-07
8.47219e-07
-1.91254e-07
8.54496e-07
-1.99761e-07
8.62579e-07
-2.08193e-07
8.71602e-07
-2.16587e-07
8.81687e-07
-2.24985e-07
8.92951e-07
-2.3343e-07
9.05511e-07
-2.41972e-07
9.19484e-07
-2.50663e-07
9.34995e-07
-2.5956e-07
9.52181e-07
-2.68721e-07
9.71194e-07
-2.78211e-07
9.92213e-07
-2.88098e-07
1.01545e-06
-2.98449e-07
1.04116e-06
-3.09333e-07
1.06967e-06
-3.20813e-07
1.10138e-06
-3.32941e-07
1.13683e-06
-3.45751e-07
1.17666e-06
-3.59243e-07
1.22166e-06
-3.73369e-07
1.27278e-06
-3.88021e-07
1.33104e-06
-4.03015e-07
1.3975e-06
1.47317e-06
-9.16545e-10
7.8714e-08
-3.60208e-09
2.14081e-07
-7.91046e-09
3.29329e-07
-1.36477e-08
4.26474e-07
-2.05967e-08
5.07543e-07
-2.8535e-08
5.7453e-07
-3.72477e-08
6.29343e-07
-4.65357e-08
6.73771e-07
-5.62212e-08
7.09461e-07
-6.61494e-08
7.37898e-07
-7.61899e-08
7.60408e-07
-8.62352e-08
7.78152e-07
-9.61991e-08
7.92138e-07
-1.06015e-07
8.03231e-07
-1.15634e-07
8.12165e-07
-1.2502e-07
8.19557e-07
-1.34153e-07
8.25923e-07
-1.43019e-07
8.31693e-07
-1.51617e-07
8.37221e-07
-1.59952e-07
8.42803e-07
-1.68036e-07
8.48683e-07
-1.75884e-07
8.55067e-07
-1.83518e-07
8.6213e-07
-1.90963e-07
8.70024e-07
-1.98248e-07
8.78887e-07
-2.05405e-07
8.88844e-07
-2.12469e-07
9.00015e-07
-2.19476e-07
9.12519e-07
-2.26469e-07
9.26476e-07
-2.33488e-07
9.42014e-07
-2.40579e-07
9.59272e-07
-2.47788e-07
9.78404e-07
-2.55164e-07
9.99588e-07
-2.62754e-07
1.02304e-06
-2.70604e-07
1.04901e-06
-2.78755e-07
1.07782e-06
-2.87239e-07
1.10987e-06
-2.96066e-07
1.14566e-06
-3.05223e-07
1.18581e-06
-3.14652e-07
1.23109e-06
-3.24241e-07
1.28237e-06
-3.33806e-07
1.34061e-06
-3.43086e-07
1.40678e-06
1.48181e-06
-9.30903e-10
7.96449e-08
-3.65734e-09
2.16807e-07
-8.02385e-09
3.33696e-07
-1.38242e-08
4.32274e-07
-2.08286e-08
5.14548e-07
-2.88026e-08
5.82504e-07
-3.75206e-08
6.38061e-07
-4.67747e-08
6.83025e-07
-5.63798e-08
7.19066e-07
-6.61757e-08
7.47694e-07
-7.60275e-08
7.7026e-07
-8.58245e-08
7.87949e-07
-9.54784e-08
8.01792e-07
-1.04921e-07
8.12674e-07
-1.14101e-07
8.21345e-07
-1.22983e-07
8.28438e-07
-1.31543e-07
8.34483e-07
-1.39769e-07
8.39919e-07
-1.47657e-07
8.45109e-07
-1.55211e-07
8.50357e-07
-1.6244e-07
8.55911e-07
-1.69357e-07
8.61984e-07
-1.75981e-07
8.68754e-07
-1.82332e-07
8.76376e-07
-1.88436e-07
8.84991e-07
-1.94319e-07
8.94727e-07
-2.0001e-07
9.05705e-07
-2.05539e-07
9.18048e-07
-2.10938e-07
9.31875e-07
-2.1624e-07
9.47316e-07
-2.21478e-07
9.6451e-07
-2.26685e-07
9.83611e-07
-2.31892e-07
1.0048e-06
-2.3713e-07
1.02827e-06
-2.42422e-07
1.0543e-06
-2.47783e-07
1.08318e-06
-2.53212e-07
1.1153e-06
-2.58682e-07
1.15113e-06
-2.64136e-07
1.19127e-06
-2.69462e-07
1.23641e-06
-2.74491e-07
1.28739e-06
-2.78974e-07
1.34509e-06
-2.82582e-07
1.41039e-06
1.48413e-06
-9.56381e-10
8.06013e-08
-3.7515e-09
2.19602e-07
-8.21514e-09
3.3816e-07
-1.4124e-08
4.38183e-07
-2.12317e-08
5.21655e-07
-2.92885e-08
5.90561e-07
-3.8056e-08
6.46829e-07
-4.73158e-08
6.92285e-07
-5.68747e-08
7.28624e-07
-6.65662e-08
7.57385e-07
-7.6251e-08
7.79944e-07
-8.58153e-08
7.97513e-07
-9.51688e-08
8.11146e-07
-1.04242e-07
8.21747e-07
-1.12982e-07
8.30085e-07
-1.21354e-07
8.3681e-07
-1.29333e-07
8.42462e-07
-1.36907e-07
8.47492e-07
-1.44069e-07
8.52272e-07
-1.50822e-07
8.5711e-07
-1.57175e-07
8.62264e-07
-1.63137e-07
8.67947e-07
-1.68725e-07
8.74342e-07
-1.73957e-07
8.81608e-07
-1.78851e-07
8.89885e-07
-1.8343e-07
8.99305e-07
-1.87716e-07
9.09991e-07
-1.91734e-07
9.22065e-07
-1.95506e-07
9.35648e-07
-1.99057e-07
9.50867e-07
-2.02407e-07
9.6786e-07
-2.05576e-07
9.8678e-07
-2.08581e-07
1.0078e-06
-2.11432e-07
1.03113e-06
-2.14134e-07
1.057e-06
-2.16674e-07
1.08572e-06
-2.19022e-07
1.11764e-06
-2.21119e-07
1.15323e-06
-2.22864e-07
1.19301e-06
-2.24103e-07
1.23765e-06
-2.24612e-07
1.2879e-06
-2.2409e-07
1.34457e-06
-2.22151e-07
1.40845e-06
1.4803e-06
-9.94769e-10
8.15961e-08
-3.89068e-09
2.22498e-07
-8.49642e-09
3.42765e-07
-1.45662e-08
4.44253e-07
-2.1832e-08
5.28921e-07
-3.00258e-08
5.98755e-07
-3.88934e-08
6.55696e-07
-4.82044e-08
7.01596e-07
-5.77561e-08
7.38176e-07
-6.73754e-08
7.67005e-07
-7.69185e-08
7.89487e-07
-8.62688e-08
8.06863e-07
-9.5334e-08
8.20211e-07
-1.04044e-07
8.30456e-07
-1.12346e-07
8.38388e-07
-1.20204e-07
8.44668e-07
-1.27595e-07
8.49853e-07
-1.34503e-07
8.54401e-07
-1.40925e-07
8.58694e-07
-1.46862e-07
8.63047e-07
-1.52319e-07
8.67721e-07
-1.57307e-07
8.72935e-07
-1.61838e-07
8.78873e-07
-1.65927e-07
8.85697e-07
-1.69589e-07
8.93547e-07
-1.72839e-07
9.02556e-07
-1.75697e-07
9.12849e-07
-1.78179e-07
9.24548e-07
-1.80302e-07
9.37771e-07
-1.82078e-07
9.52643e-07
-1.83519e-07
9.693e-07
-1.8463e-07
9.87891e-07
-1.85414e-07
1.00859e-06
-1.85866e-07
1.03158e-06
-1.85967e-07
1.0571e-06
-1.85683e-07
1.08543e-06
-1.84958e-07
1.11692e-06
-1.83701e-07
1.15197e-06
-1.81776e-07
1.19109e-06
-1.7899e-07
1.23487e-06
-1.75078e-07
1.28399e-06
-1.69692e-07
1.33919e-06
-1.62404e-07
1.40116e-06
1.4706e-06
-1.04811e-09
8.26442e-08
-4.0818e-09
2.25532e-07
-8.88135e-09
3.47565e-07
-1.51719e-08
4.50543e-07
-2.2659e-08
5.36408e-07
-3.10515e-08
6.07147e-07
-4.00771e-08
6.64722e-07
-4.94909e-08
7.1101e-07
-5.90797e-08
7.47765e-07
-6.86635e-08
7.76589e-07
-7.80937e-08
7.98918e-07
-8.7251e-08
8.16021e-07
-9.60424e-08
8.29002e-07
-1.04397e-07
8.38811e-07
-1.12263e-07
8.46254e-07
-1.19606e-07
8.5201e-07
-1.264e-07
8.56647e-07
-1.32635e-07
8.60635e-07
-1.38304e-07
8.64363e-07
-1.43409e-07
8.68152e-07
-1.47955e-07
8.72267e-07
-1.51951e-07
8.76931e-07
-1.55408e-07
8.8233e-07
-1.58336e-07
8.88625e-07
-1.60747e-07
8.95958e-07
-1.62652e-07
9.0446e-07
-1.64064e-07
9.14262e-07
-1.64997e-07
9.2548e-07
-1.65457e-07
9.38231e-07
-1.65448e-07
9.52634e-07
-1.6497e-07
9.68822e-07
-1.64019e-07
9.8694e-07
-1.62582e-07
1.00715e-06
-1.60638e-07
1.02963e-06
-1.58152e-07
1.05462e-06
-1.55068e-07
1.08235e-06
-1.51306e-07
1.11316e-06
-1.46748e-07
1.14741e-06
-1.4123e-07
1.18557e-06
-1.34526e-07
1.22816e-06
-1.26338e-07
1.2758e-06
-1.16285e-07
1.32913e-06
-1.03904e-07
1.38878e-06
1.45535e-06
-1.11846e-09
8.37626e-08
-4.33234e-09
2.28746e-07
-9.38508e-09
3.52618e-07
-1.59653e-08
4.57124e-07
-2.37456e-08
5.44189e-07
-3.24075e-08
6.15809e-07
-4.16565e-08
6.73971e-07
-5.12314e-08
7.20585e-07
-6.09074e-08
7.57441e-07
-7.04966e-08
7.86178e-07
-7.98461e-08
8.08267e-07
-8.88345e-08
8.25009e-07
-9.73682e-08
8.37536e-07
-1.05377e-07
8.4682e-07
-1.12811e-07
8.53688e-07
-1.19636e-07
8.58835e-07
-1.25829e-07
8.62841e-07
-1.31381e-07
8.66187e-07
-1.36286e-07
8.69268e-07
-1.40546e-07
8.72412e-07