/*--------------------------------*- C++ -*----------------------------------*\
  =========                 |
  \\      /  F ield         | OpenFOAM: The Open Source CFD Toolbox
   \\    /   O peration     | Website:  https://openfoam.org
    \\  /    A nd           | Version:  9
     \\/     M anipulation  |
\*---------------------------------------------------------------------------*/
FoamFile
{
    format      ascii;
    class       volVectorField;
    location    "0.5";
    object      U;
}
// * * * * * * * * * * * * * * * * * * * * * * * * * * * * * * * * * * * * * //

dimensions      [0 1 -1 0 0 0 0];

internalField   nonuniform List<vector> 
1250
(
(-4.13043e-05 0.00528026 0)
(-0.000283498 0.0141598 0)
(-4.05253e-05 0.00542598 0)
(-0.000279453 0.0145528 0)
(-0.000784052 0.0221742 0)
(-0.00148099 0.0284934 0)
(-0.00233497 0.0336968 0)
(-0.00332204 0.0379524 0)
(-0.00441981 0.0414102 0)
(-0.00560899 0.0442018 0)
(-0.0068737 0.046442 0)
(-0.00820102 0.0482295 0)
(-0.00958062 0.0496486 0)
(-0.0110044 0.0507705 0)
(-0.0124663 0.051655 0)
(-0.0139619 0.0523516 0)
(-0.0154882 0.0529013 0)
(-0.0170434 0.053337 0)
(-0.018627 0.0536855 0)
(-0.0202391 0.0539678 0)
(-0.0218805 0.0542004 0)
(-0.023553 0.0543959 0)
(-0.0252586 0.0545635 0)
(-0.027 0.05471 0)
(-0.0287802 0.0548397 0)
(-0.0306026 0.0549554 0)
(-0.0324713 0.0550582 0)
(-0.0343904 0.0551481 0)
(-0.0363647 0.0552245 0)
(-0.0383985 0.0552857 0)
(-0.0404972 0.0553302 0)
(-0.0426648 0.0553513 0)
(-0.0449069 0.0553419 0)
(-0.0472304 0.0552966 0)
(-0.0496412 0.055209 0)
(-0.0521477 0.0550743 0)
(-3.96889e-05 0.00556926 0)
(-0.000275028 0.0149411 0)
(-0.000773229 0.02277 0)
(-0.00146254 0.0292641 0)
(-0.00230839 0.0346138 0)
(-0.00328718 0.0389914 0)
(-0.00437679 0.0425503 0)
(-0.00555803 0.0454256 0)
(-0.00681512 0.047735 0)
(-0.00813514 0.0495801 0)
(-0.00950775 0.0510476 0)
(-0.0109249 0.0522109 0)
(-0.0123804 0.0531315 0)
(-0.0138699 0.0538606 0)
(-0.0153905 0.0544403 0)
(-0.0169404 0.0549049 0)
(-0.0185191 0.055282 0)
(-0.0201269 0.0555937 0)
(-0.0217647 0.055857 0)
(-0.0234345 0.0560851 0)
(-0.0251384 0.0562878 0)
(-0.0268793 0.0564723 0)
(-0.0286605 0.0566435 0)
(-0.030486 0.0568045 0)
(-0.0323597 0.0569568 0)
(-0.0342864 0.057101 0)
(-0.0362712 0.0572365 0)
(-0.0383191 0.0573622 0)
(-0.0404352 0.0574753 0)
(-0.0426247 0.0575704 0)
(-0.0448943 0.057642 0)
(-0.0472514 0.0576847 0)
(-0.0497036 0.0576929 0)
(-0.0522576 0.0576591 0)
(-0.0549247 0.0575792 0)
(-0.0577115 0.0574426 0)
(-0.0606291 0.0572416 0)
(-0.0636893 0.0569689 0)
(-0.0669055 0.0566189 0)
(-0.0702942 0.0561886 0)
(-0.0738761 0.0556798 0)
(-0.0776756 0.0551006 0)
(-0.0817315 0.0544729 0)
(-3.88818e-05 0.00571009 0)
(-0.000270404 0.0153236 0)
(-0.000761606 0.0233583 0)
(-0.00144248 0.0300263 0)
(-0.00227922 0.035522 0)
(-0.00324866 0.0400214 0)
(-0.00432892 0.0436814 0)
(-0.00550098 0.0466406 0)
(-0.00674909 0.0490196 0)
(-0.00806038 0.0509227 0)
(-0.00942448 0.0524389 0)
(-0.0108333 0.0536437 0)
(-0.0122807 0.0546006 0)
(-0.0137622 0.0553624 0)
(-0.015275 0.0559725 0)
(-0.0168174 0.0564663 0)
(-0.0183888 0.0568726 0)
(-0.0199897 0.0572141 0)
(-0.0216211 0.0575087 0)
(-0.0232849 0.0577702 0)
(-0.0249838 0.0580091 0)
(-0.0267207 0.0582329 0)
(-0.0284991 0.0584471 0)
(-0.0303233 0.0586553 0)
(-0.0321976 0.0588594 0)
(-0.034127 0.0590603 0)
(-0.0361169 0.0592577 0)
(-0.0381728 0.0594507 0)
(-0.0403003 0.0596366 0)
(-0.0425057 0.059811 0)
(-0.0447964 0.0599693 0)
(-0.0471805 0.0601066 0)
(-0.0496665 0.0602176 0)
(-0.0522636 0.0602966 0)
(-0.054981 0.0603369 0)
(-0.0578304 0.0603321 0)
(-0.0608239 0.0602752 0)
(-0.0639756 0.0601604 0)
(-0.067302 0.0599849 0)
(-0.0708234 0.0597497 0)
(-0.0745652 0.0594621 0)
(-0.0785595 0.0591385 0)
(-0.0828451 0.0588054 0)
(-0.0874813 0.0585093 0)
(-0.0925272 0.0583024 0)
(-0.0980651 0.0582551 0)
(-0.104187 0.0584447 0)
(-0.110982 0.0589459 0)
(-0.118568 0.0598381 0)
(-3.80409e-05 0.00584843 0)
(-0.000265527 0.0157002 0)
(-0.000749202 0.0239385 0)
(-0.00142086 0.0307791 0)
(-0.00224756 0.0364202 0)
(-0.00320656 0.0410411 0)
(-0.00427628 0.0448024 0)
(-0.00543786 0.0478456 0)
(-0.00667562 0.0502943 0)
(-0.00797668 0.0522554 0)
(-0.00933066 0.0538204 0)
(-0.0107294 0.055067 0)
(-0.0121668 0.0560603 0)
(-0.0136383 0.0568548 0)
(-0.0151411 0.0574954 0)
(-0.0166736 0.0580186 0)
(-0.0182351 0.0584542 0)
(-0.0198261 0.0588258 0)
(-0.0214479 0.0591522 0)
(-0.0231026 0.0594477 0)
(-0.0247928 0.0597234 0)
(-0.0265216 0.0599876 0)
(-0.028293 0.060246 0)
(-0.0301112 0.0605028 0)
(-0.0319809 0.0607604 0)
(-0.0339075 0.0610201 0)
(-0.0358966 0.0612821 0)
(-0.0379542 0.0615454 0)
(-0.0400866 0.0618079 0)
(-0.0423009 0.0620663 0)
(-0.0446052 0.0623165 0)
(-0.0470084 0.0625545 0)
(-0.04952 0.0627755 0)
(-0.0521504 0.0629748 0)
(-0.0549107 0.063147 0)
(-0.0578135 0.0632863 0)
(-0.060873 0.0633876 0)
(-0.0641059 0.0634479 0)
(-0.0675321 0.0634676 0)
(-0.0711757 0.0634526 0)
(-0.0750672 0.0634167 0)
(-0.0792452 0.0633852 0)
(-0.0837577 0.0633973 0)
(-0.0886653 0.0635066 0)
(-0.0940445 0.0637842 0)
(-0.099984 0.0643118 0)
(-0.106583 0.0651755 0)
(-0.113937 0.0664518 0)
(-0.122157 0.0682124 0)
(-3.71334e-05 0.00598412 0)
(-0.000260307 0.0160704 0)
(-0.000735929 0.02451 0)
(-0.00139765 0.031522 0)
(-0.00221342 0.0373077 0)
(-0.00316098 0.04205 0)
(-0.00421904 0.0459124 0)
(-0.00536891 0.0490396 0)
(-0.00659497 0.0515581 0)
(-0.00788434 0.0535774 0)
(-0.0092266 0.0551913 0)
(-0.0106136 0.0564795 0)
(-0.012039 0.0575092 0)
(-0.0134985 0.0583364 0)
(-0.014989 0.0590073 0)
(-0.0165089 0.0595599 0)
(-0.0180578 0.0600248 0)
(-0.0196361 0.0604266 0)
(-0.0212451 0.0607848 0)
(-0.0228871 0.0611147 0)
(-0.0245646 0.0614277 0)
(-0.0262813 0.0617328 0)
(-0.0280409 0.0620363 0)
(-0.0298481 0.0623428 0)
(-0.0317079 0.0626553 0)
(-0.0336257 0.0629755 0)
(-0.0356077 0.063304 0)
(-0.0376602 0.0636403 0)
(-0.0397903 0.0639828 0)
(-0.0420058 0.0643292 0)
(-0.0443154 0.0646763 0)
(-0.0467287 0.0650208 0)
(-0.0492563 0.0653588 0)
(-0.0519096 0.0656863 0)
(-0.0547012 0.0659994 0)
(-0.0576454 0.066294 0)
(-0.0607584 0.0665673 0)
(-0.0640595 0.0668193 0)
(-0.0675717 0.0670546 0)
(-0.0713233 0.0672846 0)
(-0.0753494 0.067531 0)
(-0.0796946 0.0678286 0)
(-0.0844145 0.0682285 0)
(-0.0895774 0.0687987 0)
(-0.095266 0.0696227 0)
(-0.101577 0.0707938 0)
(-0.108613 0.0724045 0)
(-0.11647 0.0745288 0)
(-0.125254 0.0772262 0)
(-3.61622e-05 0.00611694 0)
(-0.000254748 0.016434 0)
(-0.000721806 0.0250724 0)
(-0.00137293 0.0322541 0)
(-0.00217697 0.0381837 0)
(-0.00311215 0.0430468 0)
(-0.0041575 0.0470102 0)
(-0.00529449 0.0502214 0)
(-0.00650756 0.0528096 0)
(-0.00778381 0.0548869 0)
(-0.00911277 0.0565496 0)
(-0.0104862 0.0578793 0)
(-0.0118978 0.0589452 0)
(-0.0133431 0.0598047 0)
(-0.014819 0.0605058 0)
(-0.0163239 0.0610874 0)
(-0.0178573 0.0615813 0)
(-0.0194198 0.0620131 0)
(-0.0210126 0.0624031 0)
(-0.0226381 0.0627671 0)
(-0.0242991 0.0631176 0)
(-0.025999 0.0634638 0)
(-0.0277421 0.0638128 0)
(-0.029533 0.0641697 0)
(-0.0313771 0.064538 0)
(-0.03328 0.0649199 0)
(-0.0352481 0.0653165 0)
(-0.0372883 0.0657279 0)
(-0.0394082 0.0661533 0)
(-0.0416163 0.0665912 0)
(-0.0439219 0.0670393 0)
(-0.0463354 0.0674952 0)
(-0.0488681 0.0679562 0)
(-0.0515326 0.0684195 0)
(-0.0543429 0.0688823 0)
(-0.0573148 0.0693429 0)
(-0.0604666 0.0698012 0)
(-0.0638201 0.0702607 0)
(-0.0674013 0.0707309 0)
(-0.0712423 0.0712299 0)
(-0.0753829 0.0717876 0)
(-0.0798728 0.0724496 0)
(-0.0847736 0.0732793 0)
(-0.0901599 0.0743583 0)
(-0.09612 0.0757831 0)
(-0.102754 0.0776563 0)
(-0.110167 0.0800731 0)
(-0.11845 0.0830995 0)
(-0.127699 0.0867761 0)
(-3.51375e-05 0.00624673 0)
(-0.00024889 0.0167904 0)
(-0.00070692 0.0256249 0)
(-0.00134683 0.0329748 0)
(-0.00213842 0.0390471 0)
(-0.00306038 0.0440306 0)
(-0.00409205 0.0480947 0)
(-0.00521507 0.0513896 0)
(-0.00641391 0.0540474 0)
(-0.00767566 0.0561825 0)
(-0.0089898 0.0578936 0)
(-0.010348 0.0592645 0)
(-0.0117438 0.0603661 0)
(-0.0131728 0.0612576 0)
(-0.0146318 0.0619881 0)
(-0.0161191 0.0625982 0)
(-0.0176342 0.0631206 0)
(-0.0191776 0.0635819 0)
(-0.0207508 0.0640032 0)
(-0.022356 0.064401 0)
(-0.0239961 0.0647886 0)
(-0.0256747 0.0651758 0)
(-0.0273962 0.0655703 0)
(-0.0291654 0.0659777 0)
(-0.0309876 0.0664022 0)
(-0.032869 0.0668465 0)
(-0.0348161 0.0673123 0)
(-0.0368363 0.0678004 0)
(-0.0389377 0.0683108 0)
(-0.0411292 0.0688428 0)
(-0.0434207 0.0693953 0)
(-0.0458233 0.0699669 0)
(-0.0483493 0.0705559 0)
(-0.051012 0.0711611 0)
(-0.0538267 0.0717815 0)
(-0.0568109 0.0724176 0)
(-0.0599847 0.0730725 0)
(-0.0633721 0.0737539 0)
(-0.067002 0.0744768 0)
(-0.0709099 0.0752663 0)
(-0.0751395 0.0761618 0)
(-0.0797449 0.0772198 0)
(-0.0847923 0.0785162 0)
(-0.0903608 0.080146 0)
(-0.0965421 0.082217 0)
(-0.103437 0.0848388 0)
(-0.111148 0.0881045 0)
(-0.119759 0.0920663 0)
(-0.12935 0.0967385 0)
(-3.40687e-05 0.00637334 0)
(-0.000242782 0.0171393 0)
(-0.00069139 0.026167 0)
(-0.00131957 0.0336833 0)
(-0.00209807 0.0398974 0)
(-0.00300606 0.0450005 0)
(-0.00402319 0.0491648 0)
(-0.00513123 0.0525431 0)
(-0.00631471 0.0552701 0)
(-0.00756067 0.0574628 0)
(-0.0088585 0.0592218 0)
(-0.0101998 0.0606333 0)
(-0.011578 0.0617699 0)
(-0.0129886 0.0626926 0)
(-0.0144282 0.063452 0)
(-0.0158953 0.0640897 0)
(-0.0173892 0.0646398 0)
(-0.0189104 0.0651297 0)
(-0.0204603 0.0655814 0)
(-0.0220413 0.0660123 0)
(-0.0236562 0.0664363 0)
(-0.0253088 0.0668639 0)
(-0.0270034 0.0673034 0)
(-0.028745 0.067761 0)
(-0.0305391 0.0682415 0)
(-0.0323921 0.0687483 0)
(-0.0343108 0.0692838 0)
(-0.0363029 0.0698494 0)
(-0.0383767 0.0704461 0)
(-0.0405418 0.0710741 0)
(-0.0428085 0.0717334 0)
(-0.0451885 0.0724237 0)
(-0.0476946 0.0731448 0)
(-0.0503414 0.0738969 0)
(-0.053145 0.0746812 0)
(-0.0561243 0.0755009 0)
(-0.0593012 0.0763624 0)
(-0.0627015 0.0772781 0)
(-0.0663566 0.0782689 0)
(-0.0703048 0.0793677 0)
(-0.0745929 0.0806232 0)
(-0.0792784 0.0821034 0)
(-0.0844304 0.0838967 0)
(-0.0901303 0.0861099 0)
(-0.0964703 0.0888607 0)
(-0.10355 0.0922618 0)
(-0.111464 0.0963999 0)
(-0.120286 0.101307 0)
(-0.130076 0.106964 0)
(-3.2966e-05 0.00649664 0)
(-0.000236479 0.0174804 0)
(-0.000675355 0.0266985 0)
(-0.00129139 0.0343791 0)
(-0.00205628 0.0407338 0)
(-0.00294968 0.0459558 0)
(-0.00395152 0.0502197 0)
(-0.00504371 0.053681 0)
(-0.00621079 0.0564767 0)
(-0.00743974 0.0587263 0)
(-0.00871988 0.0605327 0)
(-0.0100426 0.061984 0)
(-0.0114015 0.0631548 0)
(-0.0127915 0.0641077 0)
(-0.0142096 0.0648949 0)
(-0.0156538 0.0655591 0)
(-0.0171235 0.0661357 0)
(-0.0186192 0.066653 0)
(-0.0201423 0.067134 0)
(-0.0216949 0.0675969 0)
(-0.0232802 0.0680561 0)
(-0.0249019 0.068523 0)
(-0.0265642 0.0690065 0)
(-0.0282724 0.0695135 0)
(-0.030032 0.0700493 0)
(-0.0318495 0.0706181 0)
(-0.033732 0.071223 0)
(-0.0356873 0.0718663 0)
(-0.0377243 0.0725497 0)
(-0.0398526 0.0732746 0)
(-0.0420831 0.074042 0)
(-0.0444279 0.0748529 0)
(-0.0469004 0.0757087 0)
(-0.0495159 0.0766114 0)
(-0.0522915 0.0775644 0)
(-0.0552472 0.0785737 0)
(-0.0584061 0.0796497 0)
(-0.0617959 0.0808096 0)
(-0.0654497 0.0820804 0)
(-0.0694079 0.0835032 0)
(-0.0737195 0.0851363 0)
(-0.0784438 0.0870585 0)
(-0.0836511 0.0893699 0)
(-0.0894225 0.0921883 0)
(-0.0958484 0.0956383 0)
(-0.103023 0.0998325 0)
(-0.111032 0.104846 0)
(-0.119934 0.110685 0)
(-0.129769 0.11729 0)
(-3.18406e-05 0.00661656 0)
(-0.000230048 0.0178135 0)
(-0.000658982 0.0272188 0)
(-0.00126259 0.035062 0)
(-0.00201349 0.0415559 0)
(-0.00289181 0.0468959 0)
(-0.00387776 0.0512587 0)
(-0.00495335 0.0548023 0)
(-0.00610312 0.0576661 0)
(-0.00731399 0.0599718 0)
(-0.00857513 0.0618247 0)
(-0.00987787 0.0633148 0)
(-0.0112155 0.0645187 0)
(-0.012583 0.0655007 0)
(-0.0139772 0.0663142 0)
(-0.0153959 0.0670037 0)
(-0.0168386 0.0676052 0)
(-0.0183055 0.0681485 0)
(-0.0197981 0.0686571 0)
(-0.0213184 0.0691503 0)
(-0.0228696 0.0696432 0)
(-0.0244553 0.0701478 0)
(-0.0260799 0.0706738 0)
(-0.0277486 0.0712288 0)
(-0.0294671 0.0718186 0)
(-0.0312418 0.0724483 0)
(-0.03308 0.0731216 0)
(-0.0349898 0.0738417 0)
(-0.0369801 0.0746114 0)
(-0.0390609 0.0754329 0)
(-0.0412433 0.0763087 0)
(-0.0435397 0.077241 0)
(-0.045964 0.0782328 0)
(-0.0485321 0.079288 0)
(-0.0512617 0.0804126 0)
(-0.0541735 0.0816156 0)
(-0.0572919 0.0829113 0)
(-0.0606455 0.084322 0)
(-0.0642687 0.0858814 0)
(-0.0682031 0.0876383 0)
(-0.0724988 0.0896604 0)
(-0.0772155 0.0920369 0)
(-0.0824223 0.0948782 0)
(-0.0881976 0.0983111 0)
(-0.0946274 0.102465 0)
(-0.101799 0.107447 0)
(-0.109785 0.113318 0)
(-0.11863 0.120052 0)
(-0.12835 0.127546 0)
(-3.07049e-05 0.00673303 0)
(-0.000223562 0.0181385 0)
(-0.000642465 0.027728 0)
(-0.00123349 0.0357315 0)
(-0.00197019 0.0423632 0)
(-0.00283313 0.0478202 0)
(-0.00380275 0.0522812 0)
(-0.00486115 0.0559063 0)
(-0.00599286 0.0588373 0)
(-0.00718469 0.0611982 0)
(-0.00842567 0.0630965 0)
(-0.00970698 0.0646243 0)
(-0.0110217 0.0658599 0)
(-0.0123649 0.0668694 0)
(-0.0137328 0.0677077 0)
(-0.0151236 0.0684205 0)
(-0.0165363 0.0690453 0)
(-0.0179712 0.0696125 0)
(-0.0194296 0.0701469 0)
(-0.0209136 0.0706684 0)
(-0.0224261 0.0711929 0)
(-0.0239709 0.0717333 0)
(-0.0255523 0.0722997 0)
(-0.0271754 0.0729006 0)
(-0.0288459 0.0735425 0)
(-0.0305705 0.0742311 0)
(-0.0323563 0.074971 0)
(-0.0342114 0.0757663 0)
(-0.0361451 0.0766208 0)
(-0.0381672 0.0775377 0)
(-0.0402892 0.0785208 0)
(-0.0425236 0.0795737 0)
(-0.0448846 0.0807012 0)
(-0.0473883 0.0819092 0)
(-0.0500529 0.083206 0)
(-0.0528996 0.0846042 0)
(-0.0559533 0.086122 0)
(-0.0592431 0.0877869 0)
(-0.062804 0.0896389 0)
(-0.0666778 0.0917345 0)
(-0.0709144 0.0941504 0)
(-0.0755721 0.0969848 0)
(-0.0807163 0.100356 0)
(-0.0864204 0.104398 0)
(-0.0927667 0.109244 0)
(-0.099831 0.114994 0)
(-0.107674 0.121684 0)
(-0.116322 0.129258 0)
(-0.125771 0.137563 0)
(-2.95728e-05 0.00684606 0)
(-0.000217106 0.0184553 0)
(-0.00062602 0.0282258 0)
(-0.00120449 0.0363876 0)
(-0.00192697 0.0431557 0)
(-0.0027744 0.0487285 0)
(-0.00372744 0.0532867 0)
(-0.00476827 0.0569924 0)
(-0.00588133 0.0599896 0)
(-0.00705333 0.0624046 0)
(-0.00827314 0.0643469 0)
(-0.00953175 0.0659109 0)
(-0.0108221 0.0671766 0)
(-0.012139 0.0682118 0)
(-0.0134786 0.0690729 0)
(-0.0148389 0.0698071 0)
(-0.0162188 0.0704528 0)
(-0.0176185 0.0710417 0)
(-0.0190391 0.0715995 0)
(-0.0204827 0.0721468 0)
(-0.0219521 0.0727005 0)
(-0.023451 0.073274 0)
(-0.0249836 0.0738783 0)
(-0.026555 0.0745224 0)
(-0.0281709 0.0752137 0)
(-0.0298377 0.0759586 0)
(-0.0315628 0.0767626 0)
(-0.0333543 0.0776305 0)
(-0.0352211 0.0785672 0)
(-0.0371734 0.0795771 0)
(-0.0392225 0.0806651 0)
(-0.041381 0.0818365 0)
(-0.0436631 0.0830976 0)
(-0.0460849 0.0844565 0)
(-0.048665 0.0859242 0)
(-0.0514244 0.0875163 0)
(-0.0543881 0.0892552 0)
(-0.0575852 0.0911735 0)
(-0.0610503 0.0933171 0)
(-0.0648241 0.0957498 0)
(-0.068955 0.098556 0)
(-0.073498 0.101841 0)
(-0.0785126 0.105728 0)
(-0.0840699 0.110363 0)
(-2.84596e-05 0.00695567 0)
(-0.000210773 0.0187641 0)
(-0.000609894 0.0287125 0)
(-0.00117603 0.0370304 0)
(-0.00188446 0.0439333 0)
(-0.00271649 0.0496208 0)
(-0.00365294 0.054275 0)
(-0.004676 0.0580601 0)
(-0.00577004 0.0611223 0)
(-0.0069216 0.06359 0)
(-0.00811938 0.0655749 0)
(-0.00935418 0.0671732 0)
(-0.0106187 0.0684671 0)
(-0.0119076 0.0695259 0)
(-0.0132169 0.0704076 0)
(-0.0145443 0.0711607 0)
(-0.0158887 0.0718249 0)
(-0.01725 0.0724328 0)
(-0.0186293 0.0730111 0)
(-0.0200286 0.0735814 0)
(-0.0214504 0.0741612 0)
(-0.0228984 0.0747648 0)
(-0.0243768 0.0754038 0)
(-0.0258904 0.0760879 0)
(-0.0274449 0.0768253 0)
(-0.0290466 0.0776231 0)
(-0.0307027 0.0784876 0)
(-0.0324213 0.0794246 0)
(-0.0342111 0.08044 0)
(-0.0360823 0.0815392 0)
(-0.0380459 0.0827285 0)
(-0.0401145 0.0840145 0)
(-0.042302 0.0854054 0)
(-0.0446245 0.0869113 0)
(-0.0471 0.0885459 0)
(-0.0497497 0.0903278 0)
(-0.0525977 0.0922835 0)
(-0.0556725 0.09445 0)
(-0.0590074 0.0968791 0)
(-0.0626413 0.0996408 0)
(-0.0666194 0.102826 0)
(-0.070993 0.106547 0)
(-0.0758162 0.110931 0)
(-0.0811526 0.116131 0)
(-2.73823e-05 0.00706196 0)
(-0.000204667 0.0190651 0)
(-0.00059436 0.0291883 0)
(-0.00114859 0.0376602 0)
(-0.00184339 0.0446964 0)
(-0.00266038 0.0504971 0)
(-0.00358046 0.0552461 0)
(-0.00458582 0.0591094 0)
(-0.00566069 0.0622351 0)
(-0.00679142 0.0647539 0)
(-0.00796652 0.0667795 0)
(-0.00917656 0.0684102 0)
(-0.0104141 0.06973 0)
(-0.0116734 0.0708099 0)
(-0.0129505 0.0717097 0)
(-0.0142427 0.0724788 0)
(-0.0155489 0.0731585 0)
(-0.0168689 0.0737824 0)
(-0.0182035 0.0743781 0)
(-0.0195545 0.074968 0)
(-0.0209244 0.0755704 0)
(-0.0223167 0.0762004 0)
(-0.0237354 0.0768703 0)
(-0.0251852 0.0775905 0)
(-0.0266717 0.07837 0)
(-0.0282009 0.0792165 0)
(-0.02978 0.0801373 0)
(-0.0314166 0.081139 0)
(-0.0331194 0.0822283 0)
(-0.0348983 0.083412 0)
(-0.036764 0.0846975 0)
(-0.0387287 0.0860928 0)
(-0.040806 0.0876079 0)
(-0.0430116 0.0892549 0)
(-0.0453629 0.0910499 0)
(-0.0478803 0.0930146 0)
(-0.0505871 0.0951789 0)
(-0.0535102 0.0975844 0)
(-0.0566811 0.100288 0)
(-0.060136 0.103364 0)
(-0.0639161 0.10691 0)
(-0.0680678 0.111044 0)
(-0.0726392 0.115895 0)
(-0.0776842 0.12162 0)
(-2.63594e-05 0.00716507 0)
(-0.000198904 0.0193587 0)
(-0.000579722 0.0296537 0)
(-0.00112271 0.0382776 0)
(-0.00180458 0.0454453 0)
(-0.00260715 0.0513579 0)
(-0.00351137 0.0562004 0)
(-0.00449936 0.0601403 0)
(-0.00555516 0.0633279 0)
(-0.00666492 0.0658958 0)
(-0.00781691 0.06796 0)
(-0.00900145 0.0696208 0)
(-0.0102108 0.0709639 0)
(-0.0114392 0.0720623 0)
(-0.0126823 0.072977 0)
(-0.0139373 0.0737592 0)
(-0.0152029 0.074451 0)
(-0.0164786 0.0750874 0)
(-0.0177651 0.0756967 0)
(-0.0190641 0.0763024 0)
(-0.020378 0.0769235 0)
(-0.0217099 0.0775758 0)
(-0.0230636 0.0782723 0)
(-0.0244438 0.0790242 0)
(-0.0258558 0.079841 0)
(-0.0273054 0.0807314 0)
(-0.0287993 0.0817033 0)
(-0.0303452 0.0827642 0)
(-0.0319512 0.0839218 0)
(-0.0336269 0.0851839 0)
(-0.0353825 0.0865591 0)
(-0.0372298 0.0880568 0)
(-0.0391818 0.0896887 0)
(-0.0412533 0.0914687 0)
(-0.0434611 0.0934152 0)
(-0.0458244 0.0955528 0)
(-0.048365 0.0979144 0)
(-0.051108 0.100546 0)
(-0.0540823 0.103507 0)
(-0.0573204 0.106878 0)
(-0.0608593 0.110761 0)
(-0.0647389 0.115275 0)
(-0.069 0.120555 0)
(-0.0736852 0.126752 0)
(-2.54115e-05 0.00726522 0)
(-0.000193612 0.0196453 0)
(-0.000566317 0.0301095 0)
(-0.001099 0.0388833 0)
(-0.00176892 0.046181 0)
(-0.00255801 0.052204 0)
(-0.0034472 0.0571383 0)
(-0.00441843 0.0611532 0)
(-0.00545556 0.0644007 0)
(-0.00654447 0.0670156 0)
(-0.00767315 0.069116 0)
(-0.00883168 0.0708041 0)
(-0.0100121 0.0721677 0)
(-0.0112083 0.0732814 0)
(-0.0124158 0.0742078 0)
(-0.0136317 0.0749994 0)
(-0.0148542 0.0756998 0)
(-0.0160829 0.0763447 0)
(-0.0173183 0.0769637 0)
(-0.0185617 0.0775809 0)
(-0.0198154 0.0782162 0)
(-0.0210823 0.0788861 0)
(-0.0223661 0.0796044 0)
(-0.0236711 0.0803828 0)
(-0.0250023 0.0812316 0)
(-0.0263653 0.0821602 0)
(-0.0277666 0.0831772 0)
(-0.0292132 0.0842911 0)
(-0.030713 0.0855102 0)
(-0.0322749 0.0868435 0)
(-0.0339088 0.0883006 0)
(-0.0356256 0.0898924 0)
(-0.0374377 0.0916319 0)
(-0.0393589 0.0935348 0)
(-0.0414047 0.0956217 0)
(-0.043593 0.0979194 0)
(-0.0459437 0.100464 0)
(-0.0484796 0.103303 0)
(-0.0512262 0.106502 0)
(-0.0542122 0.110144 0)
(-0.0574687 0.114332 0)
(-0.0610288 0.119189 0)
(-0.0649245 0.124849 0)
(-0.0691862 0.131459 0)
(-2.45612e-05 0.00736268 0)
(-0.000188932 0.0199256 0)
(-0.000554519 0.0305566 0)
(-0.00107813 0.0394784 0)
(-0.00173741 0.0469045 0)
(-0.0025143 0.0530364 0)
(-0.00338961 0.0580608 0)
(-0.00434506 0.0621486 0)
(-0.00536421 0.0654539 0)
(-0.00643267 0.0681134 0)
(-0.00753813 0.0702472 0)
(-0.00867038 0.0719597 0)
(-0.00982121 0.0733405 0)
(-0.0109843 0.074466 0)
(-0.0121548 0.0754004 0)
(-0.0133298 0.0761976 0)
(-0.0145071 0.0769023 0)
(-0.0156863 0.0775515 0)
(-0.0168675 0.0781756 0)
(-0.0180519 0.0787996 0)
(-0.0192416 0.0794442 0)
(-0.0204392 0.0801266 0)
(-0.0216483 0.0808612 0)
(-0.0228727 0.0816605 0)
(-0.0241172 0.0825354 0)
(-0.025387 0.0834958 0)
(-0.0266883 0.0845513 0)
(-0.0280275 0.0857108 0)
(-0.0294122 0.0869838 0)
(-0.0308505 0.08838 0)
(-0.0323516 0.0899101 0)
(-0.0339257 0.0915862 0)
(-0.0355841 0.0934224 0)
(-0.0373395 0.0954364 0)
(-0.0392061 0.0976502 0)
(-0.0411999 0.100093 0)
(-0.0433386 0.102802 0)
(-0.0456423 0.10583 0)
(-0.0481327 0.109242 0)
(-0.0508337 0.113124 0)
(-0.0537703 0.117581 0)
(-0.0569677 0.122737 0)
(-0.0604484 0.12872 0)
(-0.0642306 0.135674 0)
(-2.38332e-05 0.00745781 0)
(-0.000185018 0.0202007 0)
(-0.000544736 0.0309962 0)
(-0.00106082 0.0400644 0)
(-0.00171114 0.0476174 0)
(-0.0024775 0.0538564 0)
(-0.00334046 0.058969 0)
(-0.00428145 0.0631277 0)
(-0.00528367 0.0664883 0)
(-0.00633241 0.0691895 0)
(-0.00741501 0.0713537 0)
(-0.00852098 0.0730872 0)
(-0.00964183 0.0744816 0)
(-0.0107709 0.075615 0)
(-0.0119034 0.0765533 0)
(-0.0130358 0.0773518 0)
(-0.0141661 0.0780563 0)
(-0.0152933 0.0787051 0)
(-0.0164175 0.0793293 0)
(-0.0175398 0.079955 0)
(-0.0186619 0.0806036 0)
(-0.0197862 0.0812928 0)
(-0.0209158 0.0820379 0)
(-0.0220546 0.0828518 0)
(-0.0232068 0.0837461 0)
(-0.0243774 0.0847315 0)
(-0.0255718 0.0858179 0)
(-0.0267961 0.0870152 0)
(-0.0280573 0.0883335 0)
(-0.0293628 0.0897833 0)
(-0.0307209 0.0913762 0)
(-0.0321409 0.0931254 0)
(-0.033633 0.0950463 0)
(-0.0352085 0.0971576 0)
(-0.0368801 0.0994831 0)
(-0.0386616 0.102053 0)
(-0.0405683 0.104908 0)
(-0.0426171 0.1081 0)
(-0.0448256 0.111697 0)
(-0.0472124 0.115785 0)
(-0.0497959 0.120471 0)
(-0.0525929 0.125873 0)
(-0.0556164 0.13212 0)
(-0.0588728 0.139345 0)
(-2.32546e-05 0.00755105 0)
(-0.000182042 0.0204714 0)
(-0.000537422 0.03143 0)
(-0.00104789 0.0406432 0)
(-0.00169132 0.0483215 0)
(-0.00244922 0.0546658 0)
(-0.00330178 0.0598647 0)
(-0.00423002 0.0640918 0)
(-0.00521674 0.0675049 0)
(-0.00624681 0.0702447 0)
(-0.00730724 0.0724358 0)
(-0.00838721 0.0741865 0)
(-0.00947795 0.0755905 0)
(-0.0105726 0.0767276 0)
(-0.011666 0.0776653 0)
(-0.0127545 0.0784603 0)
(-0.0138359 0.0791598 0)
(-0.014909 0.079803 0)
(-0.0159738 0.0804221 0)
(-0.0170309 0.081044 0)
(-0.018082 0.0816906 0)
(-0.0191291 0.0823807 0)
(-0.0201752 0.0831298 0)
(-0.0212237 0.0839516 0)
(-0.0222784 0.0848583 0)
(-0.0233439 0.085861 0)
(-0.0244252 0.0869703 0)
(-0.0255277 0.0881966 0)
(-0.0266577 0.0895508 0)
(-0.0278219 0.091044 0)
(-0.0290278 0.0926887 0)
(-0.0302834 0.0944988 0)
(-0.0315978 0.0964908 0)
(-0.0329809 0.0986843 0)
(-0.0344433 0.101104 0)
(-0.0359967 0.103782 0)
(-0.0376539 0.10676 0)
(-0.0394279 0.11009 0)
(-0.0413323 0.11384 0)
(-0.04338 0.118098 0)
(-0.0455825 0.122967 0)
(-0.0479482 0.128563 0)
(-0.0504806 0.135008 0)
(-0.0531753 0.142428 0)
(-2.28555e-05 0.00764293 0)
(-0.000180193 0.0207393 0)
(-0.000533079 0.0318597 0)
(-0.00104024 0.0412168 0)
(-0.00167928 0.049019 0)
(-0.00243125 0.055467 0)
(-0.00327581 0.0607499 0)
(-0.00419345 0.0650427 0)
(-0.00516648 0.0685051 0)
(-0.00617932 0.07128 0)
(-0.00721859 0.0734941 0)
(-0.00827314 0.0752579 0)
(-0.0093339 0.076667 0)
(-0.0103938 0.0778031 0)
(-0.0114474 0.0787353 0)
(-0.0124909 0.0795217 0)
(-0.0135218 0.0802109 0)
(-0.0145389 0.080843 0)
(-0.0155419 0.0814513 0)
(-0.0165311 0.0820633 0)
(-0.0175081 0.0827019 0)
(-0.0184746 0.0833862 0)
(-0.0194333 0.0841326 0)
(-0.0203871 0.0849552 0)
(-0.0213396 0.0858666 0)
(-0.0222948 0.0868784 0)
(-0.0232572 0.088002 0)
(-0.0242316 0.0892481 0)
(-0.0252236 0.0906281 0)
(-0.0262391 0.0921538 0)
(-0.0272844 0.0938383 0)
(-0.0283667 0.0956961 0)
(-0.0294934 0.0977445 0)
(-0.0306729 0.100004 0)
(-0.031914 0.1025 0)
(-0.033226 0.105265 0)
(-0.0346185 0.108341 0)
(-0.0361013 0.11178 0)
(-0.0376831 0.115652 0)
(-0.0393716 0.120039 0)
(-0.041171 0.125044 0)
(-0.0430818 0.130777 0)
(-0.0450985 0.137355 0)
(-0.0472064 0.144894 0)
(-2.26693e-05 0.00773411 0)
(-0.000179681 0.0210059 0)
(-0.00053226 0.0322877 0)
(-0.00103885 0.0417878 0)
(-0.0016765 0.0497128 0)
(-0.00242556 0.0562626 0)
(-0.003265 0.061627 0)
(-0.00417465 0.0659825 0)
(-0.00513623 0.0694907 0)
(-0.00613366 0.0722968 0)
(-0.00715314 0.0745296 0)
(-0.00818316 0.0763018 0)
(-0.00921437 0.0777112 0)
(-0.0102394 0.0788411 0)
(-0.0112527 0.0797625 0)
(-0.0122503 0.0805348 0)
(-0.0132295 0.0812079 0)
(-0.0141889 0.0818231 0)
(-0.0151278 0.0824144 0)
(-0.0160468 0.0830103 0)
(-0.0169468 0.0836342 0)
(-0.0178295 0.084306 0)
(-0.0186972 0.0850424 0)
(-0.0195525 0.0858581 0)
(-0.0203984 0.0867662 0)
(-0.0212387 0.0877788 0)
(-0.0220771 0.0889074 0)
(-0.0229179 0.0901634 0)
(-0.0237659 0.0915586 0)
(-0.024626 0.0931053 0)
(-0.0255038 0.0948168 0)
(-0.0264048 0.0967085 0)
(-0.0273355 0.0987978 0)
(-0.0283023 0.101106 0)
(-0.029312 0.103659 0)
(-0.0303715 0.106489 0)
(-0.0314874 0.109637 0)
(-0.0326658 0.113157 0)
(-0.0339111 0.117114 0)
(-0.0352251 0.12159 0)
(-0.0366058 0.126682 0)
(-0.0380457 0.132497 0)
(-0.039531 0.139141 0)
(-0.0410381 0.146723 0)
(-2.27333e-05 0.00782532 0)
(-0.000180739 0.0212731 0)
(-0.000535585 0.0327165 0)
(-0.00104483 0.0423595 0)
(-0.00168459 0.0504061 0)
(-0.00243431 0.0570557 0)
(-0.00327205 0.062499 0)
(-0.00417682 0.066914 0)
(-0.00512965 0.0704641 0)
(-0.0061139 0.0732969 0)
(-0.00711532 0.0755436 0)
(-0.00812202 0.0773191 0)
(-0.00912438 0.0787233 0)
(-0.0101148 0.0798415 0)
(-0.0110876 0.0807462 0)
(-0.0120385 0.0814986 0)
(-0.0129649 0.0821495 0)
(-0.0138649 0.0827414 0)
(-0.0147381 0.0833093 0)
(-0.0155845 0.0838824 0)
(-0.0164051 0.0844848 0)
(-0.0172011 0.0851368 0)
(-0.0179746 0.0858557 0)
(-0.0187278 0.0866566 0)
(-0.0194635 0.087553 0)
(-0.0201847 0.0885573 0)
(-0.0208946 0.0896815 0)
(-0.0215971 0.0909373 0)
(-0.0222959 0.0923366 0)
(-0.0229952 0.0938921 0)
(-0.0236994 0.0956177 0)
(-0.024413 0.0975286 0)
(-0.0251407 0.0996428 0)
(-0.0258874 0.101981 0)
(-0.0266579 0.104571 0)
(-0.0274565 0.107442 0)
(-0.0282869 0.110637 0)
(-0.0291515 0.114207 0)
(-0.0300503 0.118214 0)
(-0.0309801 0.122738 0)
(-0.0319327 0.12787 0)
(-0.0328933 0.133709 0)
(-0.0338407 0.140355 0)
(-0.0347434 0.147908 0)
(-2.30897e-05 0.00791746 0)
(-0.000183632 0.0215431 0)
(-0.000543742 0.0331494 0)
(-0.00105939 0.0429353 0)
(-0.00170538 0.0511026 0)
(-0.00245992 0.0578503 0)
(-0.00329994 0.0633696 0)
(-0.00420347 0.0678402 0)
(-0.00515075 0.0714279 0)
(-0.00612448 0.0742825 0)
(-0.00710993 0.0765377 0)
(-0.00809485 0.0783109 0)
(-0.00906935 0.079704 0)
(-0.0100256 0.0808043 0)
(-0.0109578 0.0816862 0)
(-0.0118616 0.0824122 0)
(-0.0127342 0.0830344 0)
(-0.0135737 0.0835964 0)
(-0.0143794 0.0841341 0)
(-0.0151513 0.0846774 0)
(-0.01589 0.0852509 0)
(-0.0165969 0.0858757 0)
(-0.0172733 0.0865693 0)
(-0.0179215 0.0873472 0)
(-0.0185436 0.0882233 0)
(-0.0191421 0.0892102 0)
(-0.0197199 0.0903202 0)
(-0.02028 0.0915651 0)
(-0.0208255 0.0929572 0)
(-0.0213595 0.0945093 0)
(-0.0218855 0.0962352 0)
(-0.0224066 0.0981506 0)
(-0.0229263 0.100273 0)
(-0.0234475 0.102624 0)
(-0.023973 0.105229 0)
(-0.0245049 0.108119 0)
(-0.0250439 0.111334 0)
(-0.025589 0.114923 0)
(-0.026136 0.118946 0)
(-0.026677 0.123477 0)
(-0.027198 0.128601 0)
(-0.0276782 0.134411 0)
(-0.0280898 0.140998 0)
(-0.0283946 0.148453 0)
(-2.37871e-05 0.00801156 0)
(-0.000188657 0.0218185 0)
(-0.00055751 0.0335899 0)
(-0.00108391 0.0435196 0)
(-0.00174087 0.051807 0)
(-0.00250505 0.0586506 0)
(-0.00335196 0.0642427 0)
(-0.00425847 0.0687649 0)
(-0.00520389 0.0723852 0)
(-0.00617022 0.0752562 0)
(-0.0071422 0.077514 0)
(-0.0081072 0.0792786 0)
(-0.00905509 0.0806541 0)
(-0.00997792 0.08173 0)
(-0.0108697 0.0825823 0)
(-0.0117261 0.083275 0)
(-0.012544 0.0838616 0)
(-0.0133219 0.0843867 0)
(-0.0140586 0.084887 0)
(-0.0147543 0.0853932 0)
(-0.0154092 0.0859305 0)
(-0.0160246 0.0865202 0)
(-0.0166017 0.0871805 0)
(-0.0171421 0.087927 0)
(-0.0176478 0.0887739 0)
(-0.0181208 0.089734 0)
(-0.0185633 0.0908197 0)
(-0.0189778 0.0920432 0)
(-0.0193666 0.0934166 0)
(-0.019732 0.0949527 0)
(-0.0200763 0.0966654 0)
(-0.0204015 0.0985701 0)
(-0.0207096 0.100685 0)
(-0.0210018 0.103029 0)
(-0.0212791 0.105629 0)
(-0.0215411 0.108515 0)
(-0.0217859 0.111723 0)
(-0.0220092 0.115301 0)
(-0.0222033 0.119306 0)
(-0.0223557 0.123804 0)
(-0.0224478 0.128876 0)
(-0.0224533 0.134606 0)
(-0.0223388 0.141078 0)
(-0.0220608 0.148372 0)
(-2.48825e-05 0.0081088 0)
(-0.000196154 0.0221022 0)
(-0.000577766 0.0340422 0)
(-0.00111993 0.0441172 0)
(-0.00179333 0.0525242 0)
(-0.00257267 0.0594617 0)
(-0.00343177 0.0651231 0)
(-0.0043461 0.0696922 0)
(-0.00529391 0.0733397 0)
(-0.00625641 0.0762209 0)
(-0.00721778 0.0784747 0)
(-0.00816505 0.0802238 0)
(-0.00908785 0.0815747 0)
(-0.00997813 0.0826189 0)
(-0.0108298 0.0834344 0)
(-0.0116386 0.0840865 0)
(-0.0124015 0.0846303 0)
(-0.0131166 0.085111 0)
(-0.0137832 0.0855666 0)
(-0.014401 0.0860281 0)
(-0.0149704 0.0865214 0)
(-0.0154923 0.0870682 0)
(-0.0159679 0.087687 0)
(-0.0163985 0.0883936 0)
(-0.0167855 0.0892022 0)
(-0.0171306 0.090126 0)
(-0.0174354 0.0911775 0)
(-0.0177019 0.0923688 0)
(-0.0179316 0.0937119 0)
(-0.0181261 0.0952196 0)
(-0.0182865 0.0969054 0)
(-0.0184137 0.0987846 0)
(-0.0185082 0.100874 0)
(-0.0185699 0.103195 0)
(-0.0185977 0.10577 0)
(-0.0185891 0.108628 0)
(-0.0185398 0.111804 0)
(-0.0184426 0.115343 0)
(-0.0182865 0.119295 0)
(-0.0180553 0.123725 0)
(-0.0177263 0.128704 0)
(-0.0172687 0.134307 0)
(-0.0166449 0.140611 0)
(-0.015807 0.147689 0)
(-2.6441e-05 0.0082106 0)
(-0.000206507 0.0223978 0)
(-0.0006055 0.0345112 0)
(-0.00116919 0.0447337 0)
(-0.00186528 0.0532603 0)
(-0.00266611 0.0602895 0)
(-0.00354344 0.0660163 0)
(-0.0044711 0.0706272 0)
(-0.00542611 0.0742956 0)
(-0.00638883 0.0771801 0)
(-0.00734286 0.0794227 0)
(-0.00827489 0.0811487 0)
(-0.00917437 0.0824672 0)
(-0.0100332 0.083472 0)
(-0.0108453 0.0842428 0)
(-0.0116065 0.0848467 0)
(-0.0123138 0.0853397 0)
(-0.0129654 0.0857685 0)
(-0.0135606 0.0861715 0)
(-0.0140992 0.0865806 0)
(-0.0145815 0.087022 0)
(-0.0150084 0.0875179 0)
(-0.0153807 0.0880869 0)
(-0.0156995 0.0887449 0)
(-0.0159661 0.0895064 0)
(-0.0161815 0.0903845 0)
(-0.016347 0.0913917 0)
(-0.0164639 0.0925402 0)
(-0.0165332 0.0938417 0)
(-0.0165555 0.0953085 0)
(-0.016531 0.0969541 0)
(-0.0164595 0.0987931 0)
(-0.0163402 0.100842 0)
(-0.0161715 0.10312 0)
(-0.0159507 0.10565 0)
(-0.0156733 0.108459 0)
(-0.0153328 0.111579 0)
(-0.0149194 0.115051 0)