/*--------------------------------*- C++ -*----------------------------------*\
  =========                 |
  \\      /  F ield         | OpenFOAM: The Open Source CFD Toolbox
   \\    /   O peration     | Website:  https://openfoam.org
    \\  /    A nd           | Version:  9
     \\/     M anipulation  |
\*---------------------------------------------------------------------------*/
FoamFile
{
    format      ascii;
    class       volScalarField;
    location    "0.75";
    object      p;
}
// * * * * * * * * * * * * * * * * * * * * * * * * * * * * * * * * * * * * * //

dimensions      [0 2 -2 0 0 0 0];

internalField   nonuniform List<scalar> 
1260
(
-0.0794403
-0.0776682
-0.0757576
-0.0737342
-0.0716227
-0.0694455
-0.067221
-0.064962
-0.0626741
-0.0603542
-0.0579893
-0.0555557
-0.0530193
-0.050337
-0.0474604
-0.0443426
-0.0409497
-0.0372759
-0.0333619
-0.029312
-0.0253013
-0.0215639
-0.0183546
-0.0158886
-0.014276
-0.0134841
-0.0133481
-0.0136301
-0.0141419
-0.0148343
-0.081104
-0.0792709
-0.0772949
-0.075204
-0.0730255
-0.0707849
-0.068504
-0.0661997
-0.0638817
-0.0615513
-0.0591996
-0.0568067
-0.0543413
-0.0517614
-0.049017
-0.0460556
-0.0428317
-0.0393215
-0.0355415
-0.0315689
-0.0275553
-0.0237236
-0.0203386
-0.0176481
-0.0158097
-0.0148362
-0.0145873
-0.0148234
-0.0153392
-0.0160744
-0.0825611
-0.0806717
-0.0786344
-0.0764795
-0.0742365
-0.0719337
-0.0695961
-0.0672442
-0.0648917
-0.0625442
-0.060197
-0.0578343
-0.0554283
-0.0529393
-0.0503175
-0.0475073
-0.0444549
-0.0411218
-0.037503
-0.0336489
-0.0296845
-0.0258149
-0.0223049
-0.0194262
-0.0173802
-0.0162273
-0.0158593
-0.0160414
-0.0165555
-0.0173299
-0.0837912
-0.0818508
-0.079758
-0.0775443
-0.0752413
-0.0728798
-0.0704876
-0.0680885
-0.0656999
-0.0633313
-0.0609825
-0.0586417
-0.056285
-0.053876
-0.0513664
-0.0486995
-0.0458163
-0.042667
-0.0392282
-0.0355254
-0.0316557
-0.0278009
-0.0242177
-0.021192
-0.0189628
-0.0176384
-0.0171483
-0.01727
-0.0177766
-0.0185862
-0.0847749
-0.08279
-0.0806481
-0.078382
-0.0760253
-0.0736104
-0.0711678
-0.0687243
-0.0663005
-0.0639098
-0.0615557
-0.0592309
-0.0569155
-0.0545767
-0.0521689
-0.049636
-0.0469161
-0.0439516
-0.040704
-0.0371765
-0.0334389
-0.0296466
-0.0260406
-0.0229121
-0.0205298
-0.0190475
-0.0184364
-0.0184932
-0.0189872
-0.0198274
-0.0854957
-0.0834729
-0.081289
-0.0789781
-0.0765747
-0.0741133
-0.0716264
-0.0691431
-0.0666873
-0.0642755
-0.0619152
-0.0596029
-0.0573229
-0.0550461
-0.0527305
-0.0503217
-0.0477573
-0.0449743
-0.0419229
-0.0385872
-0.0350112
-0.0313225
-0.027741
-0.0245546
-0.0220529
-0.0204311
-0.0197041
-0.0196936
-0.0201706
-0.0210369
-0.08594
-0.0838863
-0.0816679
-0.0793199
-0.0768779
-0.0743778
-0.0718537
-0.0693371
-0.0668542
-0.0644246
-0.0620591
-0.0597579
-0.0575094
-0.0552884
-0.0530566
-0.0507624
-0.0483443
-0.0457367
-0.0428815
-0.0397473
-0.0363548
-0.0328038
-0.0292894
-0.0260887
-0.0235037
-0.021765
-0.0209308
-0.0208531
-0.0213096
-0.0221975
-0.0860981
-0.0840202
-0.081775
-0.079398
-0.0769259
-0.0743955
-0.0718425
-0.0692999
-0.0667963
-0.0643537
-0.0619858
-0.0596964
-0.0574774
-0.0553077
-0.0531526
-0.0509643
-0.0486831
-0.0462428
-0.0435801
-0.0406513
-0.037457
-0.0340707
-0.0306606
-0.0274867
-0.0248551
-0.0230248
-0.0220954
-0.0219527
-0.0223867
-0.023292
-0.0859645
-0.083869
-0.0816044
-0.0792066
-0.076713
-0.0741611
-0.0715878
-0.0690275
-0.0665104
-0.0640608
-0.0616949
-0.0594195
-0.0572297
-0.0551083
-0.0530246
-0.0509342
-0.0487806
-0.0464985
-0.0440217
-0.0412976
-0.0383102
-0.0351086
-0.0318336
-0.0287239
-0.0260817
-0.0241867
-0.023177
-0.0229738
-0.0233841
-0.0243032
-0.0855374
-0.0834309
-0.0811542
-0.0787436
-0.076237
-0.0736724
-0.0710878
-0.0685184
-0.065996
-0.0635462
-0.0611877
-0.0589296
-0.0567702
-0.0546956
-0.0526789
-0.0506797
-0.0486448
-0.0465111
-0.0442117
-0.0416881
-0.0389107
-0.0359074
-0.032792
-0.029779
-0.0271603
-0.0252283
-0.0241549
-0.0238978
-0.0242846
-0.0252145
-0.0848199
-0.0827084
-0.0804267
-0.0780112
-0.0754999
-0.0729313
-0.0703443
-0.0677747
-0.0652551
-0.0628126
-0.0604675
-0.0582309
-0.056104
-0.0540759
-0.0521232
-0.0502092
-0.0482848
-0.0462897
-0.0441579
-0.0418274
-0.0392587
-0.0364612
-0.0335238
-0.0306348
-0.0280706
-0.0261289
-0.0250098
-0.0247067
-0.0250717
-0.0260102
-0.083819
-0.0817083
-0.0794283
-0.0770153
-0.0745075
-0.0719439
-0.0693631
-0.0668019
-0.0642932
-0.0618656
-0.0595402
-0.0573301
-0.0552384
-0.0532572
-0.0513662
-0.0495325
-0.0477108
-0.0458446
-0.0438697
-0.041723
-0.0393577
-0.0367683
-0.0340209
-0.0312777
-0.0287952
-0.0268699
-0.0257235
-0.0253838
-0.0257294
-0.0266755
-0.0825456
-0.0804414
-0.0781697
-0.0757664
-0.0732699
-0.0707194
-0.0681534
-0.065609
-0.0631196
-0.0607141
-0.0584148
-0.0562361
-0.0541828
-0.0522494
-0.0504184
-0.0486607
-0.0469346
-0.0451875
-0.0433583
-0.0413842
-0.039214
-0.0368304
-0.0342794
-0.0316979
-0.0293199
-0.0274346
-0.0262793
-0.025913
-0.0262431
-0.0271966
-0.0810142
-0.0789222
-0.0766651
-0.0742788
-0.0718012
-0.0692716
-0.0667285
-0.0642089
-0.0617465
-0.0593703
-0.0571032
-0.0549606
-0.0529489
-0.0510643
-0.0492922
-0.0476063
-0.045969
-0.0443316
-0.0426365
-0.0408226
-0.0388366
-0.0366522
-0.0342986
-0.0318889
-0.0296335
-0.0278091
-0.0266621
-0.0262798
-0.0265988
-0.0275607
-0.079244
-0.0771692
-0.074933
-0.0725705
-0.0701193
-0.0676181
-0.0651055
-0.0626183
-0.0601899
-0.0578495
-0.0556204
-0.0535184
-0.051551
-0.0497163
-0.0480017
-0.0463839
-0.0448287
-0.0432915
-0.0417186
-0.0400516
-0.0382365
-0.0362413
-0.034081
-0.0318476
-0.0297274
-0.0279812
-0.0268584
-0.0264703
-0.0267834
-0.027756
-0.0706637
-0.0682457
-0.0657801
-0.0633051
-0.060857
-0.0584692
-0.0561705
-0.0539841
-0.0519265
-0.0500059
-0.0482215
-0.0465628
-0.0450093
-0.0435296
-0.0420831
-0.0406201
-0.0390857
-0.0374267
-0.0356073
-0.0336318
-0.0315735
-0.0295957
-0.0279407
-0.0268557
-0.0264715
-0.0267843
-0.0277712
-0.0685846
-0.066206
-0.0637824
-0.0613513
-0.0589486
-0.0566068
-0.0543547
-0.0522153
-0.050205
-0.0483326
-0.0465986
-0.0449938
-0.0434999
-0.042089
-0.0407235
-0.0393579
-0.037941
-0.0364215
-0.0347618
-0.0329583
-0.0310686
-0.0292346
-0.0276791
-0.0266427
-0.0262709
-0.026589
-0.0275948
-0.0663617
-0.0640285
-0.0616528
-0.0592713
-0.0569191
-0.0546281
-0.0524264
-0.0503368
-0.0483757
-0.0465523
-0.0448675
-0.0433139
-0.0418749
-0.0405252
-0.0392307
-0.0379496
-0.0366342
-0.0352363
-0.0337178
-0.0320695
-0.0303365
-0.028642
-0.0271889
-0.0262084
-0.0258558
-0.0261849
-0.0272154
-0.0640268
-0.0617444
-0.0594218
-0.0570946
-0.0547971
-0.0525604
-0.0504119
-0.0483739
-0.0464627
-0.0446876
-0.0430501
-0.0415438
-0.0401539
-0.0388572
-0.0376238
-0.0364132
-0.0351828
-0.0338871
-0.0324887
-0.0309753
-0.0293821
-0.0278166
-0.0264634
-0.0255417
-0.0252129
-0.0255578
-0.0266202
-0.0616138
-0.059387
-0.0571217
-0.0548527
-0.052613
-0.0504329
-0.0483391
-0.0463532
-0.0444912
-0.0427625
-0.041169
-0.0397053
-0.0383579
-0.0371058
-0.0359207
-0.034767
-0.033604
-0.0323897
-0.0310885
-0.029686
-0.0282109
-0.0267578
-0.0254956
-0.0246308
-0.0243273
-0.0246919
-0.0257944
-0.0591581
-0.0569908
-0.0547864
-0.0525782
-0.0503982
-0.0482758
-0.0462368
-0.0443021
-0.0424873
-0.0408017
-0.0392476
-0.0378202
-0.0365074
-0.0352897
-0.0341406
-0.033029
-0.0319146
-0.0307596
-0.0295302
-0.0282116
-0.0268279
-0.0254644
-0.0242775
-0.0234621
-0.0231819
-0.0235685
-0.0247204
-0.0566958
-0.0545912
-0.0524499
-0.0503041
-0.0481846
-0.0461197
-0.0441341
-0.0422481
-0.040477
-0.0388297
-0.037309
-0.0359104
-0.0346229
-0.0334284
-0.0323025
-0.0312149
-0.0301298
-0.0290106
-0.0278256
-0.0265604
-0.0252367
-0.0239339
-0.0227996
-0.0220196
-0.0217561
-0.0221647
-0.0233764
-0.0542629
-0.052223
-0.0501461
-0.048063
-0.0460034
-0.0439943
-0.0420594
-0.0402184
-0.0384859
-0.0368707
-0.0353757
-0.0339969
-0.032724
-0.03154
-0.0304219
-0.0293408
-0.0282634
-0.0271543
-0.0259839
-0.0247385
-0.0234387
-0.022161
-0.0210489
-0.0202831
-0.0200244
-0.0204521
-0.021735
-0.0518939
-0.0499196
-0.0479072
-0.0458861
-0.0438844
-0.0419281
-0.04004
-0.0382387
-0.0365383
-0.0349474
-0.0334689
-0.0320992
-0.0308285
-0.0296406
-0.0285135
-0.0274193
-0.026326
-0.0251993
-0.0240109
-0.022748
-0.0214311
-0.0201365
-0.0190081
-0.0182274
-0.0179552
-0.0183952
-0.0197618
-0.049621
-0.0477122
-0.0457631
-0.0438019
-0.0418552
-0.0399476
-0.0381007
-0.0363325
-0.0346564
-0.0330806
-0.0316078
-0.0302349
-0.0289523
-0.0277443
-0.0265893
-0.02546
-0.0243246
-0.0231501
-0.0219079
-0.0205861
-0.0192058
-0.0178453
-0.0166537
-0.0158197
-0.0155086
-0.0159496
-0.0174133
-0.0474727
-0.0456281
-0.0437404
-0.0418359
-0.03994
-0.0380757
-0.0362637
-0.0345208
-0.0328597
-0.0312883
-0.0298092
-0.028419
-0.0271084
-0.0258619
-0.0246577
-0.0234684
-0.0222618
-0.0210063
-0.0196701
-0.0182431
-0.0167472
-0.0152643
-0.0139533
-0.0130178
-0.0126341
-0.013059
-0.0146343
-0.0454732
-0.0436907
-0.0418612
-0.0400095
-0.0381592
-0.036332
-0.0345473
-0.0328208
-0.0311645
-0.0295856
-0.0280863
-0.0266631
-0.0253065
-0.0240006
-0.0227232
-0.021446
-0.0201359
-0.018759
-0.0172846
-0.0157005
-0.0140299
-0.0123597
-0.0108631
-0.00976685
-0.00926692
-0.00965271
-0.0113548
-0.0436415
-0.041918
-0.0401429
-0.038339
-0.0365284
-0.0347313
-0.0329655
-0.0312458
-0.0295829
-0.0279834
-0.0264489
-0.0249753
-0.0235525
-0.0221637
-0.0207856
-0.0193882
-0.0179367
-0.0163945
-0.0147299
-0.0129292
-0.0110164
-0.00908438
-0.00732418
-0.00599491
-0.0053239
-0.00564096
-0.00748549
-0.0419906
-0.0403225
-0.0385971
-0.0368356
-0.0350582
-0.0332835
-0.0315278
-0.0298042
-0.0281227
-0.0264886
-0.0249024
-0.0233592
-0.0218476
-0.0203494
-0.0188393
-0.0172847
-0.0156479
-0.013889
-0.0119739
-0.00988726
-0.00765417
-0.00537366
-0.00325817
-0.00160824
-0.000697504
-0.000909252
-0.00291067
-0.0405275
-0.0389104
-0.0372297
-0.0355046
-0.0337534
-0.031993
-0.0302379
-0.0284997
-0.0267867
-0.025103
-0.0234475
-0.0218137
-0.0201883
-0.0185509
-0.0168729
-0.0151183
-0.0132451
-0.0112089
-0.00897202
-0.0065177
-0.00387217
-0.00114129
0.00143823
0.00351549
0.0047518
0.00468983
0.00252159
-0.0392528
-0.0376819
-0.0360403
-0.0343451
-0.0326129
-0.0308584
-0.0290943
-0.0273302
-0.0255725
-0.0238233
-0.0220797
-0.0203325
-0.0185657
-0.0167553
-0.0148686
-0.0128644
-0.0106947
-0.00830964
-0.00566675
-0.00274734
0.000423561
0.00372605
0.00689917
0.00953449
0.011205
0.011348
0.00901406
-0.0381607
-0.0366307
-0.0350222
-0.0333505
-0.0316297
-0.0298727
-0.0280896
-0.0262881
-0.0244721
-0.0226411
-0.0207892
-0.0189039
-0.0169652
-0.0149441
-0.0128018
-0.0104903
-0.00795387
-0.00513509
-0.00198593
0.00151484
0.00535213
0.00937201
0.0132953
0.016651
0.0188958
0.0193165
0.0168406
-0.0372394
-0.0357445
-0.0341631
-0.0325078
-0.030791
-0.0290227
-0.0272109
-0.0253604
-0.0234721
-0.0215422
-0.0195607
-0.0175106
-0.0153663
-0.0130919
-0.0106408
-0.00795539
-0.00496988
-0.00161675
0.00216098
0.00639083
0.0110425
0.0159695
0.02084
0.0251196
0.028122
0.0289251
0.0263717
-0.0364712
-0.0350055
-0.0334447
-0.031799
-0.0300784
-0.0282904
-0.0264401
-0.0245288
-0.0225539
-0.0205072
-0.0183736
-0.0161298
-0.0137428
-0.0111677
-0.00834721
-0.00521141
-0.00168111
0.00232472
0.00687475
0.0120024
0.0176709
0.0237252
0.0297956
0.0352543
0.0392552
0.0406008
0.0381032
-0.0358337
-0.0343911
-0.0328442
-0.0312012
-0.0294692
-0.027653
-0.0257542
-0.0237704
-0.0216943
-0.0195122
-0.0172025
-0.0147339
-0.0120636
-0.00913509
-0.00587715
-0.00220402
0.00198111
0.00677722
0.0122688
0.0184984
0.0254259
0.0328713
0.0404665
0.047429
0.0527474
0.0548863
0.0526829
-0.0353007
-0.0338749
-0.0323356
-0.0306883
-0.0289374
-0.0270845
-0.0251274
-0.0230591
-0.0208667
-0.0185298
-0.0160186
-0.0132917
-0.0102941
-0.00695447
-0.00318394
0.00112362
0.0060877
0.011831
0.0184597
0.0260313
0.034508
0.0436921
0.0531466
0.0620744
0.0691411
0.072458
0.0709357
-0.0348446
-0.0334288
-0.0318907
-0.0302325
-0.0284554
-0.0265575
-0.0245322
-0.0223672
-0.020043
-0.0175312
-0.0147919
-0.0117716
-0.00839996
-0.00458749
-0.00022345
0.00482386
0.0107029
0.0175672
0.0255533
0.0347424
0.0451055
0.0564238
0.0681951
0.0796592
0.0890733
0.0941543
0.0938935
-0.0344378
-0.0330268
-0.0314827
-0.029807
-0.0279967
-0.0260457
-0.0239425
-0.0216687
-0.0191971
-0.01649
-0.0134956
-0.010146
-0.00635273
-0.00200437
0.00303631
0.00893237
0.0158684
0.0240379
0.0336188
0.0447291
0.0573629
0.0712998
0.0860031
0.100524
0.113245
0.120988
0.122813
-0.0340558
-0.0326437
-0.0310894
-0.0293895
-0.0275391
-0.0255274
-0.0233371
-0.0209429
-0.0183091
-0.0153873
-0.0121124
-0.00839964
-0.00413998
0.000803562
0.00659934
0.0134478
0.0215778
0.0312334
0.0426478
0.055994
0.0713119
0.0884009
0.106691
0.125142
0.142305
0.154026
0.159108
-0.0336815
-0.0322637
-0.0306938
-0.0289654
-0.0270693
-0.0249903
-0.022705
-0.0201808
-0.0173726
-0.0142203
-0.0106444
-0.00654158
-0.00178017
0.00380515
0.0104178
0.0183014
0.0277373
0.0390323
0.0524928
0.0683713
0.0867878
0.1076
0.130267
0.15376
0.176486
0.194074
0.204277
-0.0333084
-0.0318818
-0.0302931
-0.0285323
-0.0265869
-0.0244366
-0.0220519
-0.0193923
-0.0164034
-0.0130128
-0.00912597
-0.00462087
0.000657911
0.00690521
0.0143617
0.0233177
0.0341144
0.0471335
0.0627777
0.0814139
0.103297
0.128415
0.15634
0.186069
0.215957
0.241496
0.260618
-0.0329441
-0.0315073
-0.0298996
-0.0281052
-0.0261108
-0.02389
-0.0214072
-0.018615
-0.0154496
-0.0118271
-0.00763866
-0.0027442
0.00303412
0.00991919
0.0181878
0.0281759
0.040287
0.0549854
0.0727924
0.0942355
0.119798
0.149734
0.183935
0.221544
0.260947
0.297703
0.333471
-0.0326146
-0.0311673
-0.0295402
-0.0277211
-0.0256844
-0.0234012
-0.0208321
-0.0179234
-0.0146036
-0.0107788
-0.00632789
-0.00109619
0.00511288
0.0125452
0.0215073
0.0323735
0.0456011
0.0617301
0.0814051
0.105344
0.134363
0.169214
0.210568
0.258353
0.311945
0.368513
0.43468
-0.0323642
-0.0309165
-0.0292827
-0.0274454
-0.0253802
-0.0230554
-0.020428
-0.0174399
-0.0140144
-0.0100512
-0.00542151
3.88438e-05
0.00653795
0.0143356
0.0237563
0.0351969
0.0491484
0.0661985
0.0870808
0.112664
0.144102
0.18278
0.230778
0.290399
0.365368
0.458185
0.583661
-0.0322419
-0.0308014
-0.0291719
-0.0273352
-0.0252668
-0.0229338
-0.0202918
-0.0172814
-0.0138243
-0.00981866
-0.00513377
0.000396695
0.00698315
0.014888
0.0244387
0.0360359
0.050177
0.0674601
0.088648
0.114659
0.146822
0.186871
0.238214
0.306164
0.404258
0.548951
0.769489
)
;

boundaryField
{
    movingWall
    {
        type            zeroGradient;
    }
    fixedWalls
    {
        type            zeroGradient;
    }
    frontAndBack
    {
        type            empty;
    }
    procBoundary4to5
    {
        type            processor;
        value           nonuniform List<scalar> 
48
(
-0.0810477
-0.0827661
-0.0842736
-0.0855487
-0.0865717
-0.0873256
-0.0877971
-0.0879765
-0.0878583
-0.0874413
-0.0867289
-0.085728
-0.0844498
-0.0829092
-0.081125
-0.0772579
-0.0752059
-0.0729962
-0.0729962
-0.0708808
-0.0686158
-0.0662331
-0.0637672
-0.0612541
-0.0587309
-0.0562343
-0.0538
-0.0514611
-0.0492472
-0.0471836
-0.0452899
-0.0435801
-0.0420616
-0.0407358
-0.0395972
-0.0386346
-0.0378307
-0.0371633
-0.0366069
-0.0361333
-0.0357148
-0.0353265
-0.0349506
-0.0345789
-0.0342174
-0.0338898
-0.0336388
-0.0335063
)
;
    }
    procBoundary4to6
    {
        type            processor;
        value           nonuniform List<scalar> 
30
(
-0.0775911
-0.0758831
-0.0740403
-0.0720859
-0.0700416
-0.0679263
-0.0657548
-0.0635358
-0.0612705
-0.0589516
-0.0565623
-0.0540757
-0.0514559
-0.0486601
-0.0456439
-0.0423693
-0.0388168
-0.0350018
-0.0309906
-0.0269133
-0.0229634
-0.0193775
-0.0163912
-0.0141793
-0.0128028
-0.0121889
-0.0121557
-0.0124746
-0.0129763
-0.0136228
)
;
    }
}


// ************************************************************************* //
