/*--------------------------------*- C++ -*----------------------------------*\
  =========                 |
  \\      /  F ield         | OpenFOAM: The Open Source CFD Toolbox
   \\    /   O peration     | Website:  https://openfoam.org
    \\  /    A nd           | Version:  9
     \\/     M anipulation  |
\*---------------------------------------------------------------------------*/
FoamFile
{
    format      ascii;
    class       surfaceScalarField;
    location    "0.75";
    object      phi;
}
// * * * * * * * * * * * * * * * * * * * * * * * * * * * * * * * * * * * * * //

dimensions      [0 3 -1 0 0 0 0];

internalField   nonuniform List<scalar> 
2445
(
-1.36191e-06
-1.42648e-06
-1.35192e-06
-1.56622e-06
-1.33997e-06
-1.69742e-06
-1.32676e-06
-1.81977e-06
-1.31325e-06
-1.93344e-06
-1.30068e-06
-2.03922e-06
-1.29059e-06
-2.13871e-06
-1.28479e-06
-2.23444e-06
-1.28526e-06
-2.33005e-06
-1.29398e-06
-2.43025e-06
-1.31266e-06
-2.5407e-06
-1.34235e-06
-2.66759e-06
-1.38295e-06
-2.81689e-06
-1.43278e-06
-2.99322e-06
-1.48805e-06
-3.19845e-06
-1.54263e-06
-3.42991e-06
-1.58805e-06
-3.67879e-06
-1.6139e-06
-3.92865e-06
-1.60883e-06
-4.15483e-06
-1.56215e-06
-4.32515e-06
-1.46606e-06
-4.40254e-06
-1.3182e-06
-4.35038e-06
-1.12396e-06
-4.1405e-06
-8.97411e-07
-3.76262e-06
-6.5995e-07
-3.23236e-06
-4.36001e-07
-2.5929e-06
-2.47361e-07
-1.90703e-06
-1.08713e-07
-1.24166e-06
-2.63512e-08
-6.52313e-07
-1.74819e-07
-1.23715e-06
-1.43088e-06
-1.23029e-06
-1.57308e-06
-1.22132e-06
-1.70639e-06
-1.21078e-06
-1.8303e-06
-1.19945e-06
-1.94477e-06
-1.18839e-06
-2.05028e-06
-1.17897e-06
-2.14813e-06
-1.17285e-06
-2.24056e-06
-1.17197e-06
-2.33093e-06
-1.1784e-06
-2.42382e-06
-1.1941e-06
-2.52501e-06
-1.22057e-06
-2.64112e-06
-1.25843e-06
-2.77903e-06
-1.30685e-06
-2.94481e-06
-1.36303e-06
-3.14226e-06
-1.42186e-06
-3.37109e-06
-1.47565e-06
-3.62499e-06
-1.51446e-06
-3.88984e-06
-1.5268e-06
-4.1425e-06
-1.50108e-06
-4.35087e-06
-1.42775e-06
-4.47587e-06
-1.30195e-06
-4.47618e-06
-1.12625e-06
-4.3162e-06
-9.12301e-07
-3.97657e-06
-6.80314e-07
-3.46434e-06
-4.55366e-07
-2.81784e-06
-2.61486e-07
-2.10091e-06
-1.16256e-07
-1.38689e-06
-2.85666e-08
-7.40002e-07
-2.03385e-07
-1.10583e-06
-1.43176e-06
-1.10261e-06
-1.57631e-06
-1.09726e-06
-1.71173e-06
-1.09019e-06
-1.83737e-06
-1.08201e-06
-1.95295e-06
-1.07357e-06
-2.05872e-06
-1.06606e-06
-2.15565e-06
-1.06096e-06
-2.24566e-06
-1.06008e-06
-2.3318e-06
-1.06547e-06
-2.41843e-06
-1.07922e-06
-2.51126e-06
-1.10317e-06
-2.61717e-06
-1.13847e-06
-2.74373e-06
-1.18507e-06
-2.89821e-06
-1.24113e-06
-3.0862e-06
-1.30253e-06
-3.3097e-06
-1.36252e-06
-3.565e-06
-1.41181e-06
-3.84055e-06
-1.43908e-06
-4.11522e-06
-1.43223e-06
-4.35773e-06
-1.38029e-06
-4.5278e-06
-1.27622e-06
-4.58025e-06
-1.11982e-06
-4.47261e-06
-9.20121e-07
-4.17627e-06
-6.95714e-07
-3.68875e-06
-4.71782e-07
-3.04178e-06
-2.74193e-07
-2.2985e-06
-1.23306e-07
-1.53777e-06
-3.07011e-08
-8.32608e-07
-2.34086e-07
-9.6812e-07
-1.42888e-06
-9.68881e-07
-1.57555e-06
-9.67642e-07
-1.71297e-06
-9.64671e-07
-1.84034e-06
-9.60414e-07
-1.95721e-06
-9.55551e-07
-2.06358e-06
-9.51048e-07
-2.16015e-06
-9.48197e-07
-2.24851e-06
-9.48633e-07
-2.33137e-06
-9.54293e-07
-2.41277e-06
-9.67286e-07
-2.49826e-06
-9.89648e-07
-2.59481e-06
-1.02295e-06
-2.71042e-06
-1.06778e-06
-2.85338e-06
-1.12316e-06
-3.03082e-06
-1.18594e-06
-3.24691e-06
-1.25039e-06
-3.50056e-06
-1.30801e-06
-3.78293e-06
-1.3479e-06
-4.07533e-06
-1.35774e-06
-4.34788e-06
-1.32558e-06
-4.55996e-06
-1.24245e-06
-4.66337e-06
-1.10559e-06
-4.60947e-06
-9.21309e-07
-4.36055e-06
-7.06234e-07
-3.90383e-06
-4.85151e-07
-3.26286e-06
-2.8535e-07
-2.4983e-06
-1.29774e-07
-1.69335e-06
-3.27246e-08
-9.29658e-07
-2.66811e-07
-8.2448e-07
-1.42209e-06
-8.29461e-07
-1.57056e-06
-8.32669e-07
-1.70976e-06
-8.34257e-07
-1.83876e-06
-8.34533e-07
-1.95693e-06
-8.34005e-07
-2.06411e-06
-8.33441e-07
-2.16072e-06
-8.33918e-07
-2.24804e-06
-8.36862e-07
-2.32842e-06
-8.44046e-07
-2.40559e-06
-8.57507e-07
-2.4848e-06
-8.79357e-07
-2.57296e-06
-9.11446e-07
-2.67834e-06
-9.54881e-07
-2.80994e-06
-1.00942e-06
-2.97628e-06
-1.07285e-06
-3.18348e-06
-1.14042e-06
-3.43298e-06
-1.20457e-06
-3.71879e-06
-1.25499e-06
-4.0249e-06
-1.27946e-06
-4.32342e-06
-1.26533e-06
-4.57409e-06
-1.20208e-06
-4.72662e-06
-1.08459e-06
-4.72697e-06
-9.16469e-07
-4.52867e-06
-7.12115e-07
-4.10818e-06
-4.9549e-07
-3.47948e-06
-2.94885e-07
-2.69891e-06
-1.35597e-07
-1.85264e-06
-3.4613e-08
-1.03064e-06
-3.01424e-07
-6.75612e-07
-1.41133e-06
-6.84945e-07
-1.56123e-06
-6.92816e-07
-1.70189e-06
-6.99285e-07
-1.83229e-06
-7.04539e-07
-1.95168e-06
-7.08936e-07
-2.05971e-06
-7.13056e-07
-2.1566e-06
-7.17765e-07
-2.24333e-06
-7.24267e-07
-2.32192e-06
-7.34129e-07
-2.39573e-06
-7.49246e-07
-2.46969e-06
-7.71706e-07
-2.5505e-06
-8.03516e-07
-2.64653e-06
-8.46161e-07
-2.7673e-06
-9.00025e-07
-2.92241e-06
-9.63728e-07
-3.11978e-06
-1.0335e-06
-3.36321e-06
-1.10272e-06
-3.64956e-06
-1.16187e-06
-3.96575e-06
-1.19902e-06
-4.28627e-06
-1.20117e-06
-4.57194e-06
-1.15656e-06
-4.77123e-06
-1.05795e-06
-4.82558e-06
-9.06346e-07
-4.68027e-06
-7.13749e-07
-4.30078e-06
-5.02933e-07
-3.6903e-06
-3.02799e-07
-2.89904e-06
-1.40739e-07
-2.0147e-06
-3.63481e-08
-1.13503e-06
-3.37772e-07
-5.22366e-07
-1.3966e-06
-5.36102e-07
-1.5475e-06
-5.48753e-07
-1.68924e-06
-5.60307e-07
-1.82073e-06
-5.70849e-07
-1.94114e-06
-5.80603e-07
-2.04996e-06
-5.89984e-07
-2.14722e-06
-5.99657e-07
-2.23365e-06
-6.106e-07
-2.31098e-06
-6.24154e-07
-2.38217e-06
-6.42022e-07
-2.45182e-06
-6.66191e-07
-2.52633e-06
-6.98713e-07
-2.614e-06
-7.41326e-07
-2.72468e-06
-7.9491e-07
-2.86883e-06
-8.58817e-07
-3.05587e-06
-9.30187e-07
-3.29184e-06
-1.00338e-06
-3.57637e-06
-1.06973e-06
-3.8994e-06
-1.11782e-06
-4.23818e-06
-1.13455e-06
-4.55521e-06
-1.10723e-06
-4.79855e-06
-1.0268e-06
-4.90601e-06
-8.91762e-07
-4.81531e-06
-7.11637e-07
-4.4809e-06
-5.07717e-07
-3.89422e-06
-3.09162e-07
-3.09759e-06
-1.45197e-07
-2.17866e-06
-3.79192e-08
-1.24231e-06
-3.75691e-07
-3.65676e-07
-1.37794e-06
-3.83807e-07
-1.52936e-06
-4.01284e-07
-1.67176e-06
-4.18034e-07
-1.80398e-06
-4.3406e-07
-1.92511e-06
-4.49474e-07
-2.03454e-06
-4.64542e-07
-2.13215e-06
-4.79745e-07
-2.21845e-06
-4.95846e-07
-2.29488e-06
-5.1395e-07
-2.36407e-06
-5.3554e-07
-2.43023e-06
-5.62439e-07
-2.49943e-06
-5.96655e-07
-2.57979e-06
-6.40067e-07
-2.68127e-06
-6.93923e-07
-2.81497e-06
-7.58194e-07
-2.9916e-06
-8.30851e-07
-3.21919e-06
-9.07209e-07
-3.50001e-06
-9.79515e-07
-3.8271e-06
-1.03701e-06
-4.18068e-06
-1.06673e-06
-4.52549e-06
-1.05535e-06
-4.80993e-06
-9.92241e-07
-4.96912e-06
-8.73573e-07
-4.93398e-06
-7.06355e-07
-4.64812e-06
-5.10166e-07
-4.09041e-06
-3.14107e-07
-3.29365e-06
-1.49004e-07
-2.34377e-06
-3.93241e-08
-1.35199e-06
-4.15015e-07
-2.06512e-07
-1.35542e-06
-2.28994e-07
-1.50688e-06
-2.51289e-07
-1.64947e-06
-2.73278e-07
-1.78199e-06
-2.94898e-07
-1.90349e-06
-3.16165e-07
-2.01328e-06
-3.37218e-07
-2.1111e-06
-3.58373e-07
-2.1973e-06
-3.8019e-07
-2.27306e-06
-4.03543e-07
-2.34072e-06
-4.29679e-07
-2.40409e-06
-4.60219e-07
-2.46889e-06
-4.97055e-07
-2.54295e-06
-5.42106e-07
-2.63622e-06
-5.96874e-07
-2.7602e-06
-6.61831e-07
-2.92665e-06
-7.35685e-07
-3.14533e-06
-8.14657e-07
-3.42104e-06
-8.91933e-07
-3.74982e-06
-9.57522e-07
-4.11509e-06
-9.98788e-07
-4.48422e-06
-1.00202e-06
-4.8067e-06
-9.55292e-07
-5.01585e-06
-8.52627e-07
-5.03664e-06
-6.98525e-07
-4.80222e-06
-5.10665e-07
-4.27827e-06
-3.17825e-07
-3.48649e-06
-1.52219e-07
-2.50937e-06
-4.05694e-08
-1.46364e-06
-4.55585e-07
-4.58512e-08
-1.32913e-06
-7.26157e-08
-1.48012e-06
-9.96868e-08
-1.6224e-06
-1.26913e-07
-1.75477e-06
-1.54172e-07
-1.87623e-06
-1.814e-07
-1.98605e-06
-2.08631e-07
-2.08386e-06
-2.36033e-07
-2.16989e-06
-2.6398e-07
-2.24511e-06
-2.93129e-07
-2.31157e-06
-3.24486e-07
-2.37273e-06
-3.59444e-07
-2.43393e-06
-3.99732e-07
-2.50266e-06
-4.47224e-07
-2.58873e-06
-5.03573e-07
-2.70385e-06
-5.69637e-07
-2.86058e-06
-6.44761e-07
-3.07021e-06
-7.26008e-07
-3.33979e-06
-8.07497e-07
-3.66833e-06
-8.80074e-07
-4.04251e-06
-9.31594e-07
-4.4327e-06
-9.48186e-07
-4.79011e-06
-9.16881e-07
-5.04715e-06
-8.29735e-07
-5.12379e-06
-6.88778e-07
-4.94318e-06
-5.09644e-07
-4.4574e-06
-3.20553e-07
-3.67558e-06
-1.54934e-07
-2.67499e-06
-4.16709e-08
-1.5769e-06
-4.97256e-07
1.1533e-07
-1.29917e-06
8.43652e-08
-1.44915e-06
5.25848e-08
-1.59062e-06
2.01696e-08
-1.72235e-06
-1.27251e-08
-1.84334e-06
-4.59682e-08
-1.9528e-06
-7.94872e-08
-2.05035e-06
-1.13328e-07
-2.13605e-06
-1.47692e-07
-2.21075e-06
-1.8304e-07
-2.27622e-06
-2.20145e-07
-2.33563e-06
-2.6016e-07
-2.39392e-06
-3.04614e-07
-2.45821e-06
-3.55276e-07
-2.53807e-06
-4.13856e-07
-2.64527e-06
-4.81496e-07
-2.79294e-06
-5.58075e-07
-2.99363e-06
-6.41418e-07
-3.25645e-06
-7.26553e-07
-3.58319e-06
-8.05208e-07
-3.96386e-06
-8.65849e-07
-4.37206e-06
-8.94647e-07
-4.76131e-06
-8.77819e-07
-5.06398e-06
-8.05644e-07
-5.19596e-06
-6.77733e-07
-5.07109e-06
-5.07554e-07
-4.62758e-06
-3.22561e-07
-3.86058e-06
-1.57267e-07
-2.84029e-06
-4.26528e-08
-1.69152e-06
-5.39908e-07
2.76095e-07
-1.26561e-06
2.41003e-07
-1.41406e-06
2.04576e-07
-1.55419e-06
1.67014e-07
-1.68479e-06
1.28521e-07
-1.80484e-06
8.92836e-08
-1.91357e-06
4.9447e-08
-2.01051e-06
9.08347e-09
-2.09569e-06
-3.18897e-08
-2.16978e-06
-7.37176e-08
-2.23439e-06
-1.16957e-07
-2.29239e-06
-1.62525e-07
-2.34835e-06
-2.1173e-07
-2.409e-06
-2.66189e-07
-2.48361e-06
-3.27599e-07
-2.58386e-06
-3.97286e-07
-2.72325e-06
-4.75566e-07
-2.91535e-06
-5.60945e-07
-3.17107e-06
-6.49314e-07
-3.49483e-06
-7.33302e-07
-3.87987e-06
-8.02086e-07
-4.30328e-06
-8.42046e-07
-4.72135e-06
-8.38793e-07
-5.06723e-06
-7.81018e-07
-5.25374e-06
-6.65973e-07
-5.18613e-06
-5.0485e-07
-4.78871e-06
-3.24147e-07
-4.04128e-06
-1.59355e-07
-3.00508e-06
-4.3548e-08
-1.80732e-06
-5.83456e-07
4.35512e-07
-1.2285e-06
3.96367e-07
-1.37491e-06
3.55369e-07
-1.51319e-06
3.12737e-07
-1.64216e-06
2.68704e-07
-1.76081e-06
2.23506e-07
-1.86837e-06
1.77358e-07
-1.96436e-06
1.30424e-07
-2.04876e-06
8.2781e-08
-2.12213e-06
3.43197e-08
-2.18593e-06
-1.53082e-08
-2.24276e-06
-6.67876e-08
-2.29687e-06
-1.21194e-07
-2.3546e-06
-1.79964e-07
-2.42484e-06
-2.44719e-07
-2.51911e-06
-3.16894e-07
-2.65108e-06
-3.97144e-07
-2.8351e-06
-4.84573e-07
-3.08364e-06
-5.75881e-07
-3.40352e-06
-6.646e-07
-3.79115e-06
-7.40685e-07
-4.22719e-06
-7.90874e-07
-4.67116e-06
-8.00364e-07
-5.05774e-06
-7.56427e-07
-5.29767e-06
-6.54026e-07
-5.28853e-06
-5.01974e-07
-4.94076e-06
-3.2562e-07
-4.21763e-06
-1.61357e-07
-3.16934e-06
-4.43963e-08
-1.92428e-06
-6.27853e-07
5.92657e-07
-1.18793e-06
5.49525e-07
-1.33178e-06
5.04034e-07
-1.4677e-06
4.56408e-07
-1.59453e-06
4.06915e-07
-1.71132e-06
3.55834e-07
-1.81729e-06
3.03441e-07
-1.91197e-06
2.4999e-07
-1.9953e-06
1.95662e-07
-2.06781e-06
1.40505e-07
-2.13077e-06
8.4353e-08
-2.18661e-06
2.67375e-08
-2.23925e-06
-3.31886e-08
-2.29467e-06
-9.66582e-08
-2.36137e-06
-1.65178e-07
-2.45059e-06
-2.4022e-07
-2.57604e-06
-3.22698e-07
-2.75262e-06
-4.12231e-07
-2.99411e-06
-5.06266e-07
-3.30948e-06
-5.99224e-07
-3.6982e-06
-6.81892e-07
-4.14452e-06
-7.41484e-07
-4.61157e-06
-7.6296e-07
-5.03627e-06
-7.32338e-07
-5.3283e-06
-6.42356e-07
-5.37852e-06
-4.99342e-07
-5.08377e-06
-3.27295e-07
-4.38968e-06
-1.6344e-07
-3.3332e-06
-4.52446e-08
-2.04248e-06
-6.73097e-07
7.46618e-07
6.99556e-07
6.49639e-07
5.97108e-07
-1.542e-06
5.42255e-07
-1.65647e-06
4.85398e-07
-1.76043e-06
4.26871e-07
-1.85344e-06
3.66999e-07
-1.93543e-06
3.06064e-07
-2.00687e-06
2.44246e-07
-2.06896e-06
1.81545e-07
-2.12391e-06
1.17692e-07
-2.1754e-06
5.20604e-08
-2.22904e-06
-1.63746e-08
-2.29293e-06
-8.8966e-08
-2.378e-06
-1.67177e-07
-2.49783e-06
-2.52105e-07
-2.6677e-06
-3.43802e-07
-2.90241e-06
-4.40405e-07
-3.21288e-06
-5.37196e-07
-3.6014e-06
-6.25829e-07
-4.05589e-06
-6.94099e-07
-4.5433e-06
-7.26883e-07
-5.00348e-06
-7.09108e-07
-5.34607e-06
-6.31348e-07
-5.45628e-06
-4.97331e-07
-5.21779e-06
-3.29483e-07
-4.55753e-06
-1.65788e-07
-3.49689e-06
-4.61456e-08
-2.16212e-06
-7.19243e-07
7.33919e-07
-1.48467e-06
6.73828e-07
-1.59637e-06
6.11339e-07
-1.69794e-06
5.46831e-07
-1.78893e-06
4.80696e-07
-1.8693e-06
4.13303e-07
-1.93948e-06
3.44947e-07
-2.0006e-06
2.75775e-07
-2.05474e-06
2.057e-07
-2.10532e-06
1.34303e-07
-2.15764e-06
6.07689e-08
-2.2194e-06
-1.60963e-08
-2.30113e-06
-9.76835e-08
-2.41624e-06
-1.85224e-07
-2.58016e-06
-2.79134e-07
-2.8085e-06
-3.7817e-07
-3.11384e-06
-4.78447e-07
-3.50113e-06
-5.72507e-07
-3.96183e-06
-6.48814e-07
-4.46699e-06
-6.92311e-07
-4.95998e-06
-6.86982e-07
-5.3514e-06
-6.21299e-07
-5.52196e-06
-4.96267e-07
-5.34282e-06
-3.3248e-07
-4.72132e-06
-1.68585e-07
-3.66079e-06
-4.71574e-08
-2.28355e-06
-7.664e-07
8.65913e-07
-1.42267e-06
8.00749e-07
-1.53121e-06
7.32812e-07
-1.63e-06
6.62527e-07
-1.71865e-06
5.90347e-07
-1.79712e-06
5.16715e-07
-1.86585e-06
4.42026e-07
-1.92591e-06
3.66559e-07
-1.97927e-06
2.90387e-07
-2.02915e-06
2.13284e-07
-2.08054e-06
1.34638e-07
-2.14075e-06
5.34303e-08
-2.21992e-06
-3.16527e-08
-2.33116e-06
-1.21901e-07
-2.48991e-06
-2.18035e-07
-2.71237e-06
-3.19374e-07
-3.0125e-06
-4.22826e-07
-3.39768e-06
-5.21835e-07
-3.86282e-06
-6.05611e-07
-4.38322e-06
-6.59299e-07
-4.9063e-06
-6.66088e-07
-5.34461e-06
-6.12411e-07
-5.57564e-06
-4.96416e-07
-5.45882e-06
-3.36561e-07
-4.88117e-06
-1.72023e-07
-3.82532e-06
-4.83423e-08
-2.40723e-06
-8.14743e-07
9.92191e-07
-1.35617e-06
9.22155e-07
-1.46117e-06
8.49003e-07
-1.55685e-06
7.73203e-07
-1.64285e-06
6.95257e-07
-1.71917e-06
6.15677e-07
-1.78627e-06
5.34944e-07
-1.84518e-06
4.53449e-07
-1.89778e-06
3.71409e-07
-1.94711e-06
2.88773e-07
-1.9979e-06
2.05119e-07
-2.0571e-06
1.19603e-07
-2.13441e-06
3.10212e-08
-2.24257e-06
-6.19471e-08
-2.39694e-06
-1.60274e-07
-2.61404e-06
-2.63773e-07
-2.90901e-06
-3.70108e-07
-3.29134e-06
-4.73628e-07
-3.7593e-06
-5.6436e-07
-4.29249e-06
-6.27781e-07
-4.84288e-06
-6.46433e-07
-5.32596e-06
-6.0478e-07
-5.61729e-06
-4.97971e-07
-5.56563e-06
-3.41974e-07
-5.03717e-06
-1.76291e-07
-3.99101e-06
-4.9767e-08
-2.53375e-06
-8.6451e-07
1.11187e-06
-1.28538e-06
1.03722e-06
-1.38652e-06
9.59143e-07
-1.47878e-06
8.78151e-07
-1.56186e-06
7.94788e-07
-1.63581e-06
7.09625e-07
-1.7011e-06
6.23216e-07
-1.75877e-06
5.3605e-07
-1.81061e-06
4.48472e-07
-1.85953e-06
3.60583e-07
-1.91002e-06
2.72137e-07
-1.96865e-06
1.82463e-07
-2.04474e-06
9.04723e-08
-2.15058e-06
-5.16943e-09
-2.3013e-06
-1.05579e-07
-2.51363e-06
-2.11062e-07
-2.80352e-06
-3.1999e-07
-3.18241e-06
-4.2761e-07
-3.65168e-06
-5.24826e-07
-4.19527e-06
-5.97572e-07
-4.77013e-06
-6.27905e-07
-5.29562e-06
-5.98394e-07
-5.6468e-06
-5.01044e-07
-5.66298e-06
-3.48929e-07
-5.18928e-06
-1.81578e-07
-4.15836e-06
-5.15016e-08
-2.66383e-06
-9.16011e-07
1.22411e-06
-1.2106e-06
1.14516e-06
-1.30758e-06
1.06253e-06
-1.39614e-06
9.76737e-07
-1.47606e-06
8.88379e-07
-1.54745e-06
7.98074e-07
-1.6108e-06
7.06441e-07
-1.66714e-06
6.1405e-07
-1.71822e-06
5.21354e-07
-1.76684e-06
4.28593e-07
-1.81725e-06
3.35679e-07
-1.87574e-06
2.42102e-07
-1.95116e-06
1.46899e-07
-2.05538e-06
4.87705e-08
-2.20317e-06
-5.35984e-08
-2.41126e-06
-1.60874e-07
-2.69625e-06
-2.72097e-07
-3.07119e-06
-3.83416e-07
-3.54036e-06
-4.86667e-07
-4.09202e-06
-5.68373e-07
-4.68842e-06
-6.10266e-07
-5.25373e-06
-5.93119e-07
-5.66395e-06
-5.05655e-07
-5.75044e-06
-3.5759e-07
-5.33735e-06
-1.88067e-07
-4.32788e-06
-5.36195e-08
-2.79828e-06
-9.69631e-07
1.32814e-06
-1.13218e-06
1.2453e-06
-1.22474e-06
1.15854e-06
-1.30938e-06
1.06842e-06
-1.38595e-06
9.75571e-07
-1.4546e-06
8.80646e-07
-1.51587e-06
7.8432e-07
-1.57081e-06
6.87234e-07
-1.62113e-06
5.89935e-07
-1.66954e-06
4.92777e-07
-1.7201e-06
3.95816e-07
-1.77878e-06
2.98689e-07
-1.85403e-06
2.00555e-07
-1.95725e-06
1.00145e-07
-2.10276e-06
-3.97548e-09
-2.30714e-06
-1.12775e-07
-2.58745e-06
-2.25973e-07
-2.95799e-06
-3.4059e-07
-3.42574e-06
-4.4944e-07
-3.98317e-06
-5.39763e-07
-4.5981e-06
-5.93148e-07
-5.20035e-06
-5.88696e-07
-5.6684e-06
-5.11718e-07
-5.82742e-06
-3.68065e-07
-5.481e-06
-1.95934e-07
-4.50001e-06
-5.61977e-08
-2.93801e-06
-1.02583e-06
1.4233e-06
-1.05057e-06
1.33706e-06
-1.13849e-06
1.24669e-06
-1.21902e-06
1.1528e-06
-1.29206e-06
1.05603e-06
-1.35783e-06
9.57091e-07
-1.41693e-06
8.56687e-07
-1.4704e-06
7.55522e-07
-1.51997e-06
6.54217e-07
-1.56823e-06
5.53228e-07
-1.61911e-06
4.52732e-07
-1.67828e-06
3.52499e-07
-1.7538e-06
2.51804e-07
-1.85655e-06
1.49428e-07
-2.00038e-06
4.38642e-08
-2.20158e-06
-6.62205e-08
-2.47736e-06
-1.81069e-07
-2.84314e-06
-2.9858e-07
-3.30823e-06
-4.12594e-07
-3.86916e-06
-5.11202e-07
-4.49949e-06
-5.76051e-07
-5.1355e-06
-5.84725e-07
-5.65973e-06
-5.19028e-07
-5.89312e-06
-3.80391e-07
-5.61964e-06
-2.05344e-07
-4.67506e-06
-5.93163e-08
-3.08404e-06
-1.08514e-06
1.50909e-06
-9.66301e-07
1.42e-06
-1.0494e-06
1.32664e-06
-1.12565e-06
1.22962e-06
-1.19503e-06
1.1296e-06
-1.25782e-06
1.02732e-06
-1.31465e-06
9.23537e-07
-1.36662e-06
8.18987e-07
-1.41542e-06
7.14358e-07
-1.46361e-06
6.10186e-07
-1.51494e-06
5.0675e-07
-1.57484e-06
4.03937e-07
-1.65099e-06
3.01126e-07
-1.75374e-06
1.97152e-07
-1.89641e-06
9.04385e-08
-2.09487e-06
-2.05986e-08
-2.36633e-06
-1.36742e-07
-2.727e-06
-2.56731e-07
-3.18824e-06
-3.75469e-07
-3.75042e-06
-4.82027e-07
-4.39293e-06
-5.58334e-07
-5.05919e-06
-5.8066e-07
-5.6374e-06
-5.27245e-07
-5.94653e-06
-3.94524e-07
-5.75236e-06
-2.16444e-07
-4.85314e-06
-6.30595e-08
-3.23742e-06
-1.1482e-06
1.58519e-06
-8.80003e-07
1.49393e-06
-9.58139e-07
1.39826e-06
-1.02998e-06
1.29882e-06
-1.09559e-06
1.1963e-06
-1.1553e-06
1.09145e-06
-1.20981e-06
9.85059e-07
-1.26022e-06
8.779e-07
-1.30826e-06
7.70704e-07
-1.35641e-06
6.64075e-07
-1.40831e-06
5.58371e-07
-1.46914e-06
4.53575e-07
-1.54619e-06
3.49159e-07
-1.64932e-06
2.44013e-07
-1.79126e-06
1.36515e-07
-1.98737e-06
2.48629e-08
-2.25467e-06
-9.22176e-08
-2.60992e-06
-2.14267e-07
-3.06619e-06
-3.3728e-07
-3.62741e-06
-4.51443e-07
-4.27877e-06
-5.39209e-07
-4.97142e-06
-5.75794e-07
-5.60081e-06
-5.3588e-07
-5.98645e-06
-4.10316e-07
-5.87792e-06
-2.29361e-07
-5.0341e-06
-6.75177e-08
-3.39927e-06
-1.21572e-06
1.65155e-06
-7.92378e-07
1.55885e-06
-8.65437e-07
1.46164e-06
-9.32782e-07
1.36059e-06
-9.94534e-07
1.25639e-06
-1.05111e-06
1.14982e-06
-1.10323e-06
1.04167e-06
-1.15208e-06
9.32756e-07
-1.19934e-06
8.23828e-07
-1.24748e-06
7.15537e-07
-1.30002e-06
6.08304e-07
-1.36191e-06
5.02187e-07
-1.44007e-06
3.96736e-07
-1.54387e-06
2.90889e-07
-1.68542e-06
1.82999e-07
-1.87948e-06
7.10808e-08
-2.14276e-06
-4.65675e-08
-2.49227e-06
-1.70273e-07
-2.94249e-06
-2.97107e-07
-3.50057e-06
-4.18513e-07
-4.15737e-06
-5.17733e-07
-4.8722e-06
-5.69248e-07
-5.5493e-06
-5.44272e-07
-6.01142e-06
-4.275e-07
-5.9947e-06
-2.44196e-07
-5.2174e-06
-7.27923e-08
-3.57067e-06
-1.28851e-06
1.70841e-06
-7.04201e-07
1.61508e-06
-7.72108e-07
1.51719e-06
-8.34892e-07
1.4154e-06
-8.92743e-07
1.31043e-06
-9.46136e-07
1.20306e-06
-9.95859e-07
1.09408e-06
-1.0431e-06
9.84329e-07
-1.08959e-06
8.74573e-07
-1.13773e-06
7.65484e-07
-1.19093e-06
6.57524e-07
-1.25395e-06
5.50802e-07
-1.33335e-06
4.44929e-07
-1.438e-06
3.38888e-07
-1.57938e-06
2.31013e-07
-1.7716e-06
1.19167e-07
-2.03091e-06
1.25257e-09
-2.37436e-06
-1.23666e-07
-2.81757e-06
-2.53865e-07
-3.37037e-06
-3.82134e-07
-4.0291e-06
-4.92787e-07
-4.76155e-06
-5.59952e-07
-5.48213e-06
-5.5157e-07
-6.0198e-06
-4.45669e-07
-6.1006e-06
-2.61012e-07
-5.40206e-06
-7.9004e-08
-3.75268e-06
-1.36752e-06
1.75637e-06
-6.16315e-07
1.6633e-06
-6.79036e-07
1.56564e-06
-7.37235e-07
1.46407e-06
-7.91169e-07
1.3593e-06
-8.4137e-07
1.25212e-06
-8.88676e-07
1.14332e-06
-9.3431e-07
1.03373e-06
-9.79992e-07
9.24113e-07
-1.02811e-06
8.15151e-07
-1.08197e-06
7.07318e-07
-1.14611e-06
6.00755e-07
-1.22679e-06
4.9511e-07
-1.33235e-06
3.89404e-07
-1.47367e-06
2.81963e-07
-1.66416e-06
1.70543e-07
-1.91949e-06
5.2754e-08
-2.25657e-06
-7.3097e-08
-2.69172e-06
-2.06262e-07
-3.23721e-06
-3.41017e-07
-3.89434e-06
-4.63061e-07
-4.63951e-06
-5.46629e-07
-5.39857e-06
-5.56709e-07
-6.00972e-06
-4.64245e-07
-6.19306e-06
-2.7983e-07
-5.58647e-06
-8.63088e-08
-3.9462e-06
-1.45383e-06
1.79645e-06
-5.29618e-07
1.70458e-06
-5.87166e-07
1.60814e-06
-6.40799e-07
1.50781e-06
-6.90836e-07
1.4043e-06
-7.37861e-07
1.29838e-06
-7.82755e-07
1.19084e-06
-8.26768e-07
1.08247e-06
-8.71622e-07
9.74026e-07
-9.19669e-07
8.66171e-07
-9.74111e-07
7.59369e-07
-1.03931e-06
6.53764e-07
-1.12118e-06
5.49024e-07
-1.22761e-06
4.44192e-07
-1.36884e-06
3.37592e-07
-1.55756e-06
2.26897e-07
-1.8088e-06
1.09447e-07
-2.13912e-06
-1.69986e-08
-2.56527e-06
-1.52757e-07
-3.10145e-06
-2.93639e-07
-3.75346e-06
-4.27018e-07
-4.50613e-06
-5.27763e-07
-5.29782e-06
-5.5838e-07
-5.97911e-06
-4.82455e-07
-6.26899e-06
-3.00617e-07
-5.76831e-06
-9.4921e-08
-4.1519e-06
-1.54875e-06
1.83018e-06
-4.45067e-07
1.74052e-06
-4.97508e-07
1.64636e-06
-5.46642e-07
1.54837e-06
-5.9284e-07
1.44724e-06
-6.36734e-07
1.34373e-06
-6.79239e-07
1.23858e-06
-7.21622e-07
1.13256e-06
-7.65604e-07
1.02639e-06
-8.13493e-07
9.20669e-07
-8.68394e-07
8.15841e-07
-9.34484e-07
7.12025e-07
-1.01737e-06
6.08886e-07
-1.12448e-06
5.05469e-07
-1.26542e-06
4.001e-07
-1.45219e-06
2.9039e-07
-1.69908e-06
1.73472e-07
-2.0222e-06
4.66181e-08
-2.43842e-06
-9.14678e-08
-2.96336e-06
-2.38175e-07
-3.60675e-06
-3.82843e-07
-4.36146e-06
-5.0156e-07
-5.1791e-06
-5.5499e-07
-5.92568e-06
-4.99285e-07
-6.32469e-06
-3.23258e-07
-5.94434e-06
-1.05144e-07
-4.37001e-06
-1.65389e-06
1.85973e-06
-3.63682e-07
1.77337e-06
-4.11142e-07
1.68262e-06
-4.55892e-07
1.58813e-06
-4.98352e-07
1.49058e-06
-5.39188e-07
1.39068e-06
-5.79339e-07
1.28914e-06
-6.20082e-07
1.18666e-06
-6.63123e-07
1.08389e-06
-7.10723e-07
9.81383e-07
-7.65886e-07
8.79506e-07
-8.32606e-07
7.78333e-07
-9.16195e-07
6.77497e-07
-1.02364e-06
5.76032e-07
-1.16395e-06
4.72254e-07
-1.34841e-06
3.6373e-07
-1.59056e-06
2.47436e-07
-1.9059e-06
1.20232e-07
-2.31122e-06
-2.0063e-08
-2.82307e-06
-1.72415e-07
-3.4544e-06
-3.28372e-07
-4.2055e-06
-4.65881e-07
-5.04159e-06
-5.44598e-07
-5.84696e-06
-5.13429e-07
-6.35586e-06
-3.47529e-07
-6.11024e-06
-1.17407e-07
-4.60013e-06
-1.7713e-06
1.88811e-06
-2.86555e-07
1.80619e-06
-3.2922e-07
1.72005e-06
-3.69755e-07
1.63031e-06
-4.08614e-07
1.53761e-06
-4.46487e-07
1.4426e-06
-4.84327e-07
1.34593e-06
-5.23408e-07
1.24822e-06
-5.65409e-07
1.15003e-06
-6.12536e-07
1.05183e-06
-6.67687e-07
9.539e-07
-7.34676e-07
8.56235e-07
-8.18529e-07
7.58407e-07
-9.25811e-07
6.59413e-07
-1.06496e-06
5.57547e-07
-1.24655e-06
4.50339e-07
-1.48335e-06
3.34643e-07
-1.79021e-06
2.06983e-07
-2.18356e-06
6.43927e-08
-2.68048e-06
-9.36612e-08
-3.29635e-06
-2.6096e-07
-4.0382e-06
-4.18148e-07
-4.88441e-06
-5.24841e-07
-5.74027e-06
-5.232e-07
-6.3575e-06
-3.73024e-07
-6.26041e-06
-1.32286e-07
-4.84087e-06
-1.90359e-06
1.91943e-06
-2.14861e-07
1.84318e-06
-2.52974e-07
1.76293e-06
-2.89505e-07
1.67925e-06
-3.24929e-07
1.59271e-06
-3.59951e-07
1.50391e-06
-3.95521e-07
1.41339e-06
-4.32896e-07
1.3217e-06
-4.73719e-07
1.2293e-06
-5.20128e-07
1.13652e-06
-5.74907e-07
1.04353e-06
-6.41693e-07
9.50236e-07
-7.25231e-07
8.56107e-07
-8.31681e-07
7.60078e-07
-9.68933e-07
6.60398e-07
-1.14687e-06
5.54547e-07
-1.3775e-06
4.39279e-07
-1.67494e-06
3.10854e-07
-2.05513e-06
1.6569e-07
-2.53531e-06
1.95571e-09
-3.13261e-06
-1.77315e-07
-3.85893e-06
-3.5523e-07
-4.70649e-06
-4.92805e-07
-5.60269e-06
-5.26404e-07
-6.3239e-06
-3.9904e-07
-6.38778e-06
-1.50495e-07
-5.08941e-06
-2.05408e-06
1.95933e-06
-1.49848e-07
1.89005e-06
-1.83699e-07
1.81702e-06
-2.16466e-07
1.74073e-06
-2.48639e-07
1.6617e-06
-2.80921e-07
1.58042e-06
-3.14246e-07
1.49737e-06
-3.49842e-07
1.41295e-06
-3.89298e-07
1.32749e-06
-4.34675e-07
1.24122e-06
-4.88636e-07
1.15416e-06
-5.54631e-07
1.06606e-06
-6.37132e-07
9.76288e-07
-7.41909e-07
8.83675e-07
-8.7632e-07
7.8639e-07
-1.04958e-06
6.81841e-07
-1.27295e-06
5.66675e-07
-1.55977e-06
4.36915e-07
-1.92537e-06
2.8838e-07
-2.38678e-06
1.17827e-07
-2.96206e-06
-7.35121e-08
-3.66759e-06
-2.73254e-07
-4.50675e-06
-4.44815e-07
-5.43113e-06
-5.20125e-07
-6.24859e-06
-4.24384e-07
-6.48352e-06
-1.72815e-07
-5.34098e-06
-2.2269e-06
2.01553e-06
-9.28176e-08
1.95455e-06
-1.22716e-07
1.89006e-06
-1.51972e-07
1.82249e-06
-1.81074e-07
1.75228e-06
-2.10709e-07
1.67982e-06
-2.41785e-07
1.60546e-06
-2.75482e-07
1.52949e-06
-3.13328e-07
1.4521e-06
-3.57287e-07
1.37335e-06
-4.09888e-07
1.29311e-06
-4.74393e-07
1.21098e-06
-5.54998e-07
1.12616e-06
-6.57088e-07
1.03734e-06
-7.87505e-07
9.4258e-07
-9.5482e-07
8.39166e-07
-1.16954e-06
7.23608e-07
-1.44422e-06
5.91701e-07
-1.79346e-06
4.38794e-07
-2.23387e-06
2.60621e-07
-2.78389e-06
5.58438e-08
-3.46282e-06
-1.67355e-07
-4.28355e-06
-3.76133e-07
-5.22235e-06
-5.00426e-07
-6.1243e-06
-4.47076e-07
-6.53687e-06
-1.99921e-07
-5.58814e-06
-2.42682e-06
2.09857e-06
-4.50448e-08
2.04715e-06
-7.12979e-08
1.99245e-06
-9.72789e-08
1.93484e-06
-1.23463e-07
1.87465e-06
-1.50511e-07
1.81215e-06
-1.79288e-07
1.74758e-06
-2.10917e-07
1.6811e-06
-2.46843e-07
1.61273e-06
-2.88924e-07
1.54239e-06
-3.39541e-07
1.46974e-06
-4.01751e-07
1.39421e-06
-4.79468e-07
1.31482e-06
-5.77692e-07
1.23007e-06
-7.02757e-07
1.13784e-06
-8.62592e-07
1.03526e-06
-1.06695e-06
9.18621e-07
-1.32758e-06
7.83469e-07
-1.65831e-06
6.24715e-07
-2.07512e-06
4.37164e-07
-2.59633e-06
2.17329e-07
-3.24298e-06
-3.04287e-08
-4.03579e-06
-2.80708e-07
-4.97207e-06
-4.61985e-07
-5.94302e-06
-4.63903e-07
-6.53495e-06
-2.32039e-07
-5.82e-06
-2.65886e-06
2.22262e-06
-7.65832e-09
2.18186e-06
-3.05424e-08
2.13802e-06
-5.34392e-08
2.09137e-06
-7.68127e-08
2.04214e-06
-1.01281e-07
1.99051e-06
-1.27655e-07
1.93658e-06
-1.56984e-07
1.88035e-06
-1.9062e-07
1.82172e-06
-2.30294e-07
1.76041e-06
-2.78224e-07
1.6959e-06
-3.37243e-07
1.6274e-06
-4.10969e-07
1.55371e-06
-5.04005e-07
1.47312e-06
-6.22168e-07
1.38327e-06
-7.72739e-07
1.28103e-06
-9.64708e-07
1.16242e-06
-1.20898e-06
1.02264e-06
-1.51853e-06
8.56136e-07
-1.90861e-06
6.56885e-07
-2.39708e-06
4.19485e-07
-3.00558e-06
1.43587e-07
-3.7599e-06
-1.5119e-07
-4.6773e-06
-3.97441e-07
-5.69677e-06
-4.698e-07
-6.46259e-06
-2.68401e-07
-6.0214e-06
-2.92726e-06
2.40644e-06
1.85752e-08
2.37709e-06
-1.19277e-09
2.34477e-06
-2.11221e-08
2.30969e-06
-4.17298e-08
2.27197e-06
-6.35641e-08
2.23169e-06
-8.73696e-08
2.18882e-06
-1.1411e-07
2.14322e-06
-1.45027e-07
2.09464e-06
-1.8171e-07
2.0426e-06
-2.26189e-07
1.98641e-06
-2.81053e-07
1.92504e-06
-3.49599e-07
1.85705e-06
-4.36009e-07
1.78044e-06
-5.45561e-07
1.69257e-06
-6.84864e-07
1.58996e-06
-8.62103e-07
1.46827e-06
-1.08729e-06
1.32222e-06
-1.37248e-06
1.14568e-06
-1.73206e-06
9.31819e-07
-2.18323e-06
6.73726e-07
-2.74749e-06
3.67528e-07
-3.4537e-06
2.55855e-08
-4.33535e-06
-2.96915e-07
-5.37427e-06
-4.57219e-07
-6.30229e-06
-3.06445e-07
-6.17218e-06
-3.2337e-06
2.67414e-06
3.34151e-08
2.65626e-06
1.66941e-08
2.63555e-06
-4.17137e-10
2.61202e-06
-1.81998e-08
2.58575e-06
-3.72913e-08
2.55669e-06
-5.83075e-08
2.5247e-06
-8.21212e-08
2.48952e-06
-1.09849e-07
2.45073e-06
-1.42918e-07
2.40769e-06
-1.83148e-07
2.35949e-06
-2.32857e-07
2.30488e-06
-2.94986e-07
2.24213e-06
-3.73264e-07
2.16896e-06
-4.72388e-07
2.08235e-06
-5.98249e-07
1.97841e-06
-7.5817e-07
1.85231e-06
-9.61184e-07
1.69814e-06
-1.21831e-06
1.50902e-06
-1.54295e-06
1.27723e-06
-1.95143e-06
9.94442e-07
-2.4647e-06
6.53141e-07
-3.1124e-06
2.56049e-07
-3.93826e-06
-1.47517e-07
-4.97071e-06
-4.14734e-07
-6.03507e-06
-3.40741e-07
-6.24617e-06
-3.57444e-06
3.0551e-06
3.75517e-08
3.04802e-06
2.37699e-08
3.03804e-06
9.56359e-09
3.02522e-06
-5.38162e-09
3.00949e-06
-2.15553e-08
2.9907e-06
-3.95242e-08
2.96863e-06
-6.00466e-08
2.94288e-06
-8.40992e-08
2.91289e-06
-1.12927e-07
2.87785e-06
-1.48113e-07
2.83667e-06
-1.91672e-07
2.78783e-06
-2.46155e-07
2.72936e-06
-3.14789e-07
2.65861e-06
-4.0164e-07
2.57217e-06
-5.11811e-07
2.46568e-06
-6.51677e-07
2.33368e-06
-8.2918e-07
2.16951e-06
-1.05414e-06
1.96535e-06
-1.33879e-06
1.7123e-06
-1.69839e-06
1.40066e-06
-2.15306e-06
1.02015e-06
-2.73189e-06
5.66309e-07
-3.48442e-06
7.25145e-08
-4.47691e-06
-3.26181e-07
-5.63637e-06
-3.62319e-07
-6.21003e-06
-3.93676e-06
3.58288e-06
3.27839e-08
3.58472e-06
2.19234e-08
3.58365e-06
1.06411e-08
3.5796e-06
-1.333e-09
3.57247e-06
-1.44302e-08
3.56204e-06
-2.90895e-08
3.54796e-06
-4.5969e-08
3.52975e-06
-6.58874e-08
3.50671e-06
-8.98864e-08
3.47788e-06
-1.19289e-07
3.44199e-06
-1.55775e-07
3.3973e-06
-2.01464e-07
3.34154e-06
-2.59035e-07
3.27176e-06
-3.31854e-07
3.18411e-06
-4.24162e-07
3.0737e-06
-5.41268e-07
2.93439e-06
-6.89876e-07
2.75865e-06
-8.78392e-07
2.53748e-06
-1.11762e-06
2.26053e-06
-1.42144e-06
1.91641e-06
-1.80893e-06
1.49247e-06
-2.30796e-06
9.76809e-07
-2.96875e-06
3.80748e-07
-3.88085e-06
-1.67415e-07
-5.08821e-06
-3.59356e-07
-6.01809e-06
-4.29612e-06
4.29153e-06
2.21834e-08
4.29922e-06
1.42247e-08
4.30396e-06
5.90356e-09
4.30567e-06
-3.04554e-09
4.30417e-06
-1.29224e-08
4.29915e-06
-2.40716e-08
4.29021e-06
-3.70305e-08
4.27677e-06
-5.2446e-08
4.25802e-06
-7.11397e-08
4.23288e-06
-9.41518e-08
4.19991e-06
-1.22799e-07
4.15718e-06
-1.58735e-07
4.10219e-06
-2.04046e-07
4.03168e-06
-2.61339e-07
3.94143e-06
-3.33913e-07
3.82604e-06
-4.25885e-07
3.67872e-06
-5.42549e-07
3.49093e-06
-6.90607e-07
3.25239e-06
-8.79082e-07
2.95088e-06
-1.11993e-06
2.5728e-06
-1.43085e-06
2.10293e-06
-1.83809e-06
1.52424e-06
-2.39006e-06
8.27607e-07
-3.18422e-06
1.06723e-07
-4.36733e-06
-3.00097e-07
-5.61127e-06
-4.59622e-06
5.20871e-06
9.94729e-09
5.21817e-06
4.76423e-09
5.22468e-06
-6.01677e-10
5.22827e-06
-6.64048e-09
5.2286e-06
-1.32491e-08
5.22536e-06
-2.08331e-08
5.21809e-06
-2.97566e-08
5.20612e-06
-4.04836e-08
5.18859e-06
-5.36049e-08
5.1643e-06
-6.98625e-08
5.13169e-06
-9.01927e-08
5.08872e-06
-1.1576e-07
5.0327e-06
-1.48033e-07
4.96019e-06
-1.88822e-07
4.86671e-06
-2.40436e-07
4.74653e-06
-3.05704e-07
4.59235e-06
-3.88367e-07
4.39484e-06
-4.93101e-07
4.14243e-06
-6.26671e-07
3.8207e-06
-7.98201e-07
3.41288e-06
-1.02303e-06
2.89944e-06
-1.32465e-06
2.25903e-06
-1.74965e-06
1.46508e-06
-2.39027e-06
5.64813e-07
-3.46706e-06
-1.02261e-07
-4.9442e-06
-4.69848e-06
6.3457e-06
7.0351e-10
6.35246e-06
-1.99974e-09
6.35673e-06
-4.87064e-09
6.35816e-06