/*--------------------------------*- C++ -*----------------------------------*\
  =========                 |
  \\      /  F ield         | OpenFOAM: The Open Source CFD Toolbox
   \\    /   O peration     | Website:  https://openfoam.org
    \\  /    A nd           | Version:  9
     \\/     M anipulation  |
\*---------------------------------------------------------------------------*/
FoamFile
{
    format      ascii;
    class       volVectorField;
    location    "3.5";
    object      U;
}
// * * * * * * * * * * * * * * * * * * * * * * * * * * * * * * * * * * * * * //

dimensions      [0 1 -1 0 0 0 0];

internalField   nonuniform List<vector> 
1250
(
(-0.00336531 0.000156142 0)
(-0.00404653 0.000172133 0)
(-0.00477977 0.000188346 0)
(-0.00556354 0.00020454 0)
(-0.00639535 0.000220436 0)
(-0.00727167 0.000235719 0)
(-0.00818779 0.000250046 0)
(-0.00913784 0.000263041 0)
(-0.0101148 0.000274309 0)
(-0.0111103 0.000283437 0)
(-0.012115 0.000290004 0)
(-0.0131182 0.000293592 0)
(-0.0141085 0.000293795 0)
(-0.0150734 0.000290231 0)
(-0.0159996 0.000282554 0)
(-0.0168732 0.000270467 0)
(-0.0176803 0.000253737 0)
(-0.0184065 0.000232206 0)
(-0.0190376 0.000205805 0)
(-0.01956 0.000174583 0)
(-0.0199608 0.000138755 0)
(-0.0202281 9.86665e-05 0)
(-0.0203518 5.46441e-05 0)
(-0.0203222 7.22864e-06 0)
(-0.0201321 -4.33744e-05 0)
(-0.0197779 -9.59633e-05 0)
(-0.0192573 -0.000149538 0)
(-0.0185712 -0.000203081 0)
(-0.0177236 -0.000255477 0)
(-0.0167216 -0.000305542 0)
(-0.0155753 -0.000352062 0)
(-0.0142983 -0.000393837 0)
(-0.0129071 -0.000429723 0)
(-0.0128081 0.00129871 0)
(-0.0148599 0.00139911 0)
(-0.01704 0.00149703 0)
(-0.0193405 0.0015906 0)
(-0.0217503 0.00167782 0)
(-0.0242557 0.00175655 0)
(-0.02684 0.00182455 0)
(-0.0294834 0.00187954 0)
(-0.0321635 0.00191926 0)
(-0.034855 0.00194146 0)
(-0.0375306 0.00194403 0)
(-0.0401603 0.00192501 0)
(-0.0427128 0.00188267 0)
(-0.0451553 0.00181557 0)
(-0.0474543 0.00172258 0)
(-0.049576 0.00160299 0)
(-0.0514866 0.00145652 0)
(-0.0531537 0.00128335 0)
(-0.0545459 0.00108418 0)
(-0.0556341 0.000860314 0)
(-0.056392 0.000613656 0)
(-0.0567972 0.000346476 0)
(-0.0568308 6.10496e-05 0)
(-0.0564775 -0.000236871 0)
(-0.0557267 -0.000544878 0)
(-0.0545749 -0.000858158 0)
(-0.053024 -0.00117151 0)
(-0.0510817 -0.0014795 0)
(-0.0487619 -0.00177644 0)
(-0.0460853 -0.00205649 0)
(-0.0430786 -0.00231384 0)
(-0.039775 -0.00254286 0)
(-0.0362134 -0.00273825 0)
(-0.0247019 0.00396148 0)
(-0.0281194 0.00422705 0)
(-0.0317148 0.00447959 0)
(-0.0354699 0.00471366 0)
(-0.0393624 0.00492352 0)
(-0.0433657 0.0051033 0)
(-0.0474491 0.00524707 0)
(-0.0515778 0.005349 0)
(-0.0557138 0.0054035 0)
(-0.0598156 0.00540537 0)
(-0.0638396 0.00534993 0)
(-0.0677399 0.00523318 0)
(-0.0714697 0.00505193 0)
(-0.0749815 0.00480388 0)
(-0.0782284 0.00448777 0)
(-0.0811643 0.00410344 0)
(-0.0837452 0.00365189 0)
(-0.0859295 0.00313533 0)
(-0.087679 0.00255723 0)
(-0.0889594 0.00192233 0)
(-0.0897417 0.00123666 0)
(-0.0900024 0.000507307 0)
(-0.0897211 -0.000258695 0)
(-0.0888849 -0.00104881 0)
(-0.0874899 -0.00185398 0)
(-0.0855365 -0.00266318 0)
(-0.0830335 -0.00346421 0)
(-0.0799965 -0.00424432 0)
(-0.0764491 -0.0049904 0)
(-0.0724221 -0.00568927 0)
(-0.0679537 -0.00632793 0)
(-0.0630893 -0.00689392 0)
(-0.0578808 -0.00737561 0)
(-0.0387602 0.0079656 0)
(-0.0435129 0.00843731 0)
(-0.0484646 0.0088747 0)
(-0.0535848 0.00926733 0)
(-0.0588379 0.00960455 0)
(-0.0641831 0.00987574 0)
(-0.069575 0.0100706 0)
(-0.0749645 0.0101793 0)
(-0.0802992 0.010193 0)
(-0.0855245 0.0101038 0)
(-0.0905839 0.00990503 0)
(-0.0954206 0.00959174 0)
(-0.0999782 0.0091605 0)
(-0.104202 0.0086097 0)
(-0.108037 0.00793962 0)
(-0.111436 0.00715247 0)
(-0.11435 0.00625241 0)
(-0.116737 0.00524558 0)
(-0.118562 0.00414001 0)
(-0.11979 0.00294551 0)
(-0.120398 0.00167343 0)
(-0.120366 0.000337371 0)
(-0.119679 -0.00104457 0)
(-0.118329 -0.00245973 0)
(-0.116318 -0.00388962 0)
(-0.113655 -0.0053152 0)
(-0.110353 -0.00671669 0)
(-0.106435 -0.00807363 0)
(-0.10193 -0.00936525 0)
(-0.0968736 -0.0105708 0)
(-0.0913111 -0.0116699 0)
(-0.0852927 -0.012643 0)
(-0.0788759 -0.0134721 0)
(-0.0546545 0.0132584 0)
(-0.0606774 0.0139484 0)
(-0.0668922 0.0145697 0)
(-0.0732546 0.0151061 0)
(-0.0797149 0.0155418 0)
(-0.0862187 0.0158611 0)
(-0.0927076 0.0160499 0)
(-0.0991205 0.0160951 0)
(-0.105394 0.0159855 0)
(-0.111466 0.0157121 0)
(-0.117271 0.0152681 0)
(-0.122749 0.0146494 0)
(-0.127839 0.0138542 0)
(-0.132487 0.0128837 0)
(-0.136639 0.0117417 0)
(-0.140248 0.0104346 0)
(-0.143271 0.0089714 0)
(-0.145672 0.00736355 0)
(-0.147418 0.00562477 0)
(-0.148485 0.00377091 0)
(-0.148853 0.00181962 0)
(-0.148506 -0.000208938 0)
(-0.147439 -0.00229025 0)
(-0.145651 -0.00440507 0)
(-0.143147 -0.00652787 0)
(-0.139938 -0.00863263 0)
(-0.136042 -0.0106926 0)
(-0.131484 -0.0126802 0)
(-0.126294 -0.0145677 0)
(-0.120511 -0.0163274 0)
(-0.114178 -0.0179321 0)
(-0.107346 -0.0193556 0)
(-0.100073 -0.0205734 0)
(-0.0720141 0.0197829 0)
(-0.0792071 0.0206766 0)
(-0.0865579 0.0214533 0)
(-0.0940089 0.0220911 0)
(-0.101498 0.0225694 0)
(-0.108959 0.0228688 0)
(-0.116325 0.0229724 0)
(-0.123526 0.0228659 0)
(-0.130495 0.0225377 0)
(-0.137165 0.0219798 0)
(-0.143471 0.0211874 0)
(-0.149353 0.0201594 0)
(-0.154756 0.018898 0)
(-0.159627 0.0174088 0)
(-0.16392 0.0157006 0)
(-0.167595 0.0137852 0)
(-0.170616 0.0116774 0)
(-0.172955 0.00939411 0)
(-0.174586 0.0069551 0)
(-0.175491 0.00438212 0)
(-0.175657 0.00169915 0)
(-0.175073 -0.00106814 0)
(-0.173739 -0.00389384 0)
(-0.171655 -0.00674753 0)
(-0.168829 -0.00959898 0)
(-0.165273 -0.0124167 0)
(-0.161003 -0.015168 0)
(-0.156043 -0.0178193 0)
(-0.150421 -0.0203367 0)
(-0.144172 -0.0226861 0)
(-0.137338 -0.0248339 0)
(-0.129964 -0.0267477 0)
(-0.122105 -0.0283965 0)
(-0.0904416 0.0274357 0)
(-0.0986735 0.028493 0)
(-0.107006 0.029372 0)
(-0.115372 0.0300462 0)
(-0.123699 0.0304916 0)
(-0.131914 0.0306873 0)
(-0.139945 0.030616 0)
(-0.147721 0.0302641 0)
(-0.155175 0.0296225 0)
(-0.162243 0.0286864 0)
(-0.168864 0.0274553 0)
(-0.174986 0.0259327 0)
(-0.180558 0.0241263 0)
(-0.185538 0.0220471 0)
(-0.189889 0.0197096 0)
(-0.193578 0.0171312 0)
(-0.196579 0.014332 0)
(-0.198868 0.0113344 0)
(-0.200428 0.00816285 0)
(-0.201246 0.00484404 0)
(-0.201312 0.0014065 0)
(-0.200619 -0.00211972 0)
(-0.199165 -0.00570379 0)
(-0.196954 -0.00931145 0)
(-0.193989 -0.0129078 0)
(-0.19028 -0.0164567 0)
(-0.185841 -0.0199203 0)
(-0.18069 -0.0232601 0)
(-0.174851 -0.0264365 0)
(-0.168352 -0.0294096 0)
(-0.161229 -0.0321398 0)
(-0.153522 -0.0345879 0)
(-0.145279 -0.0367167 0)
(-0.109531 0.036082 0)
(-0.118648 0.037242 0)
(-0.127795 0.0381519 0)
(-0.136894 0.038783 0)
(-0.145871 0.0391105 0)
(-0.15465 0.0391142 0)
(-0.16316 0.0387791 0)
(-0.171334 0.0380952 0)
(-0.17911 0.0370579 0)
(-0.186429 0.0356675 0)
(-0.193243 0.0339292 0)
(-0.199505 0.0318523 0)
(-0.205176 0.0294504 0)
(-0.210223 0.02674 0)
(-0.214616 0.0237409 0)
(-0.218331 0.0204754 0)
(-0.221348 0.0169679 0)
(-0.223651 0.0132448 0)
(-0.225224 0.00933445 0)
(-0.226059 0.00526667 0)
(-0.226145 0.00107313 0)
(-0.225477 -0.00321291 0)
(-0.224052 -0.00755725 0)
(-0.221869 -0.011923 0)
(-0.218929 -0.0162719 0)
(-0.215236 -0.0205639 0)
(-0.2108 -0.0247574 0)
(-0.205632 -0.0288092 0)
(-0.199749 -0.0326747 0)
(-0.193172 -0.0363085 0)
(-0.185927 -0.0396649 0)
(-0.17805 -0.0426983 0)
(-0.16958 -0.0453644 0)
(-0.128885 0.0455687 0)
(-0.138726 0.0467565 0)
(-0.148516 0.0476165 0)
(-0.158176 0.0481203 0)
(-0.167631 0.0482452 0)
(-0.17681 0.0479746 0)
(-0.185647 0.047298 0)
(-0.194083 0.0462112 0)
(-0.202063 0.0447156 0)
(-0.209541 0.0428176 0)
(-0.216475 0.0405287 0)
(-0.222831 0.0378641 0)
(-0.228577 0.0348426 0)
(-0.233689 0.0314856 0)
(-0.238145 0.0278171 0)
(-0.241927 0.023863 0)
(-0.245019 0.0196508 0)
(-0.247407 0.0152097 0)
(-0.24908 0.0105699 0)
(-0.250028 0.00576351 0)
(-0.250241 0.000823828 0)
(-0.249712 -0.00421395 0)
(-0.248435 -0.00931366 0)
(-0.246406 -0.0144365 0)
(-0.24362 -0.0195418 0)
(-0.240078 -0.0245867 0)
(-0.235781 -0.0295264 0)
(-0.230734 -0.0343137 0)
(-0.224945 -0.0388995 0)
(-0.218428 -0.0432333 0)
(-0.211202 -0.0472633 0)
(-0.148137 0.0557353 0)
(-0.15854 0.0568704 0)
(-0.168812 0.0575987 0)
(-0.178876 0.057895 0)
(-0.188663 0.0577416 0)
(-0.198109 0.0571275 0)
(-0.207156 0.0560488 0)
(-0.215755 0.0545078 0)
(-0.223861 0.0525126 0)
(-0.231438 0.0500762 0)
(-0.238454 0.0472156 0)
(-0.244883 0.0439511 0)
(-0.250701 0.0403059 0)
(-0.255891 0.0363051 0)
(-0.260435 0.0319755 0)
(-0.26432 0.0273455 0)
(-0.267532 0.0224442 0)
(-0.270061 0.0173021 0)
(-0.271894 0.0119509 0)
(-0.273023 0.00642314 0)
(-0.273435 0.00075312 0)
(-0.273124 -0.00502333 0)
(-0.272079 -0.0108688 0)
(-0.270292 -0.0167435 0)
(-0.267755 -0.0226051 0)
(-0.264463 -0.0284089 0)
(-0.26041 -0.0341076 0)
(-0.255596 -0.0396507 0)
(-0.250019 -0.0449855 0)
(-0.166956 0.0664249 0)
(-0.17777 0.067428 0)
(-0.188379 0.0679488 0)
(-0.198714 0.0679679 0)
(-0.208711 0.067474 0)
(-0.218317 0.0664635 0)
(-0.227484 0.0649397 0)
(-0.236172 0.0629118 0)
(-0.244347 0.0603944 0)
(-0.251981 0.057406 0)
(-0.259049 0.0539684 0)
(-0.265533 0.0501061 0)
(-0.271415 0.0458453 0)
(-0.276682 0.0412137 0)
(-0.281321 0.0362399 0)
(-0.28532 0.0309534 0)
(-0.288669 0.0253844 0)
(-0.291358 0.0195638 0)
(-0.293377 0.0135236 0)
(-0.294715 0.00729649 0)
(-0.295363 0.000916794 0)
(-0.295309 -0.00557983 0)
(-0.294544 -0.0121555 0)
(-0.293055 -0.01877 0)
(-0.290832 -0.0253806 0)
(-0.287864 -0.0319416 0)
(-0.284141 -0.0384039 0)
(-0.279653 -0.0447152 0)
(-0.274395 -0.0508195 0)
(-0.185054 0.0774909 0)
(-0.196144 0.0782898 0)
(-0.206964 0.0785374 0)
(-0.217453 0.0782221 0)
(-0.227559 0.0773401 0)
(-0.237236 0.0758954 0)
(-0.246448 0.0738984 0)
(-0.255161 0.0713649 0)
(-0.26335 0.0683149 0)
(-0.270995 0.0647717 0)
(-0.278077 0.0607608 0)
(-0.284582 0.0563097 0)
(-0.290499 0.051447 0)
(-0.295816 0.0462018 0)
(-0.300524 0.040604 0)
(-0.304616 0.0346837 0)
(-0.308083 0.0284715 0)
(-0.310916 0.0219984 0)
(-0.313109 0.015296 0)
(-0.314651 0.0083968 0)
(-0.315535 0.00133443 0)
(-0.315748 -0.00585599 0)
(-0.315281 -0.0131371 0)
(-0.31412 -0.0204695 0)
(-0.312252 -0.0278106 0)
(-0.309663 -0.0351149 0)
(-0.306339 -0.0423329 0)
(-0.302263 -0.0494114 0)
(-0.297421 -0.0562929 0)
(-0.202186 0.0888006 0)
(-0.213429 0.0893322 0)
(-0.224347 0.0892523 0)
(-0.234889 0.0885572 0)
(-0.245012 0.0872512 0)
(-0.254678 0.0853456 0)
(-0.263859 0.0828572 0)
(-0.272529 0.0798073 0)
(-0.280669 0.0762205 0)
(-0.288264 0.0721241 0)
(-0.2953 0.0675466 0)
(-0.301769 0.0625178 0)
(-0.307661 0.057068 0)
(-0.312972 0.0512278 0)
(-0.317694 0.0450277 0)
(-0.321824 0.0384985 0)
(-0.325357 0.0316709 0)
(-0.328289 0.0245755 0)
(-0.330614 0.0172435 0)
(-0.332327 0.00970655 0)
(-0.33342 0.00199723 0)
(-0.333886 -0.00585054 0)
(-0.333713 -0.013801 0)
(-0.332889 -0.0218161 0)
(-0.3314 -0.029855 0)
(-0.329229 -0.0378735 0)
(-0.326358 -0.0458232 0)
(-0.322766 -0.0536514 0)
(-0.318432 -0.0613004 0)
(-0.21814 0.100234 0)
(-0.229423 0.100444 0)
(-0.240335 0.0999915 0)
(-0.250834 0.0988802 0)
(-0.260883 0.0971219 0)
(-0.270452 0.0947346 0)
(-0.279519 0.0917406 0)
(-0.288065 0.0881662 0)
(-0.296074 0.08404 0)
(-0.303538 0.0793924 0)
(-0.310446 0.0742548 0)
(-0.316796 0.068659 0)
(-0.322582 0.0626372 0)
(-0.327803 0.0562211 0)
(-0.332459 0.0494424 0)
(-0.33655 0.042332 0)
(-0.340076 0.0349208 0)
(-0.343038 0.0272392 0)
(-0.345435 0.0193173 0)
(-0.347265 0.0111858 0)
(-0.348524 0.00287534 0)
(-0.349208 -0.00558199 0)
(-0.349308 -0.0141527 0)
(-0.348813 -0.0228015 0)
(-0.347709 -0.0314901 0)
(-0.345979 -0.0401769 0)
(-0.3436 -0.0488164 0)
(-0.34055 -0.0573579 0)
(-0.336801 -0.0657455 0)
(-0.23273 0.111678 0)
(-0.243946 0.11152 0)
(-0.254751 0.110656 0)
(-0.265108 0.109097 0)
(-0.274987 0.106861 0)
(-0.284364 0.103973 0)
(-0.293222 0.10046 0)
(-0.301546 0.0963523 0)
(-0.309328 0.0916827 0)
(-0.316561 0.0864847 0)
(-0.323242 0.0807925 0)
(-0.329372 0.0746403 0)
(-0.334953 0.0680621 0)
(-0.339988 0.0610912 0)
(-0.344484 0.0537602 0)
(-0.348446 0.0461007 0)
(-0.35188 0.0381434 0)
(-0.354793 0.0299181 0)
(-0.357189 0.0214539 0)
(-0.359072 0.0127796 0)
(-0.360443 0.00392395 0)
(-0.3613 -0.00508395 0)
(-0.361638 -0.0142136 0)
(-0.361449 -0.0234333 0)
(-0.36072 -0.0327086 0)
(-0.359433 -0.042002 0)
(-0.357567 -0.0512717 0)
(-0.355096 -0.0604713 0)
(-0.351987 -0.0695483 0)
(-0.245791 0.123026 0)
(-0.256835 0.122458 0)
(-0.267429 0.121145 0)
(-0.277541 0.119107 0)
(-0.287146 0.116369 0)
(-0.296227 0.11296 0)
(-0.30477 0.108913 0)
(-0.312766 0.104262 0)
(-0.320212 0.0990434 0)
(-0.327106 0.0932951 0)
(-0.333452 0.087054 0)
(-0.339256 0.0803572 0)
(-0.344527 0.0732405 0)
(-0.349277 0.0657392 0)
(-0.353516 0.0578866 0)
(-0.357257 0.049715 0)
(-0.360514 0.0412548 0)
(-0.363298 0.0325348 0)
(-0.36562 0.023583 0)
(-0.367489 0.0144257 0)
(-0.36891 0.00508902 0)
(-0.369886 -0.00440122 0)
(-0.370417 -0.0140184 0)
(-0.370497 -0.0237352 0)
(-0.370116 -0.0335218 0)
(-0.369258 -0.043346 0)
(-0.367902 -0.0531712 0)
(-0.36602 -0.0629564 0)
(-0.36358 -0.0726544 0)
(-0.25718 0.134172 0)
(-0.267945 0.13315 0)
(-0.278221 0.131353 0)
(-0.28798 0.128805 0)
(-0.297204 0.125539 0)
(-0.305879 0.121587 0)
(-0.313997 0.116989 0)
(-0.321554 0.111784 0)
(-0.328554 0.106012 0)
(-0.335002 0.0997144 0)
(-0.340908 0.0929324 0)
(-0.346286 0.0857055 0)
(-0.351151 0.0780722 0)
(-0.355522 0.0700691 0)
(-0.359417 0.0617306 0)
(-0.362855 0.053089 0)
(-0.365857 0.0441743 0)
(-0.368439 0.0350144 0)
(-0.370618 0.0256349 0)
(-0.372407 0.01606 0)
(-0.373819 0.00631238 0)
(-0.374859 -0.00358577 0)
(-0.375531 -0.0136123 0)
(-0.375834 -0.0237447 0)
(-0.37576 -0.0339587 0)
(-0.375296 -0.0442279 0)
(-0.374423 -0.0545221 0)
(-0.373115 -0.0648068 0)
(-0.371339 -0.0750417 0)
(-0.266775 0.145007 0)
(-0.277154 0.14349 0)
(-0.287004 0.141171 0)
(-0.296304 0.138082 0)
(-0.305038 0.134259 0)
(-0.313199 0.129744 0)
(-0.320786 0.124579 0)
(-0.327802 0.11881 0)
(-0.334257 0.112483 0)
(-0.340163 0.105641 0)
(-0.345538 0.0983302 0)
(-0.350404 0.0905929 0)
(-0.354783 0.0824696 0)
(-0.358701 0.0739983 0)
(-0.362181 0.0652142 0)
(-0.365251 0.0561493 0)
(-0.367935 0.0468329 0)
(-0.370255 0.037291 0)
(-0.372234 0.0275472 0)
(-0.373889 0.0176227 0)
(-0.375236 0.0075368 0)
(-0.376285 -0.00269238 0)
(-0.377045 -0.0130473 0)
(-0.377518 -0.0235107 0)
(-0.377699 -0.0340642 0)
(-0.377579 -0.0446875 0)
(-0.377144 -0.0553575 0)
(-0.376368 -0.0660469 0)
(-0.375221 -0.0767232 0)
(-0.274482 0.155425 0)
(-0.284372 0.153372 0)
(-0.293693 0.150494 0)
(-0.302431 0.146831 0)
(-0.310576 0.142427 0)
(-0.318128 0.137329 0)
(-0.325092 0.131585 0)
(-0.331479 0.125248 0)
(-0.337307 0.118366 0)
(-0.342597 0.110991 0)
(-0.347374 0.103169 0)
(-0.351665 0.0949469 0)
(-0.355502 0.0863657 0)
(-0.358914 0.0774649 0)
(-0.361934 0.0682797 0)
(-0.364591 0.0588416 0)
(-0.366915 0.0491782 0)
(-0.368933 0.0393139 0)
(-0.37067 0.0292696 0)
(-0.372148 0.0190634 0)
(-0.373386 0.00871109 0)
(-0.374398 -0.00177351 0)
(-0.375195 -0.0123774 0)
(-0.375783 -0.0230888 0)
(-0.376162 -0.0338947 0)
(-0.376326 -0.0447814 0)
(-0.376264 -0.0557326 0)
(-0.375957 -0.0667289 0)
(-0.375376 -0.077746 0)
(-0.280242 0.165326 0)
(-0.289547 0.162695 0)
(-0.298248 0.159224 0)
(-0.306335 0.154959 0)
(-0.313807 0.149951 0)
(-0.320671 0.144255 0)
(-0.326942 0.137927 0)
(-0.332637 0.131023 0)
(-0.337783 0.123598 0)
(-0.342408 0.115706 0)
(-0.346546 0.107398 0)
(-0.350229 0.0987216 0)
(-0.353495 0.0897201 0)
(-0.356379 0.0804326 0)
(-0.358916 0.0708938 0)
(-0.361141 0.0611341 0)
(-0.363086 0.0511793 0)
(-0.364782 0.0410514 0)
(-0.366255 0.0307684 0)
(-0.36753 0.0203454 0)
(-0.368628 0.00979457 0)
(-0.369565 -0.000874385 0)
(-0.370356 -0.0116541 0)
(-0.371009 -0.0225358 0)
(-0.371528 -0.0335128 0)
(-0.371911 -0.0445771 0)
(-0.37215 -0.0557194 0)
(-0.372233 -0.0669275 0)
(-0.372135 -0.0781856 0)
(-0.274771 0.176963 0)
(-0.284037 0.174618 0)
(-0.292676 0.171373 0)
(-0.300679 0.167277 0)
(-0.308046 0.162387 0)
(-0.314784 0.156761 0)
(-0.320908 0.150461 0)
(-0.32644 0.14355 0)
(-0.331408 0.136089 0)
(-0.335846 0.128139 0)
(-0.339789 0.119756 0)
(-0.343276 0.110993 0)
(-0.346346 0.1019 0)
(-0.349041 0.0925203 0)
(-0.3514 0.0828921 0)
(-0.35346 0.073049 0)
(-0.355259 0.0630196 0)
(-0.35683 0.0528275 0)
(-0.358204 0.0424917 0)
(-0.35941 0.0320276 0)
(-0.360473 0.0214469 0)
(-0.361415 0.0107585 0)
(-0.362255 -3.19783e-05 0)
(-0.363007 -0.0109215 0)
(-0.363681 -0.0219051 0)
(-0.364286 -0.0329809 0)
(-0.364823 -0.0441465 0)
(-0.36529 -0.0553985 0)
(-0.365676 -0.0667317 0)
(-0.365966 -0.0781379 0)
(-0.277323 0.186207 0)
(-0.285891 0.183226 0)
(-0.293801 0.179335 0)
(-0.301053 0.174592 0)
(-0.307654 0.169062 0)
(-0.313622 0.162812 0)
(-0.318979 0.155912 0)
(-0.323758 0.148429 0)
(-0.327994 0.140431 0)
(-0.331726 0.131982 0)
(-0.334998 0.123141 0)
(-0.337853 0.113962 0)
(-0.340335 0.104495 0)
(-0.342486 0.0947816 0)
(-0.344348 0.0848605 0)
(-0.34596 0.0747625 0)
(-0.34736 0.0645138 0)
(-0.348581 0.0541353 0)
(-0.349655 0.0436431 0)
(-0.350608 0.0330494 0)
(-0.351466 0.0223627 0)
(-0.352251 0.0115885 0)
(-0.352982 0.000729375 0)
(-0.353674 -0.0102138 0)
(-0.354338 -0.0212417 0)
(-0.354984 -0.0323561 0)
(-0.355618 -0.0435589 0)
(-0.356239 -0.0548519 0)
(-0.356845 -0.0662356 0)
(-0.357425 -0.0777086 0)
(-0.278053 0.194741 0)
(-0.285874 0.191094 0)
(-0.293015 0.186534 0)
(-0.299484 0.18113 0)
(-0.305301 0.174956 0)
(-0.310489 0.168088 0)
(-0.315083 0.160601 0)
(-0.319122 0.152569 0)
(-0.322648 0.144063 0)
(-0.325706 0.13515 0)
(-0.328345 0.12589 0)
(-0.330611 0.116338 0)
(-0.33255 0.106542 0)
(-0.334207 0.0965434 0)
(-0.335622 0.0863774 0)
(-0.336835 0.0760726 0)
(-0.337882 0.0656521 0)
(-0.338795 0.0551338 0)
(-0.339603 0.0445308 0)
(-0.340332 0.033852 0)
(-0.341007 0.023103 0)
(-0.341647 0.0122861 0)
(-0.34227 0.00140137 0)
(-0.342892 -0.00955243 0)
(-0.343524 -0.0205801 0)
(-0.344177 -0.0316862 0)
(-0.344859 -0.0428762 0)
(-0.345573 -0.0541558 0)
(-0.346321 -0.0655302 0)
(-0.347097 -0.0770035 0)
(-0.277048 0.202523 0)
(-0.284093 0.198187 0)
(-0.290448 0.192946 0)
(-0.296131 0.18688 0)
(-0.301169 0.18007 0)
(-0.305597 0.172599 0)
(-0.309457 0.16455 0)
(-0.312793 0.156 0)
(-0.315656 0.147023 0)
(-0.318096 0.137688 0)
(-0.320161 0.128055 0)
(-0.321902 0.118177 0)
(-0.323363 0.1081 0)
(-0.32459 0.0978638 0)
(-0.325623 0.0874998 0)
(-0.326498 0.0770335 0)
(-0.32725 0.0664847 0)
(-0.327907 0.0558678 0)
(-0.328496 0.0451929 0)
(-0.329041 0.0344658 0)
(-0.329562 0.0236894 0)
(-0.330079 0.0128635 0)
(-0.330607 0.00198583 0)
(-0.331159 -0.00894748 0)
(-0.331749 -0.0199429 0)
(-0.332386 -0.0310073 0)
(-0.33308 -0.0421488 0)
(-0.333836 -0.0533758 0)
(-0.33466 -0.0646968 0)
(-0.335551 -0.0761202 0)
(-0.274427 0.209529 0)
(-0.280692 0.204495 0)
(-0.286268 0.198574 0)
(-0.291183 0.191855 0)
(-0.295473 0.184427 0)
(-0.299182 0.176381 0)
(-0.302358 0.167804 0)
(-0.305053 0.158776 0)
(-0.30732 0.149374 0)
(-0.309211 0.139663 0)
(-0.310778 0.129705 0)
(-0.312069 0.11955 0)
(-0.31313 0.109241 0)
(-0.314004 0.0988134 0)
(-0.314727 0.0882957 0)
(-0.315333 0.0777095 0)
(-0.315853 0.0670707 0)
(-0.316312 0.0563905 0)
(-0.316734 0.0456756 0)
(-0.317139 0.0349293 0)
(-0.317544 0.0241518 0)
(-0.317966 0.0133408 0)
(-0.318416 0.00249242 0)
(-0.318909 -0.00839931 0)
(-0.319455 -0.0193418 0)
(-0.320064 -0.0303436 0)
(-0.320745 -0.0414141 0)
(-0.321507 -0.0525635 0)
(-0.322356 -0.0638024 0)
(-0.323296 -0.075142 0)
(-0.270336 0.215762 0)
(-0.275837 0.210031 0)
(-0.280663 0.203442 0)
(-0.28485 0.19609 0)
(-0.288443 0.188075 0)
(-0.291493 0.179491 0)
(-0.294055 0.170429 0)
(-0.296182 0.16097 0)
(-0.297932 0.15119 0)
(-0.299357 0.141155 0)
(-0.300509 0.130922 0)
(-0.301435 0.120539 0)
(-0.302178 0.110044 0)
(-0.302776 0.0994692 0)
(-0.303265 0.0888382 0)
(-0.303673 0.0781687 0)
(-0.304026 0.0674728 0)
(-0.304347 0.0567581 0)
(-0.304654 0.0460284 0)
(-0.304965 0.0352844 0)
(-0.305292 0.0245242 0)
(-0.305648 0.0137439 0)
(-0.306046 0.00293807 0)
(-0.306493 -0.00790032 0)
(-0.307001 -0.0187794 0)
(-0.307579 -0.0297082 0)
(-0.308234 -0.0406968 0)
(-0.308977 -0.0517561 0)
(-0.309814 -0.0628979 0)
(-0.310754 -0.0741347 0)
(-0.264939 0.22124 0)
(-0.269713 0.214827 0)
(-0.273835 0.207592 0)
(-0.277351 0.199641 0)
(-0.280314 0.191078 0)
(-0.282779 0.182 0)
(-0.284804 0.172501 0)
(-0.286448 0.162662 0)
(-0.287767 0.152557 0)
(-0.288813 0.142249 0)
(-0.289637 0.131791 0)
(-0.290281 0.121227 0)
(-0.290787 0.11059 0)
(-0.291188 0.0999081 0)
(-0.291514 0.0891995 0)
(-0.291791 0.078478 0)
(-0.292039 0.0677519 0)
(-0.292277 0.0570255 0)
(-0.292519 0.0462998 0)
(-0.292778 0.0355731 0)
(-0.293064 0.0248418 0)
(-0.293387 0.0141007 0)
(-0.293754 0.00334337 0)
(-0.294175 -0.0074376 0)
(-0.294655 -0.0182506 0)
(-0.295204 -0.0291047 0)
(-0.29583 -0.0400099 0)
(-0.29654 -0.0509771 0)
(-0.297344 -0.062018 0)
(-0.298251 -0.0731454 0)
(-0.258412 0.226003 0)
(-0.262508 0.218932 0)
(-0.265987 0.211086 0)
(-0.268902 0.202576 0)
(-0.27131 0.19351 0)
(-0.273271 0.18399 0)
(-0.274847 0.174106 0)
(-0.276094 0.16394 0)
(-0.277069 0.153563 0)
(-0.277823 0.143033 0)
(-0.278402 0.132397 0)
(-0.278845 0.121696 0)
(-0.279189 0.110957 0)
(-0.279463 0.100202 0)
(-0.279693 0.0894467 0)
(-0.279898 0.078699 0)
(-0.280096 0.0679639 0)
(-0.280299 0.0572427 0)
(-0.280519 0.0465337 0)
(-0.280765 0.0358336 0)
(-0.281043 0.025137 0)
(-0.281359 0.0144381 0)
(-0.28172 0.00372973 0)
(-0.282131 -0.00699556 0)
(-0.282598 -0.0177459 0)
(-0.283127 -0.0285301 0)
(-0.283724 -0.0393574 0)
(-0.284399 -0.0502379 0)
(-0.28516 -0.0611827 0)
(-0.286015 -0.072204 0)
(-0.250929 0.230102 0)
(-0.25441 0.222409 0)
(-0.257317 0.213993 0)
(-0.259707 0.204971 0)
(-0.261642 0.195455 0)
(-0.263184 0.185545 0)
(-0.264395 0.175331 0)
(-0.265331 0.164892 0)
(-0.266046 0.154293 0)
(-0.266588 0.143588 0)
(-0.266998 0.132819 0)
(-0.267313 0.12202 0)
(-0.267562 0.111214 0)
(-0.267771 0.100416 0)
(-0.26796 0.0896383 0)
(-0.268145 0.0788846 0)
(-0.268337 0.0681563 0)
(-0.268547 0.057452 0)
(-0.26878 0.0467679 0)
(-0.269043 0.0360987 0)
(-0.26934 0.0254384 0)
(-0.269674 0.0147803 0)
(-0.270049 0.00411724 0)
(-0.270467 -0.00655812 0)
(-0.270934 -0.0172534 0)
(-0.271453 -0.0279765 0)
(-0.27203 -0.0387359 0)
(-0.272672 -0.0495404 0)
(-0.273388 -0.0604 0)
(-0.274186 -0.0713257 0)
(-0.242661 0.233601 0)
(-0.245597 0.225327 0)
(-0.248006 0.216389 0)
(-0.249951 0.206908 0)
(-0.251495 0.196995 0)
(-0.252701 0.18675 0)
(-0.253629 0.17626 0)
(-0.254334 0.165598 0)
(-0.254866 0.154825 0)
(-0.255268 0.143989 0)
(-0.255577 0.133127 0)
(-0.255824 0.122264 0)
(-0.256035 0.111419 0)
(-0.25623 0.100603 0)
(-0.256423 0.0898226 0)
(-0.256627 0.079078 0)
(-0.25685 0.0683675 0)
(-0.257096 0.0576873 0)
(-0.257371 0.0470318 0)
(-0.257676 0.0363945 0)
(-0.258012 0.0257687 0)
(-0.258382 0.0151472 0)
(-0.258786 0.0045232 0)
(-0.259227 -0.00611039 0)
(-0.259705 -0.0167604 0)
(-0.233768 0.236568 0)
(-0.236232 0.227761 0)
(-0.23822 0.218354 0)
(-0.239798 0.208467 0)
(-0.24103 0.198212 0)
(-0.241977 0.187685 0)
(-0.242697 0.17697 0)
(-0.243242 0.166134 0)
(-0.243657 0.155231 0)
(-0.24398 0.144302 0)
(-0.244244 0.133379 0)
(-0.244475 0.122481 0)
(-0.244692 0.111621 0)
(-0.244912 0.100806 0)
(-0.245144 0.0900371 0)
(-0.245397 0.0793118 0)
(-0.245675 0.068626 0)
(-0.245981 0.0579734 0)
(-0.246315 0.0473472 0)
(-0.246678 0.0367401 0)
(-0.247069 0.0261447 0)
(-0.247487 0.015554 0)
(-0.247933 0.00496135 0)
(-0.248407 -0.00563973 0)
(-0.248909 -0.0162553 0)
(-0.224394 0.239074 0)
(-0.226459 0.229786 0)
(-0.2281 0.219962 0)
(-0.229386 0.209724 0)
(-0.230378 0.19918 0)
(-0.231136 0.188423 0)
(-0.231715 0.17753 0)
(-0.232161 0.166562 0)
(-0.232514 0.155567 0)
(-0.232809 0.144579 0)
(-0.233072 0.133623 0)
(-0.233324 0.122713 0)
(-0.233581 0.111857 0)
(-0.233854 0.101056 0)
(-0.234149 0.0903084 0)
(-0.23447 0.0796089 0)
(-0.23482 0.0689509 0)
(-0.235199 0.0583266 0)
(-0.235604 0.0477282 0)
(-0.236035 0.0371476 0)
(-0.236489 0.0265775 0)
(-0.236964 0.0160109 0)
(-0.23746 0.00544154 0)
(-0.237974 -0.00513634 0)
(-0.238508 -0.0157279 0)
(-0.214668 0.24119 0)
(-0.216402 0.231474 0)
(-0.217767 0.221287 0)
(-0.218827 0.21075 0)
(-0.219645 0.199967 0)
(-0.220275 0.189026 0)
(-0.220767 0.177998 0)
(-0.221163 0.166936 0)
(-0.2215 0.155881 0)
(-0.221805 0.144862 0)
(-0.2221 0.133895 0)
(-0.222402 0.122991 0)
(-0.222721 0.112151 0)
(-0.223065 0.101374 0)
(-0.223437 0.0906535 0)
(-0.223838 0.0799829 0)
(-0.224269 0.0693533 0)
(-0.224726 0.058756 0)
(-0.225208 0.0481821 0)
(-0.22571 0.0376237 0)
(-0.226231 0.0270731 0)
(-0.226767 0.0165238 0)
(-0.227316 0.00596996 0)
(-0.227877 -0.0045934 0)
(-0.228448 -0.0151706 0)
(-0.204698 0.242984 0)
(-0.206166 0.232891 0)
(-0.207317 0.222393 0)
(-0.208212 0.211607 0)
(-0.208909 0.200631 0)
(-0.209461 0.189548 0)
(-0.209912 0.178421 0)
(-0.210299 0.167297 0)
(-0.210652 0.15621 0)
(-0.210996 0.14518 0)
(-0.211346 0.134221 0)
(-0.211714 0.123334 0)
(-0.212109 0.11252 0)
(-0.212534 0.101771 0)
(-0.21299 0.0910813 0)
(-0.213475 0.08044 0)
(-0.213989 0.0698375 0)
(-0.214526 0.0592642 0)
(-0.215083 0.048711 0)
(-0.215658 0.0381697 0)
(-0.216245 0.027633 0)
(-0.216841 0.0170946 0)
(-0.217445 0.00654948 0)
(-0.218053 -0.00400688 0)
(-0.218665 -0.014578 0)
(-0.194574 0.244516 0)
(-0.195835 0.234098 0)
(-0.196825 0.223337 0)
(-0.197606 0.212347 0)
(-0.19823 0.20122 0)
(-0.198744 0.190032 0)
(-0.199189 0.178837 0)
(-0.199595 0.167677 0)
(-0.199989 0.156578 0)
(-0.200389 0.145555 0)
(-0.200807 0.134614 0)
(-0.201252 0.123754 0)
(-0.201729 0.11297 0)
(-0.202238 0.102254 0)
(-0.202778 0.0915939 0)
(-0.203346 0.0809805 0)
(-0.203939 0.0704024 0)
(-0.204553 0.0598495 0)
(-0.205183 0.0493126 0)
(-0.205825 0.0387835 0)
(-0.206475 0.0282555 0)
(-0.20713 0.0177226 0)
(-0.207786 0.00718031 0)
(-0.208442 -0.00337517 0)
(-0.209096 -0.0139467 0)
(-0.18437 0.245844 0)
(-0.185473 0.235147 0)
(-0.18635 0.224168 0)
(-0.187058 0.213015 0)
(-0.187645 0.201772 0)
(-0.188153 0.190509 0)
(-0.188616 0.179273 0)
(-0.189062 0.168098 0)
(-0.189511 0.157003 0)
(-0.189978 0.145998 0)
(-0.190472 0.135084 0)
(-0.190997 0.124255 0)
(-0.191555 0.113504 0)
(-0.192145 0.102819 0)
(-0.192765 0.0921884 0)
(-0.193411 0.0816002 0)
(-0.194078 0.071043 0)
(-0.194762 0.0605065 0)
(-0.195457 0.0499816 0)
(-0.196161 0.0394604 0)
(-0.196869 0.0289365 0)
(-0.197577 0.0184046 0)
(-0.198283 0.00786061 0)
(-0.198985 -0.00269864 0)
(-0.174141 0.247014 0)
(-0.17513 0.236083 0)
(-0.175932 0.224926 0)
(-0.1766 0.213644 0)
(-0.177178 0.202317 0)
(-0.177702 0.191004 0)
(-0.178201 0.179748 0)
(-0.1787 0.168573 0)
(-0.179212 0.157494 0)
(-0.17975 0.146515 0)
(-0.180319 0.135632 0)
(-0.180922 0.124837 0)
(-0.181557 0.114118 0)
(-0.182223 0.103463 0)
(-0.182916 0.0928584 0)
(-0.183631 0.082292 0)
(-0.184363 0.0717519 0)
(-0.185109 0.0612278 0)
(-0.185863 0.0507109 0)
(-0.186621 0.0401938 0)
(-0.18738 0.0296704 0)
(-0.188136 0.0191361 0)
(-0.188888 0.00858712 0)
(-0.189632 -0.00197908 0)
(-0.163932 0.248068 0)
(-0.164841 0.236942 0)
(-0.165599 0.225642 0)
(-0.166252 0.214262 0)
(-0.16684 0.202875 0)
(-0.167395 0.191534 0)
(-0.167942 0.180272 0)
(-0.168498 0.169109 0)
(-0.169077 0.158054 0)
(-0.169685 0.147105 0)
(-0.170326 0.136255 0)
(-0.171 0.125492 0)
(-0.171705 0.114804 0)
(-0.172438 0.104177 0)
(-0.173194 0.0935951 0)
(-0.173969 0.0830468 0)
(-0.174758 0.07252 0)
(-0.175556 0.0620048 0)
(-0.176359 0.0514925 0)
(-0.177164 0.0409764 0)
(-0.177967 0.0304509 0)
(-0.153772 0.249039 0)
(-0.154629 0.237753 0)
(-0.155366 0.22634 0)
(-0.156023 0.214888 0)
(-0.156635 0.203462 0)
(-0.15723 0.192107 0)
(-0.157828 0.180851 0)
(-0.158444 0.169708 0)
(-0.159086 0.15868 0)
(-0.15976 0.147763 0)
(-0.160466 0.136946 0)
(-0.161203 0.126215 0)
(-0.161969 0.115555 0)
(-0.162759 0.104951 0)
(-0.163569 0.0943888 0)
(-0.164394 0.0838549 0)
(-0.165229 0.073338 0)
(-0.166071 0.0628284 0)
(-0.166915 0.0523181 0)
(-0.167758 0.0418007 0)
(-0.168598 0.0312713 0)
(-0.143683 0.249955 0)
(-0.14451 0.238538 0)
(-0.145241 0.227038 0)
(-0.145915 0.215533 0)
(-0.146559 0.204084 0)
(-0.147198 0.192727 0)
(-0.147848 0.181485 0)
(-0.14852 0.170366 0)
(-0.149221 0.159369 0)
(-0.149952 0.148483 0)
(-0.150715 0.137697 0)
(-0.151506 0.126995 0)
(-0.152323 0.116359 0)
(-0.15316 0.105776 0)
(-0.154013 0.095229 0)
(-0.154878 0.0847062 0)
(-0.15575 0.0741962 0)
(-0.156626 0.0636897 0)
(-0.157503 0.0531795 0)
(-0.158377 0.0426594 0)
(-0.159248 0.0321251 0)
(-0.133678 0.250834 0)
(-0.13449 0.239314 0)
(-0.135228 0.227747 0)
(-0.135924 0.216207 0)
(-0.136604 0.204746 0)
(-0.137287 0.193396 0)
(-0.137986 0.182173 0)
(-0.138709 0.17108 0)
(-0.139461 0.160112 0)
(-0.140242 0.149257 0)
(-0.141052 0.138499 0)
(-0.141887 0.127821 0)
(-0.142743 0.117207 0)
(-0.143617 0.10664 0)
(-0.144503 0.0961059 0)
(-0.145398 0.0855913 0)
(-0.146299 0.0750857 0)
(-0.147201 0.0645807 0)
(-0.148103 0.0540692 0)
(-0.149003 0.0435458 0)
(-0.149898 0.0330066 0)
(-0.123763 0.251694 0)
(-0.12457 0.240091 0)
(-0.125322 0.228474 0)
(-0.126045 0.216911 0)
(-0.12676 0.205447 0)
(-0.127484 0.194109 0)
(-0.128226 0.182907 0)
(-0.128994 0.171841 0)
(-0.129788 0.160901 0)
(-0.13061 0.150073 0)
(-0.131456 0.139341 0)
(-0.132325 0.128685 0)
(-0.133211 0.118089 0)
(-0.134112 0.107535 0)
(-0.135022 0.09701 0)
(-0.135939 0.0865012 0)
(-0.13686 0.0759985 0)
(-0.137781 0.0654937 0)
(-0.138701 0.0549805 0)
(-0.13962 0.0444539 0)
(-0.140534 0.0339104 0)
(-0.11394 0.252543 0)
(-0.11475 0.240875 0)
(-0.115518 0.229222 0)
(-0.116267 0.217645 0)
(-0.117015 0.206185 0)
(-0.117775 0.194862 0)
(-0.118554 0.183682 0)
(-0.119358 0.172641 0)
(-0.120186 0.161727 0)
(-0.121038 0.150924 0)
(-0.121912 0.140213 0)
(-0.122804 0.129576 0)
(-0.123712 0.118994 0)
(-0.12463 0.108451 0)
(-0.125556 0.0979328 0)
(-0.126487 0.0874282 0)
(-0.12742 0.0769272 0)
(-0.128354 0.0664223 0)
(-0.129287 0.0559075 0)
(-0.130219 0.0453785 0)
(-0.131148 0.0348319 0)
(-0.104207 0.25339 0)
(-0.105024 0.241671 0)
(-0.105809 0.229992 0)
(-0.106582 0.218408 0)
(-0.107358 0.206955 0)
(-0.108148 0.195648 0)
(-0.108956 0.184489 0)
(-0.109787 0.173472 0)
(-0.110639 0.162581 0)
(-0.111513 0.151799 0)
(-0.112405 0.141107 0)
(-0.113312 0.130484 0)
(-0.114231 0.119914 0)
(-0.115159 0.109379 0)