/*--------------------------------*- C++ -*----------------------------------*\
  =========                 |
  \\      /  F ield         | OpenFOAM: The Open Source CFD Toolbox
   \\    /   O peration     | Website:  https://openfoam.org
    \\  /    A nd           | Version:  9
     \\/     M anipulation  |
\*---------------------------------------------------------------------------*/
FoamFile
{
    format      ascii;
    class       volScalarField;
    location    "1.5";
    object      p;
}
// * * * * * * * * * * * * * * * * * * * * * * * * * * * * * * * * * * * * * //

dimensions      [0 2 -2 0 0 0 0];

internalField   nonuniform List<scalar> 
1250
(
-0.00107897
-0.00112537
-0.00116834
-0.00120708
-0.00124074
-0.00126842
-0.00128921
-0.00130217
-0.00130639
-0.00130095
-0.00128502
-0.00125783
-0.00121873
-0.00116725
-0.00110308
-0.00102615
-0.000936653
-0.000835083
-0.000722252
-0.000599316
-0.000467785
-0.000329492
-0.000186694
-4.19142e-05
0.000102029
0.000242083
0.000375026
0.000497544
0.000606323
0.000698147
0.000769996
0.000819173
0.00084339
-0.00101747
-0.00106094
-0.00110124
-0.0011376
-0.00116925
-0.00119538
-0.00121515
-0.00122772
-0.00123222
-0.00122784
-0.0012138
-0.0011894
-0.00115404
-0.00110728
-0.00104883
-0.00097863
-0.000896861
-0.000803971
-0.000700709
-0.00058816
-0.000467758
-0.000341178
-0.000210503
-7.81226e-05
5.33281e-05
0.000180988
0.000301835
0.000412765
0.000510667
0.00059252
0.000655488
0.000697059
0.000715119
-0.000970548
-0.00101251
-0.00105155
-0.00108698
-0.00111805
-0.00114401
-0.00116407
-0.00117743
-0.00118327
-0.00118079
-0.00116925
-0.00114795
-0.00111631
-0.00107387
-0.00102032
-0.000955581
-0.000879772
-0.000793291
-0.00069682
-0.000591377
-0.000478322
-0.000359122
-0.000235947
-0.000111013
1.31439e-05
0.000133752
0.000247878
0.0003525
0.000444586
0.000521182
0.000579504
0.000617115
0.00063198
-0.000930329
-0.000971786
-0.00101066
-0.00104627
-0.00107793
-0.00110491
-0.00112646
-0.00114177
-0.00115006
-0.00115054
-0.00114243
-0.00112503
-0.00109772
-0.00105999
-0.0010115
-0.000952089
-0.000881817
-0.000801004
-0.000710258
-0.000610539
-0.000503199
-0.00038932
-0.000271322
-0.000151297
-3.17131e-05
8.46938e-05
0.000195018
0.000296252
0.000385369
0.000459404
0.000515553
0.000551388
0.000564889
-0.000895251
-0.000937217
-0.000977021
-0.001014
-0.00104748
-0.00107677
-0.00110112
-0.00111974
-0.00113182
-0.00113654
-0.0011331
-0.00112075
-0.0010988
-0.00106668
-0.00102395
-0.000970377
-0.000905929
-0.000830838
-0.000745628
-0.000651139
-0.000548524
-0.000439319
-0.000325393
-0.000208912
-9.23586e-05
2.15358e-05
0.000129855
0.000229569
0.00031761
0.000390952
0.000446726
0.000482475
0.000496145
-0.000868055
-0.000911822
-0.000953942
-0.000993759
-0.00103062
-0.00106383
-0.00109264
-0.00111624
-0.00113378
-0.00114439
-0.0011472
-0.00114138
-0.00112615
-0.00110083
-0.0010649
-0.001018
-0.000959981
-0.000890982
-0.000811424
-0.000722068
-0.00062401
-0.000518643
-0.000407871
-0.000293831
-0.000178998
-6.61179e-05
4.18566e-05
0.000141841
0.000230692
0.000305284
0.00036265
0.000400291
0.000416048
-0.000851642
-0.000898821
-0.000944988
-0.000989481
-0.00103165
-0.0010708
-0.00110614
-0.00113682
-0.00116192
-0.00118049
-0.00119158
-0.00119423
-0.00118755
-0.00117073
-0.00114311
-0.00110419
-0.00105371
-0.000991667
-0.000918374
-0.000834524
-0.000741267
-0.000639377
-0.000531261
-0.000418911
-0.000304778
-0.000191635
-8.24896e-05
1.94991e-05
0.000111092
0.000189058
0.000250346
0.000292366
0.000312644
-0.000849264
-0.000901845
-0.000954195
-0.00100564
-0.00105551
-0.00110309
-0.00114753
-0.00118792
-0.00122324
-0.00125244
-0.00127443
-0.00128811
-0.00129243
-0.00128645
-0.00126931
-0.00124037
-0.0011992
-0.00114566
-0.00107992
-0.00100247
-0.000914111
-0.000816605
-0.000711281
-0.000600316
-0.000486208
-0.000371773
-0.00026009
-0.000154395
-5.79535e-05
2.5953e-05
9.41342e-05
0.000143494
0.000171087
-0.00086492
-0.000925355
-0.000986519
-0.00104771
-0.00110825
-0.00116735
-0.00122411
-0.00127751
-0.00132641
-0.00136961
-0.00140587
-0.00143392
-0.00145252
-0.00146051
-0.00145687
-0.00144074
-0.0014115
-0.00136883
-0.00131273
-0.00124351
-0.00116178
-0.00106934
-0.000967327
-0.000857874
-0.000743461
-0.000626938
-0.000511453
-0.000400204
-0.000296254
-0.000203267
-0.000125228
-0.000903421
-0.000974723
-0.00104794
-0.00112233
-0.00119718
-0.00127164
-0.00134471
-0.00141522
-0.00148191
-0.00154339
-0.00159823
-0.00164494
-0.00168206
-0.0017082
-0.00172208
-0.0017226
-0.00170892
-0.00168046
-0.00163701
-0.00157868
-0.00150597
-0.00142024
-0.00132272
-0.00121544
-0.00110077
-0.000981603
-0.000861067
-0.00074203
-0.000627845
-0.000970474
-0.00105632
-0.00114553
-0.00123735
-0.00133099
-0.00142551
-0.00151979
-0.00161251
-0.00170222
-0.00178733
-0.00186615
-0.00193696
-0.00199801
-0.00204762
-0.00208423
-0.00210643
-0.00211307
-0.0021033
-0.00207658
-0.00203278
-0.00197219
-0.00189585
-0.00180481
-0.00170095
-0.00158656
-0.00146446
-0.00133771
-0.00120896
-0.00108188
-0.00107276
-0.00117759
-0.0012876
-0.00140195
-0.00151981
-0.00164012
-0.00176159
-0.00188274
-0.00200188
-0.00211717
-0.00222665
-0.00232826
-0.00241995
-0.00249969
-0.00256553
-0.00261573
-0.00264874
-0.00266333
-0.00265861
-0.00263408
-0.00258978
-0.00252643
-0.00244458
-0.00234608
-0.00223303
-0.00210815
-0.00197435
-0.00183408
-0.00169132
-0.001218
-0.00134716
-0.00148368
-0.00162671
-0.0017753
-0.00192826
-0.00208412
-0.00224116
-0.00239744
-0.0025508
-0.00269895
-0.00283946
-0.00296987
-0.00308774
-0.00319069
-0.0032765
-0.00334319
-0.00338906
-0.00341277
-0.00341341
-0.0033906
-0.00334474
-0.00327555
-0.00318512
-0.00307517
-0.00294819
-0.00280691
-0.00265356
-0.00249243
-0.00141498
-0.00157476
-0.0017446
-0.00192355
-0.00211056
-0.00230427
-0.00250298
-0.0027047
-0.00290717
-0.00310786
-0.00330406
-0.00349291
-0.00367147
-0.00383679
-0.00398596
-0.00411623
-0.00422508
-0.00431025
-0.00436989
-0.00440258
-0.00440724
-0.00438322
-0.00433198
-0.00425331
-0.00414895
-0.00402123
-0.00387261
-0.00370509
-0.00352325
-0.00167348
-0.00187127
-0.00208232
-0.00230563
-0.00253998
-0.00278379
-0.00303511
-0.00329159
-0.00355059
-0.00380914
-0.00406404
-0.00431189
-0.00454917
-0.00477235
-0.0049779
-0.00516246
-0.00532285
-0.0054562
-0.00556004
-0.00563235
-0.00567152
-0.00567652
-0.00564748
-0.00558455
-0.00548892
-0.00536252
-0.00520744
-0.00502542
-0.00482122
-0.00200424
-0.00224848
-0.0025098
-0.00278705
-0.00307885
-0.00338334
-0.0036982
-0.0040207
-0.00434769
-0.00467569
-0.0050009
-0.00531929
-0.00562669
-0.00591886
-0.00619158
-0.00644079
-0.00666258
-0.00685342
-0.00701014
-0.00713005
-0.00721098
-0.00725137
-0.00725046
-0.00720812
-0.00712508
-0.00700283
-0.00684304
-0.00664714
-0.00641997
-0.00241866
-0.00271888
-0.00304059
-0.00338248
-0.0037429
-0.00411964
-0.00450996
-0.0049106
-0.00531784
-0.00572755
-0.00613523
-0.00653613
-0.00692531
-0.00729776
-0.00764851
-0.00797268
-0.00826566
-0.00852315
-0.0087413
-0.00891672
-0.00904664
-0.00912889
-0.00916204
-0.00914548
-0.00907941
-0.00896486
-0.00880303
-0.00859501
-0.00834558
-0.00292859
-0.00329527
-0.00368843
-0.00410653
-0.00454757
-0.00500887
-0.00548715
-0.00597852
-0.00647855
-0.00698235
-0.00748462
-0.00797976
-0.008462
-0.00892549
-0.00936442
-0.00977313
-0.0101463
-0.0104787
-0.0107661
-0.0110042
-0.0111897
-0.0113199
-0.0113927
-0.011407
-0.0113626
-0.0112598
-0.0110994
-0.0108823
-0.0106127
-0.00354584
-0.00399024
-0.0044666
-0.00497307
-0.00550716
-0.00606562
-0.00664446
-0.00723904
-0.00784407
-0.00845378
-0.00906196
-0.00966208
-0.0102475
-0.0108114
-0.0113472
-0.0118485
-0.0123092
-0.0127234
-0.0130862
-0.0133928
-0.0136393
-0.0138225
-0.0139399
-0.0139896
-0.0139712
-0.0138845
-0.0137298
-0.0135074
-0.0132215
-0.00428176
-0.00481558
-0.00538724
-0.0059944
-0.00663394
-0.00730187
-0.00799335
-0.00870281
-0.00942399
-0.0101501
-0.0108739
-0.011588
-0.0122846
-0.0129563
-0.0135955
-0.0141951
-0.0147483
-0.0152488
-0.0156911
-0.0160699
-0.016381
-0.0166208
-0.0167862
-0.016875
-0.0168865
-0.01682
-0.0166753
-0.0164525
-0.016155
-0.00455791
-0.00514658
-0.00578162
-0.00646053
-0.00718035
-0.00793712
-0.00872592
-0.0095409
-0.0103754
-0.011222
-0.012073
-0.0129198
-0.0137542
-0.0145674
-0.0153512
-0.0160973
-0.016798
-0.0174459
-0.0180344
-0.0185575
-0.0190098
-0.0193868
-0.0196846
-0.0198998
-0.0200296
-0.020074
-0.0200313
-0.019901
-0.0196828
-0.0193795
-0.00545403
-0.00614878
-0.00689647
-0.00769396
-0.00853746
-0.00942199
-0.0103415
-0.0112889
-0.0122563
-0.0132352
-0.0142165
-0.0151908
-0.0161486
-0.0170806
-0.0179775
-0.0188306
-0.0196318
-0.0203733
-0.0210484
-0.0216507
-0.022175
-0.0226165
-0.0229714
-0.023236
-0.0234068
-0.0234865
-0.0234702
-0.0233578
-0.023149
-0.0228458
-0.0064827
-0.00729443
-0.00816533
-0.00909159
-0.0100683
-0.0110892
-0.012147
-0.0132332
-0.0143387
-0.0154535
-0.0165674
-0.0176699
-0.0187508
-0.0197998
-0.0208073
-0.0217641
-0.0226617
-0.0234925
-0.0242495
-0.0249266
-0.0255185
-0.0260207
-0.0264294
-0.0267419
-0.0269569
-0.0270681
-0.0270783
-0.0269861
-0.0267909
-0.0264934
-0.00764829
-0.0085867
-0.00959006
-0.0106535
-0.0117709
-0.0129344
-0.0141353
-0.0153637
-0.0166088
-0.0178597
-0.0191049
-0.0203329
-0.0215328
-0.0226937
-0.0238056
-0.0248593
-0.0258462
-0.0267587
-0.0275903
-0.028335
-0.0289879
-0.0295448
-0.0300022
-0.0303577
-0.0306094
-0.0307542
-0.0307918
-0.0307214
-0.0305426
-0.0302557
-0.00895246
-0.0100257
-0.0111688
-0.0123757
-0.0136386
-0.014948
-0.0162937
-0.0176641
-0.0190473
-0.0204308
-0.0218023
-0.0231495
-0.0244607
-0.025725
-0.0269322
-0.0280731
-0.0291394
-0.030124
-0.0310205
-0.0318237
-0.0325292
-0.0331332
-0.0336328
-0.0340257
-0.0343103
-0.0344847
-0.0345479
-0.0344994
-0.0343388
-0.0340661
-0.0103936
-0.0116078
-0.0128958
-0.0142497
-0.01566
-0.0171156
-0.0186044
-0.0201135
-0.0216294
-0.0231388
-0.0246282
-0.0260851
-0.0274973
-0.0288539
-0.0301448
-0.0313612
-0.0324953
-0.0335404
-0.034491
-0.0353424
-0.0360909
-0.0367333
-0.0372674
-0.0376914
-0.0380039
-0.0382035
-0.0382896
-0.0382617
-0.0381198
-0.0378632
-0.011967
-0.0133261
-0.0147614
-0.0162631
-0.0178197
-0.0194184
-0.0210455
-0.0226866
-0.0243269
-0.0259523
-0.0275488
-0.0291034
-0.030604
-0.0320399
-0.0334015
-0.0346804
-0.0358697
-0.0369633
-0.0379566
-0.0388456
-0.0396273
-0.0402994
-0.0408601
-0.0413083
-0.0416431
-0.0418634
-0.041969
-0.0419596
-0.0418353
-0.0415954
-0.0136645
-0.0151701
-0.0167523
-0.0183996
-0.0200985
-0.0218344
-0.023592
-0.0253555
-0.0271094
-0.0288388
-0.0305293
-0.0321681
-0.0337433
-0.0352447
-0.0366633
-0.0379916
-0.0392235
-0.0403538
-0.0413787
-0.0422951
-0.0431009
-0.0437942
-0.0443742
-0.0448402
-0.0451916
-0.045428
-0.0455493
-0.0455555
-0.0454471
-0.0452233
-0.0154752
-0.0171261
-0.0188525
-0.0206405
-0.0224748
-0.0243393
-0.026217
-0.0280914
-0.0299461
-0.0317657
-0.0335363
-0.035245
-0.0368807
-0.0384337
-0.0398962
-0.0412613
-0.0425241
-0.0436802
-0.0447268
-0.0456617
-0.0464833
-0.0471906
-0.0477833
-0.0482613
-0.0486244
-0.0488725
-0.0490058
-0.0490246
-0.0489297
-0.0487203
-0.0173857
-0.0191784
-0.0210433
-0.0229646
-0.0249253
-0.0269075
-0.0288934
-0.0308654
-0.032807
-0.0347028
-0.036539
-0.0383036
-0.0399861
-0.0415778
-0.0430719
-0.0444627
-0.045746
-0.0469187
-0.0479787
-0.0489245
-0.0497553
-0.0504707
-0.0510709
-0.0515563
-0.051927
-0.0193804
-0.0213089
-0.0233047
-0.02535
-0.027426
-0.0295138
-0.0315945
-0.0336504
-0.0356647
-0.0376225
-0.0395105
-0.0413177
-0.0430346
-0.0446536
-0.0461688
-0.0475758
-0.0488713
-0.0500531
-0.05112
-0.0520711
-0.0529061
-0.0536253
-0.0542291
-0.0547184
-0.0550935
-0.0214423
-0.0234989
-0.0256161
-0.0277743
-0.0299535
-0.0321337
-0.0342957
-0.0364214
-0.0384947
-0.0405011
-0.0424284
-0.0442664
-0.0460069
-0.0476435
-0.0491713
-0.0505871
-0.0518884
-0.053074
-0.0541432
-0.0550957
-0.0559318
-0.0566519
-0.0572569
-0.0577478
-0.0581252
-0.0235536
-0.025729
-0.0279567
-0.030216
-0.0324855
-0.0347448
-0.0369745
-0.0391569
-0.0412763
-0.0433193
-0.0452748
-0.0471336
-0.048889
-0.0505355
-0.0520696
-0.0534888
-0.0547917
-0.0559775
-0.0570462
-0.057998
-0.0588335
-0.0595532
-0.0601581
-0.0606496
-0.061028
-0.0256964
-0.0279799
-0.0303067
-0.0326545
-0.0350015
-0.037327
-0.0396116
-0.0418384
-0.0439926
-0.0460619
-0.0480362
-0.049908
-0.0516714
-0.0533224
-0.0548584
-0.0562777
-0.0575796
-0.0587639
-0.0598311
-0.0607815
-0.061616
-0.0623351
-0.06294
-0.0634317
-0.0638108
-0.027853
-0.0302335
-0.0326473
-0.0350714
-0.0374835
-0.0398628
-0.0421908
-0.0444512
-0.0466305
-0.0487174
-0.0507034
-0.0525821
-0.0543489
-0.0560008
-0.057536
-0.0589537
-0.0602538
-0.0614364
-0.0625022
-0.0634518
-0.064286
-0.0650053
-0.0656108
-0.0661034
-0.0664835
-0.0300065
-0.0324726
-0.0349617
-0.0374501
-0.0399155
-0.0423377
-0.0446988
-0.0469837
-0.04918
-0.051278
-0.0532702
-0.0551517
-0.0569189
-0.0585698
-0.0601033
-0.0615193
-0.062818
-0.0639998
-0.0650654
-0.0660156
-0.0668509
-0.0675719
-0.0681794
-0.0686739
-0.0321411
-0.0346816
-0.0372346
-0.0397762
-0.0422845
-0.0447398
-0.0471254
-0.0494272
-0.0516344
-0.0537384
-0.0557333
-0.057615
-0.0593812
-0.0610306
-0.0625628
-0.063978
-0.0652766
-0.0664593
-0.0675267
-0.0684795
-0.069318
-0.0700425
-0.0706536
-0.0711516
-0.0342424
-0.0368466
-0.0394529
-0.0420376
-0.0445795
-0.0470597
-0.0494625
-0.0517755
-0.0539889
-0.0560957
-0.0580911
-0.0599721
-0.0617371
-0.0633856
-0.0649176
-0.0663337
-0.0676343
-0.0688201
-0.0698916
-0.0708493
-0.0716933
-0.0362976
-0.0389553
-0.0416053
-0.0442243
-0.0467918
-0.04929
-0.0517046
-0.0540244
-0.0562409
-0.0583485
-0.0603434
-0.0622236
-0.0639882
-0.0656373
-0.0671711
-0.0685902
-0.0698953
-0.0710867
-0.0721647
-0.0731298
-0.0739815
-0.0382953
-0.0409973
-0.0436824
-0.046328
-0.0489145
-0.0514253
-0.0538475
-0.0561709
-0.0583888
-0.0604963
-0.0624908
-0.064371
-0.0661367
-0.0677882
-0.0693259
-0.0707506
-0.0720626
-0.0732622
-0.0743493
-0.0753241
-0.0761858
-0.0402255
-0.0429635
-0.0456764
-0.0483422
-0.0509424
-0.0534616
-0.0558882
-0.0582135
-0.0604317
-0.0625392
-0.064534
-0.0664157
-0.0681842
-0.0698402
-0.0713843
-0.072817
-0.0741384
-0.0753486
-0.0764472
-0.0774337
-0.0783073
-0.0420798
-0.0448466
-0.0475809
-0.0502616
-0.0528713
-0.0553959
-0.0578249
-0.0601511
-0.0623695
-0.0644774
-0.0664738
-0.0683585
-0.070132
-0.0717948
-0.0733475
-0.0747904
-0.0761236
-0.0773465
-0.0784585
-0.0794588
-0.0803459
-0.0438509
-0.0466402
-0.0493906
-0.052082
-0.0546979
-0.0572258
-0.0596561
-0.0619827
-0.0642018
-0.0663113
-0.0683107
-0.0702002
-0.0719805
-0.0736522
-0.0752156
-0.076671
-0.0780178
-0.0792553
-0.0803824
-0.0813978
-0.0822997
-0.0455326
-0.0483392
-0.0511013
-0.0538
-0.05642
-0.0589496
-0.0613807
-0.0637079
-0.0659283
-0.0680406
-0.0700445
-0.0719407
-0.0737297
-0.0754121
-0.0769881
-0.0784575
-0.0798196
-0.0810731
-0.0822165
-0.0832482
-0.0841658
-0.0629976
-0.0653259
-0.0675486
-0.0696649
-0.0716749
-0.0735792
-0.0753785
-0.0770732
-0.0786633
-0.0801481
-0.0815266
-0.0827972
-0.0839578
-0.0850063
-0.0859403
-0.0817399
-0.0831356
-0.0844238
-0.085602
-0.0866679
-0.0876183
)
;

boundaryField
{
    movingWall
    {
        type            zeroGradient;
    }
    fixedWalls
    {
        type            zeroGradient;
    }
    frontAndBack
    {
        type            empty;
    }
    procBoundary1to0
    {
        type            processor;
        value           nonuniform List<scalar> 
45
(
-0.0010299
-0.000971484
-0.000926306
-0.000886889
-0.000851692
-0.000823194
-0.000803996
-0.000797004
-0.000805779
-0.000834626
-0.000888639
-0.000973787
-0.00109698
-0.00126607
-0.00148988
-0.0017781
-0.0021411
-0.00258976
-0.00313507
-0.00378775
-0.00378775
-0.0040167
-0.0048138
-0.00573272
-0.00677867
-0.00795441
-0.00925994
-0.0106924
-0.012246
-0.0139122
-0.0156798
-0.0175357
-0.0194648
-0.0214512
-0.0234781
-0.025529
-0.0275873
-0.0296377
-0.0316655
-0.0336574
-0.0356014
-0.0374869
-0.0393043
-0.0410457
-0.0427038
)
;
    }
    procBoundary1to3
    {
        type            processor;
        value           nonuniform List<scalar> 
23
(
-0.0471196
-0.049939
-0.0527093
-0.0554127
-0.0580352
-0.0605659
-0.0605659
-0.0645054
-0.0668356
-0.0690616
-0.0711831
-0.0732004
-0.0751142
-0.0769251
-0.0786334
-0.0802387
-0.0802387
-0.0832294
-0.0846427
-0.0859487
-0.0871447
-0.0882278
-0.0891947
)
;
    }
    procBoundary1to6
    {
        type            processor;
        value           nonuniform List<scalar> 
26
(
-0.0521829
-0.0523248
-0.0523532
-0.0522689
-0.0520719
-0.0521829
-0.0553544
-0.058389
-0.0612936
-0.0640775
-0.0667514
-0.0690559
-0.0690559
-0.0724234
-0.0730399
-0.0715365
-0.073543
-0.0724234
-0.0747194
-0.0769334
-0.0790664
-0.081118
-0.0830859
-0.0849669
-0.0867566
-0.08845
)
;
    }
    procBoundary1to7
    {
        type            processor;
        value           nonuniform List<scalar> 
33
(
0.00084074
0.000707877
0.000622313
0.000554204
0.000485749
0.000407688
0.000308627
-6.53742e-05
0.000174444
-2.66022e-05
-0.000523009
-6.53742e-05
-0.000431532
-0.000523009
-0.000961668
-0.0015519
-0.00232982
-0.00333372
-0.00460168
-0.00616835
-0.00806128
-0.0102969
-0.0128772
-0.0157872
-0.0189944
-0.0224505
-0.0260952
-0.0298613
-0.0336809
-0.0374912
-0.0412389
-0.044883
-0.0483955
)
;
    }
}


// ************************************************************************* //
