/*--------------------------------*- C++ -*----------------------------------*\
  =========                 |
  \\      /  F ield         | OpenFOAM: The Open Source CFD Toolbox
   \\    /   O peration     | Website:  https://openfoam.org
    \\  /    A nd           | Version:  9
     \\/     M anipulation  |
\*---------------------------------------------------------------------------*/
FoamFile
{
    format      ascii;
    class       surfaceScalarField;
    location    "1.5";
    object      phi;
}
// * * * * * * * * * * * * * * * * * * * * * * * * * * * * * * * * * * * * * //

dimensions      [0 3 -1 0 0 0 0];

internalField   nonuniform List<scalar> 
2420
(
-2.64339e-08
2.57595e-09
-2.91575e-08
2.72361e-09
-3.20221e-08
2.86465e-09
-3.50178e-08
2.99562e-09
-3.81308e-08
3.11308e-09
-4.13443e-08
3.2135e-09
-4.46375e-08
3.29313e-09
-4.79855e-08
3.34806e-09
-5.13597e-08
3.3742e-09
-5.47272e-08
3.36747e-09
-5.8051e-08
3.32383e-09
-6.12905e-08
3.23947e-09
-6.44014e-08
3.11088e-09
-6.73364e-08
2.93505e-09
-7.0046e-08
2.70956e-09
-7.24788e-08
2.43279e-09
-7.45828e-08
2.10402e-09
-7.63064e-08
1.72359e-09
-7.75994e-08
1.29303e-09
-7.84148e-08
8.15404e-10
-7.87099e-08
2.95113e-10
-7.84449e-08
-2.65e-10
-7.75897e-08
-8.55243e-10
-7.61214e-08
-1.46836e-09
-7.40264e-08
-2.095e-09
-7.13016e-08
-2.7248e-09
-6.7955e-08
-3.34651e-09
-6.40068e-08
-3.94823e-09
-5.94891e-08
-4.51769e-09
-5.44465e-08
-5.04259e-09
-4.89354e-08
-5.51117e-09
-4.30223e-08
-5.91306e-09
-6.23925e-09
-8.39313e-08
1.00838e-08
-9.18154e-08
1.06078e-08
-1.0005e-07
1.10992e-08
-1.086e-07
1.15454e-08
-1.1742e-07
1.19338e-08
-1.26458e-07
1.22512e-08
-1.35649e-07
1.2484e-08
-1.44919e-07
1.26181e-08
-1.54184e-07
1.26393e-08
-1.63351e-07
1.25339e-08
-1.72315e-07
1.22885e-08
-1.80967e-07
1.1891e-08
-1.89187e-07
1.13307e-08
-1.96851e-07
1.0599e-08
-2.03831e-07
9.68976e-09
-2.09998e-07
8.59975e-09
-2.15223e-07
7.32915e-09
-2.19381e-07
5.88183e-09
-2.22354e-07
4.26576e-09
-2.24032e-07
2.49355e-09
-2.24321e-07
5.84017e-10
-2.23136e-07
-1.45056e-09
-2.20412e-07
-3.57879e-09
-2.16109e-07
-5.77133e-09
-2.10207e-07
-7.99674e-09
-2.02712e-07
-1.02197e-08
-1.93656e-07
-1.24024e-08
-1.83099e-07
-1.45056e-08
-1.71128e-07
-1.64891e-08
-1.57857e-07
-1.83134e-08
-1.43427e-07
-1.99408e-08
-1.28003e-07
-2.1337e-08
-2.24724e-08
-1.45781e-07
2.23918e-08
-1.58643e-07
2.34695e-08
-1.72009e-07
2.44647e-08
-1.85814e-07
2.53507e-08
-1.9998e-07
2.61004e-08
-2.14415e-07
2.66862e-08
-2.29011e-07
2.70794e-08
-2.43644e-07
2.72514e-08
-2.58179e-07
2.71739e-08
-2.72464e-07
2.68195e-08
-2.86339e-07
2.61629e-08
-2.99629e-07
2.51818e-08
-3.12156e-07
2.38573e-08
-3.23732e-07
2.21754e-08
-3.3417e-07
2.01275e-08
-3.43282e-07
1.77113e-08
-3.50884e-07
1.49314e-08
-3.56802e-07
1.18002e-08
-3.60874e-07
8.33775e-09
-3.62954e-07
4.57344e-09
-3.62922e-07
5.51266e-10
-3.60661e-07
-3.71104e-09
-3.56104e-07
-8.13605e-09
-3.49205e-07
-1.26705e-08
-3.39951e-07
-1.72505e-08
-3.28365e-07
-2.18059e-08
-3.14504e-07
-2.62631e-08
-2.98464e-07
-3.0546e-08
-2.80375e-07
-3.45777e-08
-2.60406e-07
-3.82827e-08
-2.38757e-07
-4.15892e-08
-2.15662e-07
-4.4432e-08
-4.67533e-08
-2.1185e-07
3.94395e-08
-2.29588e-07
4.12081e-08
-2.4794e-07
4.28164e-08
-2.66809e-07
4.42194e-08
-2.8608e-07
4.53716e-08
-3.0562e-07
4.62266e-08
-3.25278e-07
4.67373e-08
-3.44884e-07
4.68573e-08
-3.64252e-07
4.65415e-08
-3.8318e-07
4.57476e-08
-4.01455e-07
4.44376e-08
-4.18852e-07
4.2579e-08
-4.35141e-07
4.01461e-08
-4.50087e-07
3.71215e-08
-4.63456e-07
3.34974e-08
-4.75021e-07
2.92761e-08
-4.84561e-07
2.44715e-08
-4.91871e-07
1.91097e-08
-4.96762e-07
1.32288e-08
-4.99067e-07
6.87847e-09
-4.98664e-07
1.48618e-10
-4.95413e-07
-6.96207e-09
-4.89257e-07
-1.42927e-08
-4.80153e-07
-2.17745e-08
-4.681e-07
-2.93031e-08
-4.53138e-07
-3.67682e-08
-4.35346e-07
-4.40548e-08
-4.14847e-07
-5.10452e-08
-3.91803e-07
-5.76213e-08
-3.66419e-07
-6.36671e-08
-3.38935e-07
-6.90725e-08
-3.09631e-07
-7.37363e-08
-7.75698e-08
-2.8208e-07
6.12259e-08
-3.04662e-07
6.37905e-08
-3.27933e-07
6.6087e-08
-3.51762e-07
6.80481e-08
-3.75997e-07
6.96066e-08
-4.00464e-07
7.06943e-08
-4.24971e-07
7.12435e-08
-4.49301e-07
7.11882e-08
-4.73226e-07
7.0466e-08
-4.96498e-07
6.90196e-08
-5.1886e-07
6.67992e-08
-5.40045e-07
6.3764e-08
-5.59783e-07
5.98842e-08
-5.77804e-07
5.51425e-08
-5.93842e-07
4.95356e-08
-6.07641e-07
4.30752e-08
-6.18959e-07
3.57892e-08
-6.27571e-07
2.7722e-08
-6.33277e-07
1.89348e-08
-6.35905e-07
9.50618e-09
-6.35305e-07
-4.51049e-10
-6.31376e-07
-1.08915e-08
-6.24039e-07
-2.16297e-08
-6.13263e-07
-3.25501e-08
-5.99057e-07
-4.35088e-08
-5.81473e-07
-5.43527e-08
-5.60604e-07
-6.49238e-08
-5.36589e-07
-7.50606e-08
-5.09608e-07
-8.46016e-08
-4.79887e-07
-9.33881e-08
-4.47691e-07
-1.01269e-07
-4.13323e-07
-1.08105e-07
-1.13772e-07
-3.56459e-07
8.78009e-08
-3.83912e-07
9.12428e-08
-4.12101e-07
9.42767e-08
-4.40864e-07
9.68104e-08
-4.7001e-07
9.87527e-08
-4.99327e-07
1.00012e-07
-5.28582e-07
1.00498e-07
-5.57521e-07
1.00127e-07
-5.85872e-07
9.88174e-08
-6.13353e-07
9.64998e-08
-6.39668e-07
9.31144e-08
-6.64519e-07
8.86152e-08
-6.87606e-07
8.29717e-08
-7.08634e-07
7.61703e-08
-7.27315e-07
6.82166e-08
-7.43376e-07
5.91357e-08
-7.5656e-07
4.89733e-08
-7.66634e-07
3.77958e-08
-7.73389e-07
2.56905e-08
-7.76649e-07
1.27662e-08
-7.76271e-07
-8.29665e-10
-7.72139e-07
-1.5023e-08
-7.64186e-07
-2.95831e-08
-7.5238e-07
-4.43559e-08
-7.36733e-07
-5.91557e-08
-7.173e-07
-7.37865e-08
-6.94177e-07
-8.80463e-08
-6.67508e-07
-1.0173e-07
-6.37478e-07
-1.14631e-07
-6.04319e-07
-1.26547e-07
-5.68306e-07
-1.37282e-07
-5.29753e-07
-1.46658e-07
-1.54512e-07
-4.35007e-07
1.19259e-07
-4.67406e-07
1.23642e-07
-5.00573e-07
1.27444e-07
-5.34311e-07
1.30548e-07
-5.68395e-07
1.32836e-07
-6.02576e-07
1.34193e-07
-6.36584e-07
1.34506e-07
-6.7013e-07
1.33673e-07
-7.0291e-07
1.31598e-07
-7.3461e-07
1.28199e-07
-7.64907e-07
1.23411e-07
-7.93477e-07
1.17186e-07
-8.20001e-07
1.09496e-07
-8.44165e-07
1.00334e-07
-8.65667e-07
8.97188e-08
-8.84223e-07
7.76915e-08
-8.99568e-07
6.43182e-08
-9.11461e-07
4.96894e-08
-9.19691e-07
3.39198e-08
-9.24071e-07
1.71462e-08
-9.24469e-07
-4.31664e-10
-9.20743e-07
-1.87482e-08
-9.12835e-07
-3.74919e-08
-9.00704e-07
-5.64867e-08
-8.84355e-07
-7.55042e-08
-8.63836e-07
-9.43059e-08
-8.39236e-07
-1.12646e-07
-8.10689e-07
-1.30277e-07
-7.78376e-07
-1.46945e-07
-7.42521e-07
-1.62401e-07
-7.03397e-07
-1.76406e-07
-6.61321e-07
-1.88734e-07
-1.99181e-07
-5.17753e-07
1.5573e-07
-5.55219e-07
1.61107e-07
-5.93475e-07
1.657e-07
-6.32289e-07
1.69363e-07
-6.71405e-07
1.71952e-07
-7.10541e-07
1.73329e-07
-7.49396e-07
1.73361e-07
-7.87652e-07
1.71928e-07
-8.24977e-07
1.68923e-07
-8.61031e-07
1.64254e-07
-8.95474e-07
1.57854e-07
-9.27962e-07
1.49674e-07
-9.5816e-07
1.39694e-07
-9.85744e-07
1.27917e-07
-1.0104e-06
1.14376e-07
-1.03184e-06
9.91297e-08
-1.04979e-06
8.22656e-08
-1.064e-06
6.38987e-08
-1.07425e-06
4.41708e-08
-1.08035e-06
2.32489e-08
-1.08214e-06
1.35678e-09
-1.0795e-06
-2.13863e-08
-1.07234e-06
-4.46544e-08
-1.0606e-06
-6.8224e-08
-1.04428e-06
-9.18279e-08
-1.0234e-06
-1.15186e-07
-9.9803e-07
-1.38012e-07
-9.68295e-07
-1.60012e-07
-9.34351e-07
-1.80889e-07
-8.96411e-07
-2.00341e-07
-8.54747e-07
-2.18071e-07
-8.09665e-07
-6.04719e-07
1.97376e-07
-6.47407e-07
2.03795e-07
-6.90901e-07
2.09195e-07
-7.34941e-07
2.13403e-07
-7.7924e-07
2.1625e-07
-8.23487e-07
2.17576e-07
-8.67356e-07
2.1723e-07
-9.10502e-07
2.15075e-07
-9.52575e-07
2.10995e-07
-9.93216e-07
2.04895e-07
-1.03207e-06
1.96704e-07
-1.06877e-06
1.86379e-07
-1.10298e-06
1.73908e-07
-1.13437e-06
1.59305e-07
-1.16261e-06
1.42618e-07
-1.18741e-06
1.23925e-07
-1.20848e-06
1.03333e-07
-1.22556e-06
8.09817e-08
-1.23843e-06
5.70377e-08
-1.24687e-06
3.16972e-08
-1.25071e-06
5.19534e-09
-1.24983e-06
-2.22712e-08
-1.24409e-06
-5.03915e-08
-1.23343e-06
-7.88857e-08
-1.21781e-06
-1.0745e-07
-1.19723e-06
-1.35766e-07
-1.17174e-06
-1.63504e-07
-1.14142e-06
-1.90329e-07
-1.10642e-06
-2.15888e-07
-1.06694e-06
-6.95886e-07
2.44378e-07
-7.43974e-07
2.51883e-07
-7.92886e-07
2.58107e-07
-8.42334e-07
2.6285e-07
-8.92003e-07
2.6592e-07
-9.41561e-07
2.67134e-07
-9.90656e-07
2.66326e-07
-1.03893e-06
2.63346e-07
-1.086e-06
2.58072e-07
-1.13151e-06
2.50405e-07
-1.17509e-06
2.40277e-07
-1.21636e-06
2.2765e-07
-1.25497e-06
2.1252e-07
-1.29058e-06
1.94916e-07
-1.32286e-06
1.74898e-07
-1.3515e-06
1.52562e-07
-1.3762e-06
1.28037e-07
-1.3967e-06
1.01481e-07
-1.41275e-06
7.30859e-08
-1.42413e-06
4.30716e-08
-1.43062e-06
1.1693e-08
-1.43209e-06
-2.08003e-08
-1.42839e-06
-5.40948e-08
-1.41941e-06
-8.78643e-08
-1.40509e-06
-1.21771e-07
-1.3854e-06
-1.55456e-07
-1.36035e-06
-1.88551e-07
-1.33001e-06
-2.2067e-07
-2.51417e-07
-7.91168e-07
2.96923e-07
-8.44845e-07
3.0556e-07
-8.99365e-07
3.12627e-07
-9.54415e-07
3.179e-07
-1.00966e-06
3.21163e-07
-1.06474e-06
3.22215e-07
-1.11929e-06
3.20876e-07
-1.17293e-06
3.16987e-07
-1.22528e-06
3.10418e-07
-1.27594e-06
3.01073e-07
-1.32455e-06
2.88884e-07
-1.37072e-06
2.73821e-07
-1.41409e-06
2.5589e-07
-1.4543e-06
2.3513e-07
-1.49102e-06
2.11617e-07
-1.52393e-06
1.85464e-07
-1.5527e-06
1.56816e-07
-1.57707e-06
1.25851e-07
-1.59677e-06
9.27817e-08
-1.61155e-06
5.78509e-08
-1.62119e-06
2.13343e-08
-1.62552e-06
-1.64759e-08
-1.62435e-06
-5.52622e-08
-1.61756e-06
-9.46528e-08
-1.60505e-06
-1.34279e-07
-1.58676e-06
-1.73745e-07
-1.56267e-06
-2.12642e-07
-1.5328e-06
-2.50539e-07
-2.87e-07
-8.90385e-07
3.5519e-07
-9.49828e-07
3.65003e-07
-1.01013e-06
3.72934e-07
-1.07097e-06
3.78733e-07
-1.13197e-06
3.82166e-07
-1.19277e-06
3.83014e-07
-1.25298e-06
3.81083e-07
-1.3122e-06
3.76208e-07
-1.37004e-06
3.68256e-07
-1.42609e-06
3.5713e-07
-1.47998e-06
3.42767e-07
-1.5313e-06
3.25145e-07
-1.57969e-06
3.04278e-07
-1.62477e-06
2.80217e-07
-1.66621e-06
2.53053e-07
-1.70366e-06
2.22913e-07
-1.7368e-06
1.89959e-07
-1.76534e-06
1.54389e-07
-1.78899e-06
1.16433e-07
-1.8075e-06
7.63547e-08
-1.82061e-06
3.44504e-08
-1.82815e-06
-8.94403e-09
-1.82988e-06
-5.35247e-08
-1.82568e-06
-9.88599e-08
-1.8154e-06
-1.44559e-07
-1.79895e-06
-1.90194e-07
-1.77627e-06
-2.35319e-07
-1.74735e-06
-2.7946e-07
-3.22144e-07
-9.93223e-07
4.1933e-07
-1.05858e-06
4.30358e-07
-1.12481e-06
4.39169e-07
-1.19157e-06
4.45489e-07
-1.25847e-06
4.49065e-07
-1.32511e-06
4.49662e-07
-1.39111e-06
4.47076e-07
-1.45604e-06
4.41136e-07
-1.51949e-06
4.31707e-07
-1.58105e-06
4.18694e-07
-1.64032e-06
4.02039e-07
-1.69691e-06
3.81727e-07
-1.75041e-06
3.57782e-07
-1.80046e-06
3.3027e-07
-1.8467e-06
2.99294e-07
-1.88879e-06
2.64996e-07
-1.92638e-06
2.27557e-07
-1.95919e-06
1.8719e-07
-1.9869e-06
1.44148e-07
-2.00926e-06
9.87116e-08
-2.026e-06
5.11932e-08
-2.03693e-06
1.98497e-09
-2.0418e-06
-4.86574e-08
-2.04045e-06
-1.0021e-07
-2.03272e-06
-1.52285e-07
-2.01849e-06
-2.04424e-07
-1.99766e-06
-2.56146e-07
-1.97018e-06
-3.06944e-07
-3.56308e-07
-1.09921e-06
4.8944e-07
-1.17057e-06
5.01712e-07
-1.2428e-06
5.11405e-07
-1.31554e-06
5.18227e-07
-1.38838e-06
5.21903e-07
-1.4609e-06
5.22187e-07
-1.53269e-06
5.18865e-07
-1.60332e-06
5.11761e-07
-1.67235e-06
5.00741e-07
-1.73937e-06
4.85711e-07
-1.80395e-06
4.66622e-07
-1.86569e-06
4.43468e-07
-1.9242e-06
4.16285e-07
-1.97908e-06
3.85152e-07
-2.02997e-06
3.50191e-07
-2.07654e-06
3.11559e-07
-2.11844e-06
2.69457e-07
-2.15537e-06
2.24118e-07
-2.18703e-06
1.75812e-07
-2.21316e-06
1.24841e-07
-2.23351e-06
7.15412e-08
-2.24781e-06
1.62876e-08
-2.25591e-06
-4.05588e-08
-2.25757e-06
-9.85436e-08
-2.25264e-06
-1.57219e-07
-2.24096e-06
-2.16109e-07
-2.22239e-06
-2.74708e-07
-2.19686e-06
-3.32483e-07
-3.88895e-07
-1.2077e-06
5.65542e-07
-1.28505e-06
5.79062e-07
-1.36326e-06
5.89616e-07
-1.44192e-06
5.96891e-07
-1.52062e-06
6.00595e-07
-1.5989e-06
6.0047e-07
-1.67633e-06
5.96294e-07
-1.75246e-06
5.8789e-07
-1.82684e-06
5.75124e-07
-1.89904e-06
5.5791e-07
-1.96862e-06
5.36207e-07
-2.03518e-06
5.10023e-07
-2.0983e-06
4.7941e-07
-2.15762e-06
4.44467e-07
-2.21276e-06
4.05333e-07
-2.26339e-06
3.62189e-07
-2.30919e-06
3.15256e-07
-2.34986e-06
2.64789e-07
-2.38513e-06
2.11079e-07
-2.41473e-06
1.54447e-07
-2.43844e-06
9.52463e-08
-2.45601e-06
3.38591e-08
-2.46726e-06
-2.93114e-08
-2.47198e-06
-9.38237e-08
-2.46999e-06
-1.5921e-07
-2.46112e-06
-2.24979e-07
-2.44521e-06
-2.90613e-07
-2.42214e-06
-3.55558e-07
-4.19262e-07
-1.31783e-06
6.47556e-07
-1.40105e-06
6.62291e-07
-1.48508e-06
6.73643e-07
-1.56947e-06
6.81279e-07
-1.65376e-06
6.8489e-07
-1.7375e-06
6.84208e-07
-1.82021e-06
6.79007e-07
-1.90143e-06
6.69109e-07
-1.9807e-06
6.54389e-07
-2.05756e-06
6.34768e-07
-2.13157e-06
6.10223e-07
-2.20233e-06
5.8078e-07
-2.26943e-06
5.46514e-07
-2.33251e-06
5.07546e-07
-2.39122e-06
4.64044e-07
-2.44525e-06
4.16214e-07
-2.49429e-06
3.64301e-07
-2.53809e-06
3.08587e-07
-2.5764e-06
2.49383e-07
-2.60898e-06
1.8703e-07
-2.63563e-06
1.21896e-07
-2.65614e-06
5.43737e-08
-2.67034e-06
-1.51183e-08
-2.67802e-06
-8.61366e-08
-2.67902e-06
-1.5821e-07
-2.67316e-06
-2.30844e-07
-2.66025e-06
-3.03517e-07
-2.64014e-06
-3.75672e-07
-4.46753e-07
-1.42853e-06
7.35274e-07
-1.51738e-06
7.51139e-07
-1.6069e-06
7.63168e-07
-1.69663e-06
7.71009e-07
-1.78608e-06
7.7434e-07
-1.87476e-06
7.72885e-07
-1.96217e-06
7.66418e-07
-2.04783e-06
7.54766e-07
-2.13126e-06
7.37815e-07
-2.21199e-06
7.15507e-07
-2.28961e-06
6.87839e-07
-2.36369e-06
6.54865e-07
-2.43387e-06
6.1669e-07
-2.49979e-06
5.73469e-07
-2.56115e-06
5.254e-07
-2.61766e-06
4.72724e-07
-2.66907e-06
4.15716e-07
-2.71517e-06
3.54683e-07
-2.75575e-06
2.89959e-07
-2.79062e-06
2.21905e-07
-2.81963e-06
1.50902e-07
-2.8426e-06
7.73485e-08
-2.85939e-06
1.66668e-09
-2.86982e-06
-7.56997e-08
-2.87375e-06
-1.54288e-07
-2.87098e-06
-2.33614e-07
-2.86133e-06
-3.13162e-07
-2.84461e-06
-3.92388e-07
-4.70749e-07
-1.53855e-06
8.28339e-07
-1.63259e-06
8.4518e-07
-1.72711e-06
8.57692e-07
-1.82161e-06
8.65507e-07
-1.91556e-06
8.68291e-07
-2.00844e-06
8.65766e-07
-2.09974e-06
8.5771e-07
-2.18894e-06
8.43966e-07
-2.27556e-06
8.2444e-07
-2.35915e-06
7.991e-07
-2.43929e-06
7.67978e-07
-2.51559e-06
7.31165e-07
-2.58771e-06
6.88805e-07
-2.65533e-06
6.41094e-07
-2.7182e-06
5.88272e-07
-2.7761e-06
5.30617e-07
-2.82882e-06
4.68438e-07
-2.87621e-06
4.02073e-07
-2.91813e-06
3.31879e-07
-2.95446e-06
2.58233e-07
-2.98508e-06
1.81525e-07
-3.00989e-06
1.02158e-07
-3.02877e-06
2.05478e-08
-3.0416e-06
-6.28695e-08
-3.04824e-06
-1.47649e-07
-3.04853e-06
-2.33327e-07
-3.04228e-06
-3.19412e-07
-3.02928e-06
-4.05386e-07
-4.90733e-07
-1.64644e-06
9.26238e-07
-1.74507e-06
9.43817e-07
-1.84391e-06
9.56531e-07
-1.9424e-06
9.63997e-07
-2.03999e-06
9.65876e-07
-2.13612e-06
9.61894e-07
-2.23025e-06
9.51846e-07
-2.32188e-06
9.35596e-07
-2.41052e-06
9.13083e-07
-2.49574e-06
8.84314e-07
-2.57713e-06
8.49367e-07
-2.65434e-06
8.0838e-07
-2.72709e-06
7.6155e-07
-2.79511e-06
7.09121e-07
-2.85822e-06
6.51381e-07
-2.91626e-06
5.88652e-07
-2.9691e-06
5.21282e-07
-3.01667e-06
4.49637e-07
-3.05889e-06
3.74099e-07
-3.09571e-06
2.95059e-07
-3.1271e-06
2.12914e-07
-3.153e-06
1.28062e-07
-3.17336e-06
4.09062e-08
-3.1881e-06
-4.81339e-08
-3.19711e-06
-1.38633e-07
-3.20027e-06
-2.3017e-07
-3.1974e-06
-3.22284e-07
-3.18828e-06
-4.145e-07
-5.06345e-07
-1.75061e-06
1.02829e-06
-1.85307e-06
1.04627e-06
-1.95535e-06
1.05881e-06
-2.05687e-06
1.06551e-06
-2.15703e-06
1.06604e-06
-2.25526e-06
1.06013e-06
-2.35102e-06
1.0476e-06
-2.44378e-06
1.02836e-06
-2.5331e-06
1.0024e-06
-2.61854e-06
9.69762e-07
-2.69977e-06
9.30594e-07
-2.77648e-06
8.85093e-07
-2.84845e-06
8.33514e-07
-2.91549e-06
7.76161e-07
-2.97748e-06
7.13376e-07
-3.03436e-06
6.45528e-07
-3.08608e-06
5.73003e-07
-3.13265e-06
4.96202e-07
-3.17407e-06
4.15525e-07
-3.21039e-06
3.31375e-07
-3.24162e-06
2.4415e-07
-3.2678e-06
1.54242e-07
-3.28893e-06
6.20327e-08
-3.30497e-06
-3.2091e-08
-3.31589e-06
-1.27713e-07
-3.32159e-06
-2.24477e-07
-3.32191e-06
-3.21966e-07
-3.31665e-06
-4.19755e-07
-5.17431e-07
-1.74405e-06
1.11005e-06
-1.84941e-06
1.13365e-06
-1.95475e-06
1.15161e-06
-2.05944e-06
1.1635e-06
-2.16285e-06
1.16893e-06
-2.26437e-06
1.16756e-06
-2.36341e-06
1.15917e-06
-2.45943e-06
1.14362e-06
-2.55192e-06
1.12086e-06
-2.64046e-06
1.09093e-06
-2.72468e-06
1.05398e-06
-2.80427e-06
1.01019e-06
-2.87903e-06
9.59847e-07
-2.94878e-06
9.03269e-07
-3.01345e-06
8.40827e-07
-3.07299e-06
7.72919e-07
-3.12743e-06
6.99964e-07
-3.17681e-06
6.22389e-07
-3.22124e-06
5.40622e-07
-3.26079e-06
4.55084e-07
-3.2956e-06
3.66184e-07
-3.32577e-06
2.74317e-07
-3.35139e-06
1.79862e-07
-3.37254e-06
8.31789e-08
-3.38921e-06
-1.54156e-08
-3.40147e-06
-1.15455e-07
-3.40923e-06
-2.16714e-07
-3.41239e-06
-3.1881e-07
-3.41077e-06
-4.21379e-07
-5.24074e-07
-1.83346e-06
1.21762e-06
-1.94115e-06
1.24134e-06
-2.04829e-06
1.25876e-06
-2.15422e-06
1.26943e-06
-2.25828e-06
1.27298e-06
-2.35983e-06
1.26911e-06
-2.4583e-06
1.25763e-06
-2.55314e-06
1.23846e-06
-2.64391e-06
1.21162e-06
-2.7302e-06
1.17723e-06
-2.81173e-06
1.1355e-06
-2.88826e-06
1.08672e-06
-2.95965e-06
1.03124e-06
-3.02584e-06
9.69461e-07
-3.08683e-06
9.01819e-07
-3.14269e-06
8.28773e-07
-3.19351e-06
7.5079e-07
-3.23946e-06
6.68336e-07
-3.2807e-06
5.81864e-07
-3.31743e-06
4.91808e-07
-3.34982e-06
3.98581e-07
-3.37808e-06
3.02568e-07
-3.40234e-06
2.04131e-07
-3.42278e-06
1.03617e-07
-3.4394e-06
1.19627e-09
-3.45238e-06
-1.02468e-07
-3.46165e-06
-2.07445e-07
-3.46715e-06
-3.13315e-07
-3.46874e-06
-4.19787e-07
-5.26593e-07
-1.91527e-06
1.32699e-06
-2.02419e-06
1.35026e-06
-2.13196e-06
1.36653e-06
-2.23787e-06
1.37535e-06
-2.34126e-06
1.37637e-06
-2.44147e-06
1.36933e-06
-2.53796e-06
1.35411e-06
-2.63021e-06
1.33071e-06
-2.71782e-06
1.29923e-06
-2.80047e-06
1.25988e-06
-2.87794e-06
1.21297e-06
-2.95008e-06
1.15887e-06
-3.01685e-06
1.09801e-06
-3.07829e-06
1.0309e-06
-3.13448e-06
9.58015e-07
-3.1856e-06
8.79889e-07
-3.23184e-06
7.97031e-07
-3.27344e-06
7.09936e-07
-3.31066e-06
6.1908e-07
-3.34375e-06
5.24904e-07
-3.37299e-06
4.27818e-07
-3.39861e-06
3.28193e-07
-3.42085e-06
2.26367e-07
-3.43987e-06
1.2264e-07
-3.45593e-06
1.72481e-08
-3.46896e-06
-8.9436e-08
-3.47911e-06
-1.97291e-07
-3.48636e-06
-3.06069e-07
-3.4906e-06
-4.1554e-07
-5.25511e-07
-1.98803e-06
1.43708e-06
-2.09703e-06
1.45926e-06
-2.2042e-06
1.4737e-06
-2.30882e-06
1.47996e-06
-2.41019e-06
1.47774e-06
-2.50772e-06
1.46686e-06
-2.60087e-06
1.44726e-06
-2.68919e-06
1.41903e-06
-2.77234e-06
1.38239e-06
-2.85009e-06
1.33763e-06
-2.9223e-06
1.28518e-06
-2.98894e-06
1.2255e-06
-3.05005e-06
1.15913e-06
-3.10577e-06
1.08662e-06
-3.15631e-06
1.00855e-06
-3.2019e-06
9.2548e-07
-3.24284e-06
8.3797e-07
-3.27944e-06
7.4654e-07
-3.31203e-06
6.51675e-07
-3.34095e-06
5.5382e-07
-3.3665e-06
4.53371e-07
-3.389e-06
3.50684e-07
-3.40869e-06
2.46067e-07
-3.42584e-06
1.39785e-07
-3.44065e-06
3.20611e-08
-3.45323e-06
-7.68593e-08
-3.46369e-06
-1.86835e-07
-3.47206e-06
-2.97699e-07
-3.4783e-06
-4.09296e-07
-5.21503e-07
-2.05049e-06
1.54676e-06
-2.15839e-06
1.56715e-06
-2.26373e-06
1.57903e-06
-2.36578e-06
1.58202e-06
-2.46388e-06
1.57585e-06
-2.55746e-06
1.56044e-06
-2.64604e-06
1.53583e-06
-2.72924e-06
1.50224e-06
-2.80681e-06
1.45996e-06
-2.87862e-06
1.40944e-06
-2.94463e-06
1.35118e-06
-3.0049e-06
1.28577e-06
-3.0596e-06
1.21383e-06
-3.10895e-06
1.13597e-06
-3.15325e-06
1.05285e-06
-3.19284e-06
9.65063e-07
-3.22807e-06
8.732e-07
-3.25932e-06
7.77798e-07
-3.28699e-06
6.79344e-07
-3.31145e-06
5.78275e-07
-3.33305e-06
4.74973e-07
-3.35213e-06
3.69766e-07
-3.369e-06
2.62932e-07
-3.38391e-06
1.54702e-07
-3.39712e-06
4.52636e-08
-3.40877e-06
-6.52088e-08
-3.419e-06
-1.766e-07
-3.42789e-06
-2.88807e-07
-3.43545e-06
-4.01735e-07
-5.15329e-07
-2.10159e-06
1.65492e-06
-2.20723e-06
1.67278e-06
-2.30955e-06
1.68136e-06
-2.40787e-06
1.68033e-06
-2.50154e-06
1.66952e-06
-2.59006e-06
1.64895e-06
-2.67301e-06
1.61879e-06
-2.75013e-06
1.57935e-06
-2.82125e-06
1.53108e-06
-2.88635e-06
1.47453e-06
-2.94549e-06
1.41033e-06
-2.99886e-06
1.33914e-06
-3.04671e-06
1.26168e-06
-3.08936e-06
1.17863e-06
-3.1272e-06
1.09068e-06
-3.16062e-06
9.98486e-07
-3.19006e-06
9.02635e-07
-3.21593e-06
8.03673e-07
-3.23867e-06
7.0208e-07
-3.25867e-06
5.98276e-07
-3.27631e-06
4.92618e-07
-3.29196e-06
3.85407e-07
-3.30591e-06
2.76885e-07
-3.31846e-06
1.67248e-07
-3.32984e-06
5.66466e-08
-3.34025e-06
-5.47987e-08
-3.34984e-06
-1.67006e-07
-3.35873e-06
-2.79922e-07
-3.36696e-06
-3.93505e-07
-5.07757e-07
-2.14055e-06
1.76048e-06
-2.24283e-06
1.77507e-06
-2.34107e-06
1.77961e-06
-2.4346e-06
1.77386e-06
-2.52286e-06
1.75778e-06
-2.60541e-06
1.7315e-06
-2.68193e-06
1.69531e-06
-2.75225e-06
1.64967e-06
-2.81633e-06
1.59516e-06
-2.87424e-06
1.53245e-06
-2.92618e-06
1.46227e-06
-2.97243e-06
1.38539e-06
-3.01333e-06
1.30257e-06
-3.04929e-06
1.21459e-06
-3.08075e-06
1.12215e-06
-3.10818e-06
1.02592e-06
-3.13205e-06
9.26498e-07
-3.1528e-06
8.24423e-07
-3.17087e-06
7.20156e-07
-3.18669e-06
6.14089e-07
-3.20062e-06
5.06551e-07
-3.21302e-06
3.97805e-07
-3.22419e-06
2.88062e-07
-3.23442e-06
1.77479e-07
-3.24395e-06
6.61713e-08
-3.25297e-06
-4.57818e-08
-3.26164e-06
-1.5833e-07
-3.27011e-06
-2.71459e-07
-3.27844e-06
-3.85167e-07
-4.99499e-07
-2.16684e-06
1.86245e-06
-2.2648e-06
1.87303e-06
-2.35804e-06
1.87284e-06
-2.44593e-06
1.86176e-06
-2.528e-06
1.83985e-06
-2.6039e-06
1.8074e-06
-2.67343e-06
1.76484e-06
-2.73653e-06
1.71277e-06
-2.79327e-06
1.65191e-06
-2.84386e-06
1.58303e-06
-2.88857e-06
1.50698e-06
-2.92779e-06
1.4246e-06
-2.96195e-06
1.33673e-06
-2.99152e-06
1.24416e-06
-3.01701e-06
1.14763e-06
-3.03889e-06
1.04781e-06
-3.05767e-06
9.45278e-07
-3.07381e-06
8.40558e-07
-3.08774e-06
7.34082e-07
-3.09985e-06
6.26206e-07
-3.11052e-06
5.17221e-07
-3.12007e-06
4.07355e-07
-3.12879e-06
2.96781e-07
-3.13693e-06
1.85623e-07
-3.14472e-06
7.39615e-08
-3.15235e-06
-3.81578e-08
-3.15997e-06
-1.50706e-07
-3.16774e-06
-2.63696e-07
-3.17575e-06
-3.77155e-07
-4.91157e-07
-2.18029e-06
1.95996e-06
-2.27311e-06
1.96585e-06
-2.36059e-06
1.96032e-06
-2.44219e-06
1.94336e-06
-2.51753e-06
1.91519e-06
-2.58637e-06
1.87624e-06
-2.64863e-06
1.8271e-06
-2.70437e-06
1.76851e-06
-2.75378e-06
1.70132e-06
-2.79717e-06
1.62642e-06
-2.83492e-06
1.54474e-06
-2.8675e-06
1.45718e-06
-2.89541e-06
1.36464e-06
-2.91917e-06
1.26792e-06
-2.9393e-06
1.16776e-06
-2.95632e-06
1.06483e-06
-2.97071e-06
9.59672e-07
-2.98293e-06
8.52779e-07
-2.99339e-06
7.44541e-07
-3.00246e-06
6.35275e-07
-3.01047e-06
5.25228e-07
-3.0177e-06
4.14588e-07
-3.02441e-06
3.03494e-07
-3.03083e-06
1.92042e-07
-3.03713e-06
8.02647e-08
-3.04349e-06
-3.05007e-06
-3.05699e-06
-3.06438e-06
-2.18097e-06
2.05229e-06
-2.26802e-06
2.0529e-06
-2.3492e-06
2.0415e-06
-2.42408e-06
2.01824e-06
-2.49239e-06
1.9835e-06
-2.55402e-06
1.93786e-06
-2.60899e-06
1.88207e-06
-2.6575e-06
1.81702e-06
-2.69985e-06
1.74367e-06
-2.73644e-06
1.66301e-06
-2.76775e-06
1.57605e-06
-2.79431e-06
1.48374e-06
-2.81666e-06
1.38699e-06
-2.83537e-06
1.28662e-06
-2.85095e-06
1.18335e-06
-2.86393e-06
1.0778e-06
-2.87477e-06
9.70511e-07
-2.88389e-06
8.61901e-07
-2.89167e-06
7.5232e-07
-2.89843e-06
6.42036e-07
-2.90446e-06
5.31252e-07
-2.90999e-06
4.20116e-07
-2.91522e-06
3.0873e-07
-2.92034e-06
1.97161e-07
8.54157e-08
-2.16927e-06
2.13889e-06
-2.25009e-06
2.13372e-06
-2.32464e-06
2.11605e-06
-2.39261e-06
2.0862e-06
-2.45382e-06
2.04472e-06
-2.50831e-06
1.99234e-06
-2.55623e-06
1.92999e-06
-2.59787e-06
1.85867e-06
-2.63365e-06
1.77945e-06
-2.66406e-06
1.69342e-06
-2.68964e-06
1.60163e-06
-2.71096e-06
1.50506e-06
-2.7286e-06
1.40464e-06
-2.74314e-06
1.30115e-06
-2.75508e-06
1.1953e-06
-2.76493e-06
1.08765e-06
-2.77311e-06
9.78689e-07
-2.77999e-06
8.68788e-07
-2.78591e-06
7.58238e-07
-2.79113e-06
6.47255e-07
-2.79588e-06
5.35996e-07
-2.80033e-06
4.24568e-07
-2.80464e-06
3.13041e-07
-2.80893e-06
2.01457e-07
8.98094e-08
-2.14578e-06
2.21939e-06
-2.22012e-06
2.20806e-06
-2.28792e-06
2.18385e-06
-2.34897e-06
2.14726e-06
-2.40325e-06
2.099e-06
-2.4509e-06
2.03999e-06
-2.49219e-06
1.97128e-06
-2.52752e-06
1.894e-06
-2.5574e-06
1.80933e-06
-2.58237e-06
1.7184e-06
-2.60305e-06
1.6223e-06
-2.62003e-06
1.52204e-06
-2.63389e-06
1.4185e-06
-2.64519e-06
1.31246e-06
-2.65444e-06
1.20454e-06
-2.66207e-06
1.09528e-06
-2.66847e-06
9.85093e-07
-2.67397e-06
8.74284e-07
-2.67882e-06
7.63087e-07
-2.68323e-06
6.51665e-07
-2.68736e-06
5.40129e-07
-2.69134e-06
4.28549e-07
-2.69527e-06
3.16965e-07
-2.69921e-06
2.05401e-07
9.38398e-08
-2.1113e-06
2.2936e-06
-2.17909e-06
2.27585e-06
-2.24019e-06
2.24496e-06
-2.29454e-06
2.20161e-06
-2.34222e-06
2.14668e-06
-2.38349e-06
2.08126e-06
-2.41874e-06
2.00652e-06
-2.44845e-06
1.92372e-06
-2.4732e-06
1.83408e-06
-2.4936e-06
1.7388e-06
-2.51027e-06
1.63897e-06
-2.52383e-06
1.5356e-06
-2.53485e-06
1.42952e-06
-2.54385e-06
1.32146e-06
-2.55129e-06
1.21199e-06
-2.55758e-06
1.10157e-06
-2.56304e-06
9.90547e-07
-2.56791e-06
8.7916e-07
-2.57241e-06
7.67583e-07
-2.57667e-06
6.55924e-07
-2.58079e-06
5.4425e-07
-2.58484e-06
4.32597e-07
-2.58885e-06
3.20982e-07
-2.59287e-06
2.09414e-07
9.78721e-08
-2.06677e-06
2.36149e-06
-2.1281e-06
2.33718e-06
-2.18274e-06
2.2996e-06
-2.23074e-06
2.2496e-06
-2.2723e-06
2.18824e-06
-2.30779e-06
2.11675e-06
-2.33769e-06
2.03642e-06
-2.36256e-06
1.94858e-06
-2.38302e-06
1.85454e-06
-2.39972e-06
1.75549e-06
-2.41329e-06
1.65254e-06
-2.42433e-06
1.54664e-06
-2.43339e-06
1.43858e-06
-2.44095e-06
1.32902e-06
-2.44743e-06
1.21846e-06
-2.45315e-06
1.10729e-06
-2.45837e-06
9.95772e-07
-2.46329e-06
8.84081e-07
-2.46804e-06
7.7233e-07
-2.47269e-06
6.60578e-07
-2.47729e-06
5.4885e-07
-2.48185e-06
4.37154e-07
-2.48636e-06
3.25487e-07
-2.49079e-06
2.13848e-07
1.02216e-07
-2.01321e-06
2.42317e-06
-2.06833e-06
2.3923e-06
-2.11687e-06
2.34814e-06
-2.15899e-06
2.29173e-06
-2.19502e-06
2.22427e-06
-2.2254e-06
2.14713e-06
-2.2507e-06
2.06171e-06
-2.27153e-06
1.96941e-06
-2.28855e-06
1.87156e-06
-2.30241e-06
1.76935e-06
-2.31373e-06
1.66387e-06
-2.3231e-06
1.556e-06
-2.331e-06
1.44649e-06
-2.33789e-06
1.3359e-06
-2.3441e-06
1.22467e-06
-2.3499e-06
1.11309e-06
-2.35549e-06
1.00136e-06
-2.36098e-06
8.89576e-07
-2.36645e-06
7.77802e-07
-2.37192e-06
6.66048e-07
-2.37738e-06
5.54302e-07
-2.38277e-06
4.4255e-07
-2.38806e-06
3.30777e-07
-2.39318e-06
2.18963e-07
-1.95169e-06
2.47887e-06
-2.00095e-06
2.44156e-06
-2.04385e-06
2.39104e-06
-2.08066e-06
2.32854e-06
-2.1118e-06
2.25541e-06
-2.13779e-06
2.17313e-06
-2.15926e-06
2.08318e-06
-2.17684e-06
1.987e-06
-2.19122e-06
1.88594e-06
-2.20304e-06
1.78117e-06
-2.21289e-06
1.67372e-06
-2.22131e-06
1.56442e-06
-2.22876e-06
1.45393e-06
-2.2356e-06
1.34274e-06
-2.24211e-06
1.23119e-06
-2.2485e-06
1.11948e-06
-2.25489e-06
1.00775e-06
-2.26135e-06
8.96034e-07
-2.26788e-06
7.84334e-07
-2.27445e-06
6.72622e-07
-2.28101e-06
5.60858e-07
-2.28746e-06
4.49002e-07
-2.29372e-06
3.37038e-07
2.24941e-07
-1.88328e-06
2.52894e-06
-1.9271e-06
2.48538e-06
-1.96489e-06
2.42883e-06
-1.997e-06
2.36065e-06
-2.02392e-06
2.28233e-06
-2.04624e-06
2.19545e-06
-2.06461e-06
2.10155e-06
-2.0797e-06
2.00209e-06
-2.09218e-06
1.89841e-06
-2.10266e-06
1.79165e-06
-2.1117e-06
1.68276e-06
-2.11979e-06
1.57251e-06
-2.12733e-06
1.46147e-06
-2.13461e-06
1.35002e-06
-2.14185e-06
1.23843e-06
-2.14919e-06
1.12682e-06
-2.15669e-06
1.01525e-06
-2.16436e-06
9.03702e-07
-2.17216e-06
7.92127e-07
-2.18e-06
6.80468e-07
-2.18779e-06
5.68647e-07
-2.19541e-06
-2.20274e-06
-1.80899e-06
2.57376e-06
-1.84787e-06
2.52426e-06
-1.88111e-06
2.46207e-06
-1.90913e-06
2.38867e-06
-1.9325e-06
2.30569e-06
-1.95183e-06
2.21478e-06
-1.96779e-06
2.11751e-06
-1.98106e-06
2.01536e-06
-1.99227e-06
1.90962e-06
-2.00201e-06
1.80139e-06
-2.01079e-06
1.69154e-06
-2.01903e-06
1.58076e-06
-2.02707e-06
1.46951e-06
-2.03514e-06
1.35809e-06
-2.0434e-06
1.24669e-06
-2.05191e-06
1.13534e-06
-2.06069e-06
1.02403e-06
-2.06969e-06
9.12705e-07
-2.07883e-06
8.01268e-07
-2.088e-06
6.89631e-07
5.77697e-07
-1.72978e-06
2.61379e-06
-1.76423e-06
2.55872e-06
-1.79349e-06
2.49132e-06
-1.81803e-06
2.41321e-06
-1.83846e-06
2.32612e-06
-1.85543e-06
2.23174e-06
-1.86959e-06
2.13168e-06
-1.88161e-06
2.02738e-06
-1.89209e-06
1.9201e-06
-1.90157e-06
1.81087e-06
-1.9105e-06
1.70047e-06
-1.91924e-06
1.5895e-06
-1.92807e-06
1.47833e-06
-1.93714e-06
1.36717e-06
-1.94657e-06
1.25611e-06
-1.95635e-06
1.14513e-06
-1.96647e-06
1.03414e-06
-1.97681e-06
9.23054e-07
-1.98728e-06
8.11734e-07
-1.99773e-06
7.00076e-07
5.87969e-07
-1.64651e-06
2.64949e-06
-1.67705e-06
2.58926e-06
-1.70287e-06
2.51714e-06
-1.72451e-06
2.43485e-06
-1.74258e-06
2.34419e-06
-1.75773e-06
2.24689e-06
-1.77062e-06
2.14457e-06
-1.78187e-06
2.03863e-06
-1.79204e-06
1.93027e-06
-1.80161e-06
1.82044e-06
-1.81098e-06
1.70985e-06
-1.82045e-06
1.59897e-06
-1.83021e-06
1.4881e-06
-1.8404e-06
1.37735e-06
-1.85103e-06
1.26674e-06
-1.86208e-06
1.15618e-06
-1.87348e-06
1.04554e-06
-1.8851e-06
9.34675e-07
-1.8968e-06
8.23436e-07
-1.90843e-06
7.117e-07
5.99356e-07
-1.55995e-06
2.68131e-06
-1.58708e-06
2.61639e-06
-1.60998e-06
2.54004e-06
-1.62922e-06
2.45409e-06
-1.64543e-06
2.3604e-06
-1.65924e-06
2.2607e-06
-1.67128e-06
2.15661e-06
-1.68213e-06
2.04948e-06
-1.69229e-06
1.94044e-06
-1.70221e-06
1.83035e-06
-1.7122e-06
1.71984e-06
-1.7225e-06
1.60927e-06
-1.73327e-06
1.49886e-06
-1.74455e-06
1.38864e-06
-1.75635e-06
1.27853e-06
-1.76858e-06
1.16842e-06
-1.78115e-06
1.05811e-06
-1.79391e-06
9.47434e-07
-1.8067e-06
8.36227e-07
-1.81936e-06
7.24356e-07
6.11713e-07
-1.47077e-06
2.70971e-06
-1.49494e-06
2.64056e-06
-1.51539e-06
2.56049e-06
-1.53269e-06
2.4714e-06
-1.54746e-06
2.37517e-06
-1.56031e-06
2.27355e-06
-1.57183e-06
2.16813e-06
-1.58255e-06
2.0602e-06
-1.59292e-06
1.95081e-06
-1.60332e-06
1.84075e-06
-1.61401e-06
1.73053e-06
-1.62518e-06
1.62044e-06
-1.6369e-06
1.51059e-06
-1.64921e-06
1.40094e-06
-1.66205e-06
1.29137e-06
-1.67532e-06
1.18169e-06
-1.6889e-06
1.07168e-06
-1.70262e-06
9.61154e-07
-1.71631e-06
8.49924e-07
-1.72982e-06
7.37861e-07
6.24865e-07
-1.37952e-06
2.7351e-06
-1.40116e-06
2.6622e-06
-1.41957e-06
2.57889e-06
-1.43531e-06
2.48714e-06
-1.44898e-06
2.38884e-06
-1.46117e-06
2.28574e-06
-1.47241e-06
2.17937e-06
-1.48318e-06
2.07097e-06
-1.49388e-06
1.96151e-06
-1.50482e-06
1.85169e-06
-1.51621e-06
1.74192e-06
-1.52817e-06
1.63241e-06
-1.54077e-06
1.52318e-06
-1.55396e-06
1.41414e-06
-1.56768e-06
1.30509e-06
-1.5818e-06
1.19581e-06
-1.59619e-06
1.08607e-06