/*--------------------------------*- C++ -*----------------------------------*\
  =========                 |
  \\      /  F ield         | OpenFOAM: The Open Source CFD Toolbox
   \\    /   O peration     | Website:  https://openfoam.org
    \\  /    A nd           | Version:  9
     \\/     M anipulation  |
\*---------------------------------------------------------------------------*/
FoamFile
{
    format      ascii;
    class       volVectorField;
    location    "1.5";
    object      U;
}
// * * * * * * * * * * * * * * * * * * * * * * * * * * * * * * * * * * * * * //

dimensions      [0 1 -1 0 0 0 0];

internalField   nonuniform List<vector> 
1250
(
(-0.00251119 6.5583e-05 0)
(-0.00277633 7.00564e-05 0)
(-0.00305597 7.44503e-05 0)
(-0.0033493 7.8663e-05 0)
(-0.00365513 8.25978e-05 0)
(-0.00397195 8.61564e-05 0)
(-0.00429785 8.92311e-05 0)
(-0.00463057 9.17045e-05 0)
(-0.00496743 9.34504e-05 0)
(-0.00530535 9.43372e-05 0)
(-0.00564084 9.42301e-05 0)
(-0.00597 9.29955e-05 0)
(-0.00628858 9.05047e-05 0)
(-0.00659199 8.66391e-05 0)
(-0.00687536 8.12947e-05 0)
(-0.00713364 7.43879e-05 0)
(-0.00736163 6.5861e-05 0)
(-0.00755412 5.56867e-05 0)
(-0.007706 4.3877e-05 0)
(-0.00781238 3.05015e-05 0)
(-0.00786876 1.56742e-05 0)
(-0.00787098 -5.43228e-07 0)
(-0.0078155 -1.79285e-05 0)
(-0.00769964 -3.62128e-05 0)
(-0.00752159 -5.51114e-05 0)
(-0.00728048 -7.4295e-05 0)
(-0.00697654 -9.33962e-05 0)
(-0.00661117 -0.000112018 0)
(-0.00618699 -0.000129744 0)
(-0.00570784 -0.000146148 0)
(-0.00517879 -0.000160821 0)
(-0.00460601 -0.000173413 0)
(-0.00399657 -0.00018362 0)
(-0.00800845 0.000505786 0)
(-0.00877865 0.000534051 0)
(-0.00958536 0.000560928 0)
(-0.0104256 0.000585753 0)
(-0.0112954 0.000607863 0)
(-0.0121898 0.000626572 0)
(-0.0131029 0.000641158 0)
(-0.0140279 0.000650867 0)
(-0.0149569 0.000654924 0)
(-0.0158809 0.000652553 0)
(-0.0167901 0.000642999 0)
(-0.0176737 0.000625548 0)
(-0.0185202 0.000599555 0)
(-0.0193175 0.000564472 0)
(-0.0200528 0.000519873 0)
(-0.0207132 0.000465485 0)
(-0.0212858 0.000401211 0)
(-0.0217579 0.000327156 0)
(-0.0221171 0.000243655 0)
(-0.022352 0.000151313 0)
(-0.0224524 5.09316e-05 0)
(-0.0224092 -5.6689e-05 0)
(-0.0222149 -0.00016993 0)
(-0.0218642 -0.000287261 0)
(-0.021354 -0.000406941 0)
(-0.0206837 -0.000527011 0)
(-0.019855 -0.000645352 0)
(-0.0188725 -0.000759734 0)
(-0.0177436 -0.000867867 0)
(-0.0164784 -0.000967469 0)
(-0.0150898 -0.00105636 0)
(-0.013593 -0.0011326 0)
(-0.0120054 -0.00119447 0)
(-0.0139487 0.00150138 0)
(-0.0152083 0.00157744 0)
(-0.0165211 0.0016484 0)
(-0.0178815 0.00171245 0)
(-0.0192822 0.0017677 0)
(-0.0207148 0.00181224 0)
(-0.0221692 0.00184407 0)
(-0.0236339 0.00186114 0)
(-0.0250959 0.00186144 0)
(-0.0265408 0.00184296 0)
(-0.0279529 0.00180384 0)
(-0.0293155 0.00174236 0)
(-0.0306109 0.00165705 0)
(-0.0318207 0.00154675 0)
(-0.032926 0.00141067 0)
(-0.0339079 0.00124846 0)
(-0.0347479 0.00106024 0)
(-0.035428 0.000846702 0)
(-0.0359312 0.000609097 0)
(-0.036242 0.000349329 0)
(-0.0363471 6.98412e-05 0)
(-0.0362345 -0.000226719 0)
(-0.0358949 -0.000536151 0)
(-0.0353227 -0.000854366 0)
(-0.0345148 -0.00117676 0)
(-0.0334717 -0.00149826 0)
(-0.0321974 -0.00181351 0)
(-0.0306996 -0.00211691 0)
(-0.0289895 -0.00240282 0)
(-0.0270821 -0.00266565 0)
(-0.024996 -0.0029001 0)
(-0.0227529 -0.00310136 0)
(-0.0203774 -0.00326518 0)
(-0.0203148 0.00297503 0)
(-0.0220559 0.00311452 0)
(-0.0238626 0.00324261 0)
(-0.0257263 0.00335582 0)
(-0.0276364 0.0034506 0)
(-0.0295806 0.00352333 0)
(-0.0315445 0.00357033 0)
(-0.0335121 0.00358787 0)
(-0.0354657 0.00357232 0)
(-0.0373856 0.00352024 0)
(-0.0392512 0.00342844 0)
(-0.0410405 0.00329414 0)
(-0.0427305 0.00311508 0)
(-0.044298 0.0028896 0)
(-0.0457195 0.00261679 0)
(-0.0469717 0.00229653 0)
(-0.0480321 0.00192965 0)
(-0.0488794 0.0015179 0)
(-0.0494936 0.00106406 0)
(-0.0498571 0.000571895 0)
(-0.0499551 4.62579e-05 0)
(-0.0497746 -0.000506676 0)
(-0.0493055 -0.00108052 0)
(-0.0485428 -0.00166768 0)
(-0.0474843 -0.0022598 0)
(-0.046132 -0.00284793 0)
(-0.0444918 -0.00342273 0)
(-0.0425737 -0.00397458 0)
(-0.040392 -0.00449383 0)
(-0.0379651 -0.00497098 0)
(-0.0353156 -0.005397 0)
(-0.032469 -0.00576367 0)
(-0.0294549 -0.00606373 0)
(-0.0270979 0.00491626 0)
(-0.0293188 0.00513082 0)
(-0.0316145 0.00532476 0)
(-0.033973 0.00549254 0)
(-0.0363803 0.00562859 0)
(-0.03882 0.00572724 0)
(-0.0412738 0.0057828 0)
(-0.0437213 0.00578966 0)
(-0.04614 0.00574245 0)
(-0.0485062 0.00563618 0)
(-0.0507944 0.00546639 0)
(-0.0529784 0.00522937 0)
(-0.0550312 0.00492225 0)
(-0.0569258 0.00454321 0)
(-0.0586352 0.00409158 0)
(-0.0601332 0.00356796 0)
(-0.0613947 0.00297432 0)
(-0.0623964 0.00231406 0)
(-0.0631168 0.00159202 0)
(-0.0635372 0.000814473 0)
(-0.0636416 -1.08148e-05 0)
(-0.0634173 -0.00087431 0)
(-0.0628551 -0.00176621 0)
(-0.0619496 -0.00267502 0)
(-0.0606996 -0.0035883 0)
(-0.0591082 -0.00449293 0)
(-0.0571826 -0.00537527 0)
(-0.0549344 -0.00622139 0)
(-0.0523796 -0.00701734 0)
(-0.0495385 -0.00774944 0)
(-0.0464359 -0.00840469 0)
(-0.0430997 -0.00897114 0)
(-0.0395623 -0.00943824 0)
(-0.0342939 0.0073325 0)
(-0.0369986 0.00763127 0)
(-0.0397845 0.00789705 0)
(-0.0426365 0.00812194 0)
(-0.045537 0.00829804 0)
(-0.0484658 0.00841742 0)
(-0.0514006 0.00847221 0)
(-0.0543169 0.00845481 0)
(-0.0571884 0.00835811 0)
(-0.0599872 0.00817566 0)
(-0.0626844 0.00790193 0)
(-0.0652502 0.00753248 0)
(-0.0676545 0.00706422 0)
(-0.0698675 0.00649549 0)
(-0.0718598 0.00582632 0)
(-0.0736034 0.00505846 0)
(-0.0750716 0.00419549 0)
(-0.0762398 0.00324289 0)
(-0.0770859 0.00220801 0)
(-0.0775906 0.00110012 0)
(-0.0777376 -6.97696e-05 0)
(-0.0775142 -0.00128953 0)
(-0.076911 -0.00254449 0)
(-0.0759231 -0.00381925 0)
(-0.0745495 -0.00509728 0)
(-0.0727935 -0.00636115 0)
(-0.0706626 -0.00759283 0)
(-0.0681689 -0.00877399 0)
(-0.0653288 -0.00988628 0)
(-0.0621632 -0.0109117 0)
(-0.0586976 -0.0118331 0)
(-0.0549609 -0.0126343 0)
(-0.0509869 -0.0133014 0)
(-0.0419026 0.0102317 0)
(-0.0450995 0.0106218 0)
(-0.0483825 0.0109633 0)
(-0.051733 0.0112457 0)
(-0.0551301 0.0114586 0)
(-0.0585499 0.0115917 0)
(-0.0619663 0.0116348 0)
(-0.0653515 0.0115785 0)
(-0.0686756 0.011414 0)
(-0.0719076 0.0111337 0)
(-0.0750155 0.0107311 0)
(-0.0779669 0.0102014 0)
(-0.0807295 0.00954177 0)
(-0.0832715 0.00875102 0)
(-0.085562 0.00783026 0)
(-0.0875717 0.00678276 0)
(-0.0892729 0.00561405 0)
(-0.0906403 0.00433195 0)
(-0.0916511 0.00294652 0)
(-0.0922856 0.00146996 0)
(-0.0925275 -8.33845e-05 0)
(-0.0923633 -0.00169683 0)
(-0.0917828 -0.00335292 0)
(-0.090781 -0.00503209 0)
(-0.0893563 -0.00671353 0)
(-0.0875111 -0.00837548 0)
(-0.0852522 -0.00999557 0)
(-0.0825909 -0.0115511 0)
(-0.0795429 -0.0130192 0)
(-0.0761284 -0.0143775 0)
(-0.0723726 -0.015604 0)
(-0.0683038 -0.0166784 0)
(-0.0639572 -0.0175827 0)
(-0.0499248 0.0136249 0)
(-0.0536266 0.014112 0)
(-0.0574181 0.0145317 0)
(-0.0612777 0.0148708 0)
(-0.065181 0.0151161 0)
(-0.069101 0.0152551 0)
(-0.0730084 0.0152755 0)
(-0.0768721 0.0151659 0)
(-0.0806596 0.0149162 0)
(-0.0843371 0.0145178 0)
(-0.0878705 0.0139637 0)
(-0.0912255 0.0132493 0)
(-0.094368 0.0123718 0)
(-0.097265 0.0113313 0)
(-0.0998845 0.01013 0)
(-0.102196 0.00877309 0)
(-0.104172 0.00726815 0)
(-0.105785 0.00562547 0)
(-0.107013 0.00385785 0)
(-0.107835 0.00198043 0)
(-0.108233 1.08895e-05 0)
(-0.108193 -0.00202994 0)
(-0.107704 -0.00412173 0)
(-0.10676 -0.00624087 0)
(-0.105357 -0.00836245 0)
(-0.103495 -0.0104605 0)
(-0.10118 -0.0125084 0)
(-0.0984218 -0.0144791 0)
(-0.0952332 -0.0163452 0)
(-0.0916331 -0.0180789 0)
(-0.0876453 -0.0196534 0)
(-0.0833004 -0.0210448 0)
(-0.0786295 -0.0222313 0)
(-0.0583611 0.017527 0)
(-0.0625835 0.018116 0)
(-0.0668987 0.0186157 0)
(-0.0712823 0.01901 0)
(-0.0757068 0.0192833 0)
(-0.0801422 0.0194206 0)
(-0.0845565 0.0194077 0)
(-0.088916 0.0192317 0)
(-0.093186 0.0188813 0)
(-0.0973306 0.0183471 0)
(-0.101314 0.0176222 0)
(-0.105101 0.016702 0)
(-0.108655 0.0155846 0)
(-0.111943 0.0142711 0)
(-0.114932 0.0127653 0)
(-0.117591 0.0110742 0)
(-0.119891 0.00920755 0)
(-0.121804 0.00717801 0)
(-0.123307 0.00500106 0)
(-0.124377 0.00269485 0)
(-0.124995 0.000280154 0)
(-0.125146 -0.00221995 0)
(-0.124817 -0.00478059 0)
(-0.123998 -0.00737458 0)
(-0.122684 -0.00997323 0)
(-0.120873 -0.0125465 0)
(-0.118568 -0.0150637 0)
(-0.115775 -0.0174934 0)
(-0.112504 -0.0198028 0)
(-0.108775 -0.021959 0)
(-0.104609 -0.0239313 0)
(-0.0672085 0.0219553 0)
(-0.0719694 0.0226508 0)
(-0.0768263 0.023232 0)
(-0.0817519 0.0236803 0)
(-0.0867159 0.0239775 0)
(-0.0916859 0.0241065 0)
(-0.0966276 0.0240513 0)
(-0.101505 0.0237975 0)
(-0.106282 0.0233332 0)
(-0.110921 0.0226486 0)
(-0.115384 0.0217367 0)
(-0.119635 0.0205934 0)
(-0.123638 0.0192179 0)
(-0.127358 0.0176123 0)
(-0.13076 0.0157822 0)
(-0.133813 0.013736 0)
(-0.136487 0.0114858 0)
(-0.138754 0.0090464 0)
(-0.140587 0.00643576 0)
(-0.141963 0.00367472 0)
(-0.142861 0.000786803 0)
(-0.143263 -0.00220239 0)
(-0.143154 -0.00526425 0)
(-0.142521 -0.00836815 0)
(-0.141357 -0.0114818 0)
(-0.139657 -0.0145712 0)
(-0.13742 -0.0176014 0)
(-0.134647 -0.0205364 0)
(-0.13135 -0.0233387 0)
(-0.0764581 0.0269286 0)
(-0.0817763 0.027735 0)
(-0.0871936 0.0283997 0)
(-0.0926803 0.0289011 0)
(-0.0982038 0.029219 0)
(-0.103729 0.0293342 0)
(-0.10922 0.029229 0)
(-0.114639 0.0288883 0)
(-0.119948 0.0282992 0)
(-0.125109 0.027452 0)
(-0.130082 0.0263398 0)
(-0.13483 0.0249593 0)
(-0.139316 0.0233105 0)
(-0.143504 0.0213967 0)
(-0.147359 0.0192249 0)
(-0.150848 0.0168056 0)
(-0.153939 0.0141523 0)
(-0.156603 0.011282 0)
(-0.158812 0.00821487 0)
(-0.160541 0.00497414 0)
(-0.161767 0.00158584 0)
(-0.16247 -0.00192154 0)
(-0.162631 -0.00551676 0)
(-0.162236 -0.0091657 0)
(-0.161273 -0.0128326 0)
(-0.159734 -0.0164797 0)
(-0.157615 -0.020068 0)
(-0.154914 -0.0235566 0)
(-0.151639 -0.0269038 0)
(-0.0860923 0.0324656 0)
(-0.0919855 0.0333876 0)
(-0.0979811 0.0341376 0)
(-0.104047 0.0346919 0)
(-0.110148 0.035028 0)
(-0.116248 0.0351248 0)
(-0.122308 0.0349635 0)
(-0.128289 0.034528 0)
(-0.134152 0.033805 0)
(-0.139857 0.0327847 0)
(-0.145364 0.0314608 0)
(-0.150634 0.0298305 0)
(-0.155629 0.0278948 0)
(-0.160311 0.0256582 0)
(-0.164646 0.0231292 0)
(-0.168598 0.0203195 0)
(-0.172135 0.0172447 0)
(-0.175227 0.0139235 0)
(-0.177843 0.0103781 0)
(-0.179956 0.00663386 0)
(-0.181542 0.00271909 0)
(-0.18258 -0.00133501 0)
(-0.183047 -0.00549462 0)
(-0.182927 -0.00972256 0)
(-0.182205 -0.0139799 0)
(-0.180871 -0.0182253 0)
(-0.178916 -0.0224159 0)
(-0.176333 -0.0265064 0)
(-0.173129 -0.0304511 0)
(-0.0960812 0.0385833 0)
(-0.102564 0.0396251 0)
(-0.109152 0.0404626 0)
(-0.115811 0.0410696 0)
(-0.122504 0.0414215 0)
(-0.129191 0.0414958 0)
(-0.135834 0.0412724 0)
(-0.14239 0.0407346 0)
(-0.14882 0.0398689 0)
(-0.155081 0.0386656 0)
(-0.161133 0.0371188 0)
(-0.166935 0.0352263 0)
(-0.172449 0.0329902 0)
(-0.177636 0.0304163 0)
(-0.182459 0.0275142 0)
(-0.186884 0.0242973 0)
(-0.190876 0.0207828 0)
(-0.194403 0.0169913 0)
(-0.197435 0.0129467 0)
(-0.199945 0.00867633 0)
(-0.201906 0.00421055 0)
(-0.203294 -0.000417017 0)
(-0.204089 -0.00516834 0)
(-0.204268 -0.0100058 0)
(-0.203818 -0.0148872 0)
(-0.202723 -0.019768 0)
(-0.200972 -0.0246015 0)
(-0.198555 -0.0293388 0)
(-0.195473 -0.0339302 0)
(-0.106381 0.0452948 0)
(-0.113463 0.04646 0)
(-0.120651 0.0473861 0)
(-0.12791 0.0480447 0)
(-0.135199 0.0484093 0)
(-0.142478 0.048456 0)
(-0.149705 0.0481638 0)
(-0.156836 0.0475152 0)
(-0.16383 0.0464968 0)
(-0.170643 0.045099 0)
(-0.177234 0.0433165 0)
(-0.18356 0.0411481 0)
(-0.189582 0.0385967 0)
(-0.195261 0.0356695 0)
(-0.200558 0.0323777 0)
(-0.20544 0.0287362 0)
(-0.209871 0.0247639 0)
(-0.213819 0.0204833 0)
(-0.217256 0.0159203 0)
(-0.220152 0.0111041 0)
(-0.222481 0.0060672 0)
(-0.224219 0.000845241 0)
(-0.225344 -0.00452195 0)
(-0.225836 -0.00999422 0)
(-0.225676 -0.0155269 0)
(-0.224849 -0.0210729 0)
(-0.22334 -0.0265828 0)
(-0.221133 -0.0320043 0)
(-0.218229 -0.0372847 0)
(-0.116929 0.0526065 0)
(-0.124611 0.053897 0)
(-0.132399 0.0549111 0)
(-0.140254 0.0556183 0)
(-0.148133 0.0559903 0)
(-0.155993 0.0560019 0)
(-0.16379 0.0556312 0)
(-0.171479 0.0548605 0)
(-0.179016 0.0536763 0)
(-0.186356 0.0520695 0)
(-0.193456 0.0500354 0)
(-0.200273 0.0475741 0)
(-0.206767 0.0446899 0)
(-0.212898 0.0413915 0)
(-0.21863 0.0376918 0)
(-0.223926 0.0336077 0)
(-0.228755 0.0291601 0)
(-0.233086 0.0243734 0)
(-0.236889 0.0192757 0)
(-0.240139 0.0138981 0)
(-0.24281 0.0082752 0)
(-0.244878 0.0024443 0)
(-0.246324 -0.00355487 0)
(-0.247126 -0.00967806 0)
(-0.247267 -0.0158795 0)
(-0.246728 -0.0221104 0)
(-0.245493 -0.0283193 0)
(-0.243543 -0.0344515 0)
(-0.240876 -0.0404523 0)
(-0.127647 0.0605162 0)
(-0.135919 0.0619309 0)
(-0.144293 0.0630291 0)
(-0.152725 0.0637782 0)
(-0.161171 0.0641484 0)
(-0.169585 0.064113 0)
(-0.177919 0.0636498 0)
(-0.186128 0.0627407 0)
(-0.194163 0.0613728 0)
(-0.201981 0.0595376 0)
(-0.209535 0.0572317 0)
(-0.216784 0.0544567 0)
(-0.223687 0.0512188 0)
(-0.230205 0.0475288 0)
(-0.236303 0.0434018 0)
(-0.241947 0.0388571 0)
(-0.247107 0.033918 0)
(-0.251755 0.0286111 0)
(-0.255866 0.0229666 0)
(-0.259416 0.0170177 0)
(-0.262382 0.0108004 0)
(-0.264745 0.0043537 0)
(-0.266484 -0.00228132 0)
(-0.267582 -0.00905976 0)
(-0.268021 -0.0159348 0)
(-0.267782 -0.0228569 0)
(-0.266848 -0.0297735 0)
(-0.265197 -0.0366289 0)
(-0.262823 -0.0433673 0)
(-0.138434 0.0690098 0)
(-0.147273 0.0705433 0)
(-0.156204 0.0717167 0)
(-0.165179 0.0724958 0)
(-0.17415 0.0728489 0)
(-0.18307 0.0727488 0)
(-0.191887 0.0721726 0)
(-0.200552 0.0711027 0)
(-0.209018 0.0695269 0)
(-0.217238 0.0674382 0)
(-0.225167 0.064835 0)
(-0.232761 0.0617211 0)
(-0.239984 0.0581053 0)
(-0.246797 0.0540012 0)
(-0.253168 0.0494269 0)
(-0.259068 0.0444046 0)
(-0.26447 0.0389603 0)
(-0.26935 0.0331233 0)
(-0.273688 0.026926 0)
(-0.277465 0.0204034 0)
(-0.280662 0.0135931 0)
(-0.283265 0.00653487 0)
(-0.285256 -0.000729103 0)
(-0.286621 -0.00815414 0)
(-0.287343 -0.0156934 0)
(-0.287405 -0.0232976 0)
(-0.286789 -0.0309144 0)
(-0.285471 -0.0384885 0)
(-0.283443 -0.0459645 0)
(-0.149172 0.0780597 0)
(-0.158539 0.0797002 0)
(-0.16798 0.0809335 0)
(-0.177445 0.0817234 0)
(-0.186881 0.0820371 0)
(-0.196236 0.0818466 0)
(-0.205458 0.0811294 0)
(-0.214495 0.0798688 0)
(-0.223298 0.0780541 0)
(-0.23182 0.0756804 0)
(-0.240017 0.0727491 0)
(-0.247849 0.069267 0)
(-0.255277 0.0652464 0)
(-0.262271 0.0607046 0)
(-0.268802 0.0556634 0)
(-0.274845 0.0501485 0)
(-0.28038 0.0441892 0)
(-0.285389 0.0378176 0)
(-0.289858 0.0310685 0)
(-0.293773 0.0239785 0)
(-0.297122 0.0165866 0)
(-0.299896 0.0089329 0)
(-0.302083 0.00105963 0)
(-0.303672 -0.00698929 0)
(-0.304648 -0.0151679 0)
(-0.304999 -0.0234286 0)
(-0.304706 -0.0317207 0)
(-0.303745 -0.0399905 0)
(-0.302104 -0.0481849 0)
(-0.159725 0.0876224 0)
(-0.169565 0.0893506 0)
(-0.179452 0.0906202 0)
(-0.189333 0.0913934 0)
(-0.199151 0.0916365 0)
(-0.208851 0.0913216 0)
(-0.218378 0.090427 0)
(-0.227679 0.0889379 0)
(-0.236704 0.0868461 0)
(-0.245408 0.0841502 0)
(-0.253748 0.0808552 0)
(-0.261686 0.0769724 0)
(-0.269191 0.0725185 0)
(-0.276235 0.0675155 0)
(-0.282796 0.0619895 0)
(-0.288856 0.0559705 0)
(-0.294402 0.0494912 0)
(-0.299424 0.0425869 0)
(-0.303914 0.0352947 0)
(-0.307867 0.0276529 0)
(-0.311279 0.019701 0)
(-0.314144 0.0114794 0)
(-0.316458 0.00302933 0)
(-0.318215 -0.00560677 0)
(-0.319405 -0.0143848 0)
(-0.320017 -0.02326 0)
(-0.320036 -0.0321847 0)
(-0.319438 -0.0411086 0)
(-0.318212 -0.0499822 0)
(-0.169943 0.0976381 0)
(-0.180182 0.0994258 0)
(-0.190434 0.100699 0)
(-0.20064 0.101418 0)
(-0.210739 0.10155 0)
(-0.220673 0.101068 0)
(-0.230386 0.0999512 0)
(-0.239825 0.0981885 0)
(-0.24894 0.0957753 0)
(-0.257688 0.092715 0)
(-0.26603 0.0890176 0)
(-0.273934 0.0846999 0)
(-0.281373 0.0797842 0)
(-0.288326 0.0742979 0)
(-0.29478 0.0682723 0)
(-0.300725 0.0617419 0)
(-0.306155 0.0547435 0)
(-0.311069 0.0473153 0)
(-0.315467 0.0394967 0)
(-0.319353 0.0313274 0)
(-0.322729 0.0228473 0)
(-0.325599 0.0140961 0)
(-0.327964 0.00511344 0)
(-0.329823 -0.00406048 0)
(-0.331173 -0.0133839 0)
(-0.332006 -0.0228167 0)
(-0.332311 -0.0323153 0)
(-0.332066 -0.041834 0)
(-0.331258 -0.0513285 0)
(-0.169144 0.10569 0)
(-0.179667 0.10803 0)
(-0.190218 0.109839 0)
(-0.200736 0.111073 0)
(-0.211157 0.111693 0)
(-0.22142 0.111664 0)
(-0.231462 0.110962 0)
(-0.241229 0.109571 0)
(-0.250666 0.107484 0)
(-0.259728 0.1047 0)
(-0.268374 0.101231 0)
(-0.276572 0.0970906 0)
(-0.284294 0.092304 0)
(-0.291522 0.0868998 0)
(-0.298245 0.0809114 0)
(-0.304455 0.0743757 0)
(-0.310153 0.0673323 0)
(-0.315342 0.0598218 0)
(-0.320029 0.0518857 0)
(-0.324225 0.0435652 0)
(-0.32794 0.0349011 0)
(-0.331186 0.025933 0)
(-0.333973 0.0166998 0)
(-0.336309 0.00723878 0)
(-0.338199 -0.00241295 0)
(-0.339646 -0.0122168 0)
(-0.340649 -0.0221383 0)
(-0.341198 -0.0321386 0)
(-0.341277 -0.0421781 0)
(-0.340872 -0.0522185 0)
(-0.177957 0.116329 0)
(-0.188738 0.118707 0)
(-0.199496 0.12049 0)
(-0.210167 0.121633 0)
(-0.220683 0.122096 0)
(-0.23098 0.121849 0)
(-0.240995 0.120869 0)
(-0.250674 0.119147 0)
(-0.259965 0.116679 0)
(-0.268827 0.113474 0)
(-0.277225 0.109549 0)
(-0.285132 0.104927 0)
(-0.292531 0.0996402 0)
(-0.299411 0.0937243 0)
(-0.305769 0.0872197 0)
(-0.311608 0.0801693 0)
(-0.316939 0.0726175 0)
(-0.321773 0.0646089 0)
(-0.326127 0.0561877 0)
(-0.33002 0.0473969 0)
(-0.333471 0.0382777 0)
(-0.336499 0.0288693 0)
(-0.339121 0.0192089 0)
(-0.341352 0.00933212 0)
(-0.343202 -0.000728133 0)
(-0.344682 -0.0109433 0)
(-0.345795 -0.0212765 0)
(-0.346535 -0.0316972 0)
(-0.346892 -0.0421724 0)
(-0.346853 -0.0526715 0)
(-0.186062 0.127201 0)
(-0.196995 0.129564 0)
(-0.207848 0.131264 0)
(-0.21855 0.132255 0)
(-0.229032 0.132499 0)
(-0.239228 0.131968 0)
(-0.249077 0.130648 0)
(-0.258526 0.128533 0)
(-0.267528 0.125628 0)
(-0.276049 0.121951 0)
(-0.284059 0.117526 0)
(-0.291541 0.112387 0)
(-0.298487 0.106573 0)
(-0.304895 0.100129 0)
(-0.310773 0.0931005 0)
(-0.316134 0.0855374 0)
(-0.320996 0.0774888 0)
(-0.325381 0.0690028 0)
(-0.329315 0.060126 0)
(-0.332823 0.0509024 0)
(-0.335933 0.0413732 0)
(-0.33867 0.0315765 0)
(-0.341057 0.0215475 0)
(-0.343115 0.0113185 0)
(-0.344866 0.000918526 0)
(-0.346317 -0.00962847 0)
(-0.347476 -0.0202914 0)
(-0.348347 -0.031046 0)
(-0.348923 -0.0418666 0)
(-0.349196 -0.05273 0)
(-0.193319 0.138199 0)
(-0.204292 0.140488 0)
(-0.21512 0.142039 0)
(-0.225728 0.14281 0)
(-0.236045 0.142767 0)
(-0.246005 0.141886 0)
(-0.255552 0.140159 0)
(-0.264635 0.13759 0)
(-0.273217 0.134194 0)
(-0.281266 0.129997 0)
(-0.288766 0.125034 0)
(-0.295708 0.119348 0)
(-0.302093 0.112987 0)
(-0.30793 0.106004 0)
(-0.313237 0.0984527 0)
(-0.318035 0.0903869 0)
(-0.322354 0.0818605 0)
(-0.326222 0.0729246 0)
(-0.329673 0.0636274 0)
(-0.33274 0.0540134 0)
(-0.335455 0.0441231 0)
(-0.33785 0.0339928 0)
(-0.339952 0.023655 0)
(-0.341789 0.0131381 0)
(-0.343383 0.00246727 0)
(-0.344748 -0.00833293 0)
(-0.345898 -0.0192445 0)
(-0.346839 -0.0302475 0)
(-0.347571 -0.041323 0)
(-0.348088 -0.0524553 0)
(-0.199603 0.149214 0)
(-0.210502 0.15136 0)
(-0.221183 0.152693 0)
(-0.231571 0.153172 0)
(-0.241596 0.152769 0)
(-0.251194 0.151468 0)
(-0.260313 0.149271 0)
(-0.26891 0.14619 0)
(-0.276953 0.142253 0)
(-0.284425 0.137495 0)
(-0.291315 0.131963 0)
(-0.297625 0.125709 0)
(-0.303369 0.118791 0)
(-0.308564 0.11127 0)
(-0.313238 0.103204 0)
(-0.317423 0.0946535 0)
(-0.321154 0.0856757 0)
(-0.324468 0.0763236 0)
(-0.327404 0.0666461 0)
(-0.33 0.0566875 0)
(-0.332294 0.0464869 0)
(-0.33432 0.0360785 0)
(-0.336109 0.0254917 0)
(-0.337692 0.0147513 0)
(-0.339093 0.00387865 0)
(-0.340331 -0.00710752 0)
(-0.341423 -0.0181933 0)
(-0.342378 -0.0293651 0)
(-0.343201 -0.0406108 0)
(-0.34389 -0.0519218 0)
(-0.204809 0.160132 0)
(-0.215518 0.162062 0)
(-0.225936 0.163102 0)
(-0.235986 0.163216 0)
(-0.245601 0.162382 0)
(-0.254723 0.160596 0)
(-0.263305 0.157869 0)
(-0.271314 0.154225 0)
(-0.278728 0.149704 0)
(-0.285538 0.144354 0)
(-0.291747 0.138232 0)
(-0.297366 0.1314 0)
(-0.302419 0.123925 0)
(-0.306935 0.115875 0)
(-0.310949 0.107313 0)
(-0.314501 0.0983052 0)
(-0.317632 0.0889094 0)
(-0.320387 0.0791801 0)
(-0.322806 0.0691662 0)
(-0.324933 0.0589107 0)
(-0.326805 0.0484505 0)
(-0.328461 0.0378173 0)
(-0.329933 0.0270371 0)
(-0.331251 0.0161313 0)
(-0.332442 0.00511687 0)
(-0.333527 -0.00599237 0)
(-0.334523 -0.0171865 0)
(-0.335445 -0.0284575 0)
(-0.336301 -0.0397989 0)
(-0.337091 -0.0512086 0)
(-0.208854 0.170843 0)
(-0.219266 0.172482 0)
(-0.229312 0.173154 0)
(-0.238917 0.17283 0)
(-0.24802 0.171499 0)
(-0.25657 0.169167 0)
(-0.264529 0.165858 0)
(-0.271874 0.16161 0)
(-0.278593 0.156475 0)
(-0.284689 0.150512 0)
(-0.290176 0.143791 0)
(-0.295076 0.136383 0)
(-0.299423 0.128363 0)
(-0.303254 0.119803 0)
(-0.306613 0.110775 0)
(-0.309546 0.101343 0)
(-0.312098 0.0915686 0)
(-0.314317 0.0815056 0)
(-0.316247 0.0712013 0)
(-0.317931 0.0606967 0)
(-0.319409 0.050026 0)
(-0.320717 0.0392175 0)
(-0.321888 0.028294 0)
(-0.322952 0.017273 0)
(-0.323934 0.0061677 0)
(-0.324856 -0.0050122 0)
(-0.325737 -0.0162606 0)
(-0.326591 -0.0275737 0)
(-0.327431 -0.0389501 0)
(-0.328259 -0.0503924 0)
(-0.211683 0.181241 0)
(-0.221699 0.182515 0)
(-0.231277 0.182747 0)
(-0.240348 0.181919 0)
(-0.248857 0.18003 0)
(-0.256762 0.177102 0)
(-0.264037 0.17317 0)
(-0.270668 0.168288 0)
(-0.276657 0.162519 0)
(-0.282016 0.155938 0)
(-0.286772 0.148621 0)
(-0.290957 0.140651 0)
(-0.294614 0.132109 0)
(-0.297787 0.123072 0)
(-0.300527 0.113612 0)
(-0.302882 0.103798 0)
(-0.304903 0.0936899 0)
(-0.306637 0.0833392 0)
(-0.308129 0.0727913 0)
(-0.309421 0.0620841 0)
(-0.310551 0.0512485 0)
(-0.311554 0.0403091 0)
(-0.312461 0.0292852 0)
(-0.313298 0.0181906 0)
(-0.31409 0.00703515 0)
(-0.314856 -0.00417498 0)
(-0.315614 -0.0154367 0)
(-0.31638 -0.0267496 0)
(-0.317168 -0.0381156 0)
(-0.317983 -0.0495409 0)
(-0.213269 0.191233 0)
(-0.222804 0.192071 0)
(-0.231835 0.191798 0)
(-0.240302 0.190406 0)
(-0.248157 0.187911 0)
(-0.25537 0.184346 0)
(-0.261925 0.179763 0)
(-0.267821 0.174231 0)
(-0.273072 0.167825 0)
(-0.277702 0.160631 0)
(-0.281748 0.152737 0)
(-0.285251 0.144231 0)
(-0.288261 0.1352 0)
(-0.29083 0.125725 0)
(-0.293011 0.115879 0)
(-0.294855 0.105729 0)
(-0.296413 0.0953337 0)
(-0.297733 0.0847425 0)
(-0.298856 0.0739969 0)
(-0.299824 0.063131 0)
(-0.300669 0.0521715 0)
(-0.301424 0.0411393 0)
(-0.302116 0.0300501 0)
(-0.302767 0.0189145 0)
(-0.303399 0.00773886 0)
(-0.304027 -0.00347419 0)
(-0.304671 -0.0147217 0)
(-0.305342 -0.0260068 0)
(-0.306057 -0.0373331 0)
(-0.306821 -0.048709 0)
(-0.213614 0.200739 0)
(-0.222599 0.201077 0)
(-0.231024 0.200241 0)
(-0.238837 0.198238 0)
(-0.246002 0.195097 0)
(-0.252499 0.19087 0)
(-0.258326 0.185623 0)
(-0.263493 0.179438 0)
(-0.268026 0.172405 0)
(-0.271961 0.164619 0)
(-0.275343 0.156177 0)
(-0.278221 0.147173 0)
(-0.280652 0.137697 0)
(-0.28269 0.12783 0)
(-0.28439 0.117647 0)
(-0.285805 0.107211 0)
(-0.286985 0.0965778 0)
(-0.287972 0.0857928 0)
(-0.288808 0.0748931 0)
(-0.289527 0.063908 0)
(-0.29016 0.0528602 0)
(-0.290732 0.0417665 0)
(-0.291265 0.0306388 0)
(-0.29178 0.019485 0)
(-0.292288 0.00830666 0)
(-0.212744 0.209697 0)
(-0.22113 0.209479 0)
(-0.22891 0.208033 0)
(-0.236042 0.205382 0)
(-0.242503 0.201573 0)
(-0.248285 0.196671 0)
(-0.253399 0.19076 0)
(-0.257867 0.183936 0)
(-0.261726 0.176299 0)
(-0.265021 0.167954 0)
(-0.267805 0.159005 0)
(-0.270134 0.149549 0)
(-0.272067 0.139678 0)
(-0.273661 0.129472 0)
(-0.274972 0.119004 0)
(-0.276049 0.108333 0)
(-0.27694 0.0975099 0)
(-0.277684 0.0865755 0)
(-0.278316 0.0755613 0)
(-0.278867 0.0644919 0)
(-0.27936 0.053385 0)
(-0.279815 0.0422534 0)
(-0.280249 0.0311058 0)
(-0.280678 0.0199473 0)
(-0.281109 0.00877767 0)
(-0.210712 0.218059 0)
(-0.218466 0.217241 0)
(-0.225581 0.215152 0)
(-0.232027 0.211831 0)
(-0.237792 0.207343 0)
(-0.242883 0.201769 0)
(-0.24732 0.195209 0)
(-0.251138 0.187771 0)
(-0.254384 0.179565 0)
(-0.257111 0.170705 0)
(-0.259377 0.161298 0)
(-0.261243 0.151444 0)
(-0.26277 0.141233 0)
(-0.264014 0.130743 0)
(-0.265029 0.120043 0)
(-0.265862 0.109187 0)
(-0.266554 0.0982205 0)
(-0.267141 0.0871772 0)
(-0.267653 0.0760835 0)
(-0.268111 0.0649586 0)
(-0.268534 0.0538155 0)
(-0.268937 0.0426632 0)
(-0.26933 0.0315072 0)
(-0.269723 0.0203504 0)
(-0.270119 0.0091916 0)
(-0.207588 0.225797 0)
(-0.214697 0.224347 0)
(-0.221146 0.221594 0)
(-0.226919 0.217595 0)
(-0.232015 0.212432 0)
(-0.236454 0.206203 0)
(-0.240267 0.199022 0)
(-0.2435 0.191007 0)
(-0.246207 0.182279 0)
(-0.248447 0.172955 0)
(-0.250284 0.163145 0)
(-0.251779 0.15295 0)
(-0.252993 0.142456 0)
(-0.253981 0.131739 0)
(-0.254792 0.120858 0)
(-0.255469 0.109865 0)
(-0.256049 0.0987962 0)
(-0.256559 0.0876798 0)
(-0.257023 0.0765361 0)
(-0.257458 0.0653787 0)
(-0.257875 0.0542162 0)
(-0.258282 0.0430539 0)
(-0.258684 0.0318946 0)
(-0.259086 0.0207397 0)
(-0.259487 0.00958734 0)
(-0.203457 0.232901 0)
(-0.209924 0.2308 0)
(-0.215724 0.227375 0)
(-0.220852 0.222703 0)
(-0.225322 0.216882 0)
(-0.229163 0.210027 0)
(-0.232417 0.202262 0)
(-0.235139 0.193718 0)
(-0.237388 0.18452 0)
(-0.239228 0.17479 0)
(-0.240725 0.164637 0)
(-0.24194 0.15416 0)
(-0.242931 0.143441 0)
(-0.24375 0.132548 0)
(-0.244442 0.121537 0)
(-0.245044 0.110449 0)
(-0.245586 0.0993152 0)
(-0.246089 0.0881561 0)
(-0.246569 0.0769859 0)
(-0.247038 0.0658131 0)
(-0.2475 0.0546422 0)
(-0.247958 0.0434751 0)
(-0.248411 0.0323125 0)
(-0.24886 0.0211546 0)
(-0.249298 0.00999954 0)
(-0.198414 0.239376 0)
(-0.204257 0.236616 0)
(-0.209438 0.232525 0)
(-0.213964 0.227197 0)
(-0.217861 0.220747 0)
(-0.221167 0.213304 0)
(-0.223934 0.205005 0)
(-0.226223 0.195984 0)
(-0.228097 0.186375 0)
(-0.229624 0.176299 0)
(-0.230866 0.165863 0)
(-0.231886 0.155162 0)
(-0.232737 0.144272 0)
(-0.233466 0.133255 0)
(-0.234113 0.122157 0)
(-0.234707 0.111012 0)
(-0.235272 0.0998436 0)
(-0.235824 0.0886661 0)
(-0.236371 0.0774873 0)
(-0.236918 0.0663107 0)
(-0.237465 0.0551371 0)
(-0.238009 0.0439658 0)
(-0.238544 0.0327959 0)
(-0.239067 0.0216266 0)
(-0.239568 0.0104557 0)
(-0.192561 0.245238 0)
(-0.197808 0.241825 0)
(-0.202411 0.237085 0)
(-0.206387 0.23113 0)
(-0.209771 0.22409 0)
(-0.212611 0.216107 0)
(-0.214966 0.207325 0)
(-0.216901 0.197888 0)
(-0.218481 0.187927 0)
(-0.219773 0.177565 0)
(-0.220841 0.166906 0)
(-0.221741 0.156036 0)
(-0.222524 0.145025 0)
(-0.223229 0.133928 0)
(-0.22389 0.122781 0)
(-0.224531 0.111611 0)
(-0.225168 0.100434 0)
(-0.225809 0.0892559 0)
(-0.226459 0.0780807 0)
(-0.227116 0.066907 0)
(-0.227774 0.0557323 0)
(-0.228427 0.0445537 0)
(-0.229065 0.0333693 0)
(-0.229679 0.0221765 0)
(-0.185998 0.250518 0)
(-0.190689 0.246469 0)
(-0.194762 0.241107 0)
(-0.198244 0.234562 0)
(-0.20118 0.226978 0)
(-0.203625 0.218506 0)
(-0.205641 0.2093 0)
(-0.207295 0.199505 0)
(-0.208656 0.189254 0)
(-0.209787 0.178665 0)
(-0.210749 0.167836 0)
(-0.211594 0.156849 0)
(-0.212366 0.145763 0)
(-0.2131 0.134624 0)
(-0.213821 0.12346 0)
(-0.214548 0.11229 0)
(-0.215289 0.101122 0)
(-0.216048 0.0899573 0)
(-0.216823 0.078793 0)
(-0.217608 0.0676247 0)
(-0.218392 0.0564471 0)
(-0.219165 0.0452548 0)
(-0.219916 0.0340465 0)
(-0.220632 0.02282 0)
(-0.178825 0.255253 0)
(-0.183004 0.250592 0)
(-0.1866 0.244645 0)
(-0.189649 0.237554 0)
(-0.192201 0.229477 0)
(-0.194318 0.220574 0)
(-0.196063 0.211002 0)
(-0.197507 0.200908 0)
(-0.198713 0.190425 0)
(-0.199746 0.179663 0)
(-0.200659 0.168716 0)
(-0.2015 0.157655 0)
(-0.202307 0.146533 0)
(-0.203107 0.135384 0)
(-0.20392 0.12423 0)
(-0.204758 0.113079 0)
(-0.205623 0.101933 0)
(-0.206514 0.0907887 0)
(-0.207424 0.0796384 0)
(-0.208343 0.0684746 0)
(-0.209257 0.0572882 0)
(-0.171136 0.259485 0)
(-0.174851 0.254247 0)
(-0.178024 0.247756 0)
(-0.180699 0.240169 0)
(-0.18293 0.231653 0)
(-0.184781 0.222375 0)
(-0.186319 0.212495 0)
(-0.18761 0.20216 0)
(-0.188719 0.191498 0)
(-0.189704 0.180614 0)
(-0.190613 0.169593 0)
(-0.191488 0.158498 0)
(-0.192361 0.147371 0)
(-0.193252 0.136238 0)
(-0.194176 0.125111 0)
(-0.195137 0.113992 0)
(-0.196133 0.102877 0)
(-0.197159 0.0917564 0)
(-0.198203 0.0806192 0)
(-0.199253 0.0694557 0)
(-0.200293 0.0582551 0)
(-0.163016 0.26326 0)
(-0.166317 0.257485 0)
(-0.169121 0.250497 0)
(-0.171478 0.242466 0)
(-0.173445 0.233565 0)
(-0.175087 0.223969 0)
(-0.176471 0.213837 0)
(-0.177662 0.203313 0)
(-0.178718 0.192521 0)
(-0.179693 0.181559 0)
(-0.180631 0.170503 0)
(-0.181566 0.159404 0)
(-0.182523 0.148297 0)
(-0.183519 0.137199 0)
(-0.18456 0.126113 0)
(-0.185646 0.115035 0)
(-0.186771 0.103954 0)
(-0.187925 0.0928568 0)
(-0.189095 0.0817298 0)
(-0.190266 0.0705614 0)
(-0.191421 0.0593403 0)
(-0.154543 0.266626 0)
(-0.157478 0.260358 0)
(-0.159965 0.252922 0)
(-0.162055 0.244498 0)
(-0.163809 0.235268 0)
(-0.165292 0.225407 0)
(-0.166567 0.215074 0)
(-0.167696 0.204411 0)
(-0.168734 0.193532 0)
(-0.169727 0.182529 0)
(-0.170715 0.171467 0)
(-0.171725 0.160391 0)
(-0.172775 0.149323 0)
(-0.173877 0.138273 0)
(-0.175032 0.127236 0)
(-0.176236 0.116202 0)
(-0.17748 0.105155 0)
(-0.178751 0.094079 0)
(-0.180032 0.0829578 0)
(-0.181309 0.0717787 0)
(-0.182564 0.0605307 0)
(-0.145784 0.269627 0)
(-0.1484 0.262912 0)
(-0.150615 0.255079 0)
(-0.152485 0.246315 0)
(-0.154071 0.236808 0)
(-0.155434 0.226732 0)
(-0.156637 0.216245 0)
(-0.157735 0.205484 0)
(-0.158778 0.194555 0)
(-0.159808 0.183542 0)
(-0.160856 0.1725 0)
(-0.161946 0.161465 0)
(-0.163089 0.150449 0)
(-0.164291 0.139455 0)
(-0.165551 0.128471 0)
(-0.16686 0.117481 0)
(-0.168206 0.106466 0)
(-0.169575 0.095407 0)
(-0.17095 0.0842863 0)
(-0.172315 0.0730907 0)
(-0.173652 0.0618098 0)
(-0.136798 0.272307 0)
(-0.139136 0.265194 0)
(-0.141122 0.257013 0)
(-0.142812 0.24796 0)
(-0.144266 0.238222 0)
(-0.145542 0.227977 0)
(-0.146699 0.217378 0)
(-0.147787 0.206555 0)
(-0.148851 0.195607 0)
(-0.149926 0.184608 0)
(-0.151038 0.173605 0)
(-0.152203 0.162623 0)
(-0.153431 0.151668 0)
(-0.154722 0.140734 0)
(-0.15607 0.129803 0)
(-0.157466 0.118856 0)
(-0.158896 0.107869 0)
(-0.160343 0.0968214 0)
(-0.161791 0.0856957 0)
(-0.163224 0.0744783 0)
(-0.164623 0.0631595 0)
(-0.127633 0.274706 0)